Control file title. For DL_FIELD 4.10
49898
    1MOL     C1    1   6.068   3.224   7.401  0.7258  0.2297  0.3966
    1MOL     C2    2   6.084   3.223   7.557 -0.0684  0.7765 -0.0421
    1MOL    Cl3    3   6.253   3.201   7.599  0.3319  0.4728  0.1496
    1MOL     H4    4   6.095   3.123   7.372  0.8663 -0.3055  2.3495
    1MOL     H5    5   5.963   3.243   7.380 -0.0865 -1.2467  2.8790
    1MOL     H6    6   6.047   3.322   7.585  2.2828  2.2111 -1.7826
    1MOL     H7    7   6.140   3.281   7.342  1.5961 -1.0399  0.2282
    1MOL     C8    8   6.004   3.111   7.630  0.2983 -0.1249  0.4312
    1MOL     C9    9   6.017   3.116   7.783  0.7863 -0.7087 -0.5384
    1MOL   Cl10   10   5.948   2.965   7.837 -0.2724 -0.2824 -0.0111
    1MOL    H11   11   6.026   3.011   7.592  0.4852 -0.1485  0.6035
    1MOL    H12   12   5.897   3.120   7.610  0.6043  1.0657 -0.7010
    1MOL    H13   13   6.124   3.115   7.805 -0.2199  1.9451  5.3914
    1MOL    C14   14   5.941   3.239   7.841 -0.3863  0.5361  0.1570
    1MOL    C15   15   5.949   3.242   7.997  0.4755  1.0612  0.0984
    1MOL   Cl16   16   5.808   3.161   8.088  0.1510 -0.2219  0.0955
    1MOL    H17   17   5.834   3.224   7.828 -0.0820 -1.1555 -0.5461
    1MOL    H18   18   5.966   3.340   7.808 -1.1654  0.6468 -0.0754
    1MOL    H19   19   6.042   3.193   8.026  0.6301 -0.2279 -2.4777
    1MOL    C20   20   5.959   3.385   8.064 -0.1896  0.8441  0.1064
    1MOL    C21   21   5.837   3.474   8.055 -0.2601  0.3217  0.0879
    1MOL   Cl22   22   5.796   3.524   7.892  0.2220 -0.1627  0.0212
    1MOL    H23   23   6.032   3.447   8.012  0.7185  0.4365  0.8811
    1MOL    H24   24   5.987   3.372   8.168 -1.0659 -0.0866  0.2309
    1MOL    H25   25   5.751   3.419   8.094  0.2852 -1.2368 -0.8704
    1MOL    C26   26   5.849   3.607   8.133  0.4661  0.2647  0.5927
    1MOL    C27   27   5.844   3.589   8.283  0.0953  0.3976  0.4736
    1MOL   Cl28   28   5.684   3.530   8.322  0.5713  0.2279 -0.0855
    1MOL    H29   29   5.772   3.676   8.099  0.7752  0.0701 -0.5050
    1MOL    H30   30   5.947   3.649   8.110  1.1874 -0.1187  2.7821
    1MOL    H31   31   5.914   3.519   8.328  1.2452  0.9607 -0.4054
    1MOL    C32   32   5.874   3.724   8.358  0.2423 -0.1327  0.4013
    1MOL    C33   33   5.788   3.849   8.325  0.7610  0.3777 -0.7450
    1MOL   Cl34   34   5.865   3.934   8.181  0.0305  0.6185  0.0757
    1MOL    H35   35   5.981   3.743   8.369  0.3673 -0.9757  0.6738
    1MOL    H36   36   5.845   3.694   8.459 -1.0862 -1.6136 -0.3906
    1MOL    H37   37   5.687   3.820   8.297 -0.4417  1.4374  2.2384
    1MOL    C38   38   5.777   3.942   8.446  0.3745  0.1706  0.1155
    1MOL    C39   39   5.649   4.032   8.449 -0.2917 -0.0696  0.5864
    1MOL   Cl40   40   5.503   3.928   8.455  0.0552  0.0946 -0.1668
    1MOL    H41   41   5.870   3.998   8.455  1.4379 -1.4104 -0.8212
    1MOL    H42   42   5.779   3.879   0.010  2.2324  0.2745  0.1635
    1MOL    H43   43   5.652   4.091   0.014 -1.3696 -1.6317  1.6775
    1MOL    C44   44   5.622   4.130   8.326  0.1314 -0.3363  0.0540
    1MOL    C45   45   5.725   4.235   8.299  0.1841  0.0746  0.0953
    1MOL   Cl46   46   5.742   4.343   8.434 -0.4225 -0.4049 -0.3571
    1MOL    H47   47   5.525   4.172   8.353 -0.1618  0.0322 -1.4779
    1MOL    H48   48   5.596   4.063   8.244  2.5862  0.7254 -1.6658
    1MOL    H49   49   5.820   4.183   8.287 -0.1697 -0.5879  0.1432
    1MOL    C50   50   5.704   4.324   8.175  0.3444 -0.3231  0.2886
    1MOL    C51   51   5.692   4.250   8.038  0.4656 -0.4352  0.6782
    1MOL   Cl52   52   5.848   4.191   7.976 -0.4766 -0.4777  0.2043
    1MOL    H53   53   5.788   4.392   8.182  1.6015 -1.5922 -1.9360
    1MOL    H54   54   5.620   4.392   8.188  0.0042 -0.7445  0.3485
    1MOL    H55   55   5.631   4.160   8.048  0.9932 -0.6171  2.4698
    1MOL    C56   56   5.602   4.308   7.929 -0.0163 -0.7266 -0.1281
    1MOL    C57   57   5.449   4.328   7.960 -0.4302  0.0613 -0.1810
    1MOL   Cl58   58   5.373   4.172   8.011 -0.2291 -0.0459  0.5090
    1MOL    H59   59   5.609   4.248   7.839 -1.7139  0.0155 -0.7686
    1MOL    H60   60   5.637   4.406   7.895 -0.6634 -0.1675  0.8119
    1MOL    H61   61   5.443   4.386   8.053  0.3495  2.2306 -1.4516
    1MOL    C62   62   5.370   4.422   7.870 -0.2230 -0.6655 -0.0441
    1MOL    C63   63   5.312   4.362   7.750 -0.0112 -0.2029  0.3176
    1MOL   Cl64   64   5.449   4.370   7.638  0.4802  0.1198 -0.3730
    1MOL    H65   65   5.431   4.510   7.848 -1.0021 -0.3801 -1.0875
    1MOL    H66   66   5.284   4.455   7.928  0.7733 -0.5543  1.3818
    1MOL    H67   67   5.281   4.261   7.777  1.3691 -0.5960  0.4664
    1MOL    C68   68   5.197   4.440   7.687 -0.1038 -0.6036 -0.0602
    1MOL    C69   69   5.104   4.374   7.583  0.1195  0.4183  0.1531
    1MOL   Cl70   70   5.001   4.497   7.502 -0.0227 -0.0925 -0.1142
    1MOL    H71   71   5.231   4.539   7.657  0.6997 -0.9548 -0.3100
    1MOL    H72   72   5.134   4.469   7.771 -1.4558 -1.1568 -0.8547
    1MOL    H73   73   5.165   4.339   7.500 -1.0089  0.6673 -0.7983
    1MOL    C74   74   5.026   4.254   7.640 -0.9433 -0.2845  0.2528
    1MOL    C75   75   4.913   4.200   7.542  0.1335  0.4045 -0.0995
    1MOL   Cl76   76   4.811   4.094   7.633 -0.3879  0.2004 -0.0475
    1MOL    H77   77   4.974   4.282   7.732 -0.8248  1.2224 -0.1262
    1MOL    H78   78   5.093   4.172   7.665 -1.2077 -0.7691 -0.6342
    1MOL    H79   79   4.853   4.286   7.513  1.7692  1.2464 -1.0419
    1MOL    C80   80   4.963   4.128   7.410  0.1722 -0.1928 -0.8122
    1MOL    C81   81   4.872   4.121   7.296  0.6117  0.1751 -0.2808
    1MOL   Cl82   82   4.730   4.016   7.324  0.0777 -0.0666 -0.3240
    1MOL    H83   83   5.006   4.031   7.434  0.3891  0.2309  0.5156
    1MOL    H84   84   5.048   4.185   7.371 -0.5592  0.7848 -1.0045
    1MOL    H85   85   4.822   4.216   7.280 -2.0365 -0.8759  1.3789
    1MOL    C86   86   4.933   4.070   7.171  0.0654 -0.2239 -0.6801
    1MOL    C87   87   4.848   4.078   7.037  0.2150 -0.5475  0.1531
    1MOL   Cl88   88   4.795   4.247   7.002  0.0161  0.5009 -0.3398
    1MOL    H89   89   4.975   3.972   7.194 -0.7369 -0.5603 -0.6602
    1MOL    H90   90   5.023   4.126   7.145  0.1126 -0.0018 -0.0404
    1MOL    H91   91   4.923   4.068   6.958  1.1351  2.6573  0.5550
    1MOL    C92   92   4.738   3.983   7.001  0.5299 -0.4192 -0.3832
    1MOL    C93   93   4.685   3.968   6.855  0.4381  0.8361 -0.5937
    1MOL   Cl94   94   4.548   3.857   6.860  0.1328 -0.0770  0.0675
    1MOL    H95   95   4.652   3.987   7.067  0.3421  0.5422 -0.6756
    1MOL    H96   96   4.780   3.883   7.012 -1.4096 -1.3167 -0.8560
    1MOL    H97   97   4.642   4.064   6.828 -2.4354 -0.5487 -1.0815
    1MOL    C98   98   4.789   3.915   6.747 -0.8189  0.4138 -0.0635
    1MOL    C99   99   4.855   4.035   6.676 -0.4619  0.0608  0.7436
    1MOL  Cl100  100   4.746   4.117   6.568  0.8566  0.1935  0.0441
    1MOL   H101  101   4.735   3.860   6.670  0.4714 -1.7811  0.5506
    1MOL   H102  102   4.840   3.826   6.785 -3.3091 -1.8366 -1.8094
    1MOL   H103  103   4.886   4.107   6.752 -1.2240 -1.5143  2.5885
    1MOL   C104  104   4.974   4.008   6.584 -0.3281  0.4982  0.0474
    1MOL   C105  105   5.098   3.967   6.661  0.0913 -0.5353  0.0712
    1MOL  Cl106  106   5.160   4.107   6.759  0.2368 -0.0414  0.2978
    1MOL   H107  107   4.991   4.092   6.516  0.3021  0.2187 -0.1435
    1MOL   H108  108   4.943   3.922   6.524 -3.2438 -0.4536  2.7751
    1MOL   H109  109   5.073   3.895   6.740  2.2307  0.6980  1.9160
    1MOL   C110  110   5.220   3.914   6.585  0.6592 -0.3482 -0.0075
    1MOL   C111  111   5.205   3.769   6.527  0.6084 -0.4846  0.6879
    1MOL  Cl112  112   5.222   3.653   6.662 -0.0579  0.1817 -0.2747
    1MOL   H113  113   5.302   3.910   6.657  1.2969  0.7187 -0.6572
    1MOL   H114  114   5.247   3.991   6.513  0.7111 -0.4508 -0.0964
    1MOL   H115  115   5.101   3.762   6.493  1.3374  0.6538 -1.9162
    1MOL   C116  116   5.300   3.751   6.403  0.7393  0.3778  0.0095
    1MOL   C117  117   5.337   3.602   6.381  0.5634  0.4788  0.5283
    1MOL  Cl118  118   5.185   3.519   6.333  0.1802  0.0846  0.2681
    1MOL   H119  119   5.393   3.806   6.419  0.0204  1.5391  0.2867
    1MOL   H120  120   5.263   3.781   6.305  1.5606 -1.0573 -0.7571
    1MOL   H121  121   5.405   3.588   6.297  2.9054  2.0093  2.1129
    1MOL   H122  122   5.386   3.562   6.469  0.2637  0.5674  0.7355
    2MOL     C1  123   7.256   5.715   6.443  0.5717  0.4057  0.8599
    2MOL     C2  124   7.292   5.755   6.591  0.5863  0.0964 -0.6593
    2MOL    Cl3  125   7.215   5.917   6.627 -0.1471 -0.4114 -0.3681
    2MOL     H4  126   7.304   5.789   6.379 -0.7520 -0.4455 -1.1801
    2MOL     H5  127   7.298   5.616   6.420  0.0096  0.1983  0.7296
    2MOL     H6  128   7.231   5.693   6.657  0.5765 -1.5794 -2.1898
    2MOL     H7  129   7.149   5.712   6.423  0.6845  0.5540  0.2242
    2MOL     C8  130   7.439   5.766   6.632  0.1474 -0.1144 -0.7251
    2MOL     C9  131   7.509   5.635   6.637 -0.0738 -0.5635 -0.0351
    2MOL   Cl10  132   7.431   5.521   6.758 -0.5895  0.5346  0.5903
    2MOL    H11  133   7.441   5.804   6.734  2.9844 -1.2689 -0.3154
    2MOL    H12  134   7.484   5.838   6.562 -0.7143  1.6218  0.4577
    2MOL    H13  135   7.502   5.580   6.543  1.3795  1.1921 -1.1926
    2MOL    C14  136   7.657   5.649   6.657 -0.1819  0.1052  0.2833
    2MOL    C15  137   7.738   5.526   6.623 -0.1441 -0.0470 -0.0959
    2MOL   Cl16  138   7.732   5.414   6.758 -0.6518  0.0671  0.3122
    2MOL    H17  139   7.677   5.683   6.759 -0.0915  2.8463 -0.6147
    2MOL    H18  140   7.685   5.731   6.591 -0.5978 -0.7857 -0.9932
    2MOL    H19  141   7.694   5.476   6.537  0.4755 -3.1483  1.3196
    2MOL    C20  142   7.889   5.561   6.603 -0.2138 -0.0571 -0.2435
    2MOL    C21  143   7.975   5.463   6.513  0.6041 -0.3351  0.5564
    2MOL   Cl22  144   8.139   5.526   6.541  0.2988 -0.1303  0.4508
    2MOL    H23  145   7.945   5.591   6.692 -1.5535  1.3689  0.1418
    2MOL    H24  146   7.885   5.659   6.555 -1.8734 -0.4681 -0.9678
    2MOL    H25  147   7.959   5.361   6.546  2.4173 -0.4659  1.1149
    2MOL    C26  148   7.946   5.464   6.364  0.1060  0.5179 -0.2463
    2MOL    C27  149   8.033   5.368   6.280  0.4030 -1.0365  0.3208
    2MOL   Cl28  150   8.006   5.382   6.103 -0.0275  0.2425 -0.2763
    2MOL    H29  151   7.951   5.564   6.322  0.1741  0.8727  0.6119
    2MOL    H30  152   7.842   5.434   6.352  0.6744 -1.1940 -1.1631
    2MOL    H31  153   8.138   5.393   6.291  0.2264 -0.3426  0.5103
    2MOL    C32  154   8.023   5.216   6.321  0.2161  0.3312  0.2478
    2MOL    C33  155   7.894   5.142   6.275  0.0975  0.6769  0.9589
    2MOL   Cl34  156   7.757   5.191   6.381 -0.3767  0.2996 -0.1186
    2MOL    H35  157   8.033   5.211   6.429  1.1748 -0.9828  0.1190
    2MOL    H36  158   8.116   5.171   6.284 -0.8006 -0.6199 -1.1982
    2MOL    H37  159   7.874   5.181   6.175 -0.6486  0.9572  1.2142
    2MOL    C38  160   7.899   4.987   6.273 -0.3589  0.5943 -0.3521
    2MOL    C39  161   7.791   4.914   6.193  0.3741  0.2392 -0.5178
    2MOL   Cl40  162   7.791   4.743   6.246 -0.1418  0.0120 -0.2046
    2MOL    H41  163   7.894   4.953   6.376 -0.3973  1.3729 -0.0960
    2MOL    H42  164   7.998   4.960   6.237 -1.7744 -2.3944 -2.1998
    2MOL    H43  165   7.695   4.957   6.222  0.8215  0.0749  1.2157
    2MOL    C44  166   7.782   4.927   6.038  0.2115  0.1288 -0.3258
    2MOL    C45  167   7.657   4.888   5.956  0.0864 -0.5386  0.5125
    2MOL   Cl46  168   7.704   4.901   5.786 -0.0727  0.0705  0.0808
    2MOL    H47  169   7.865   4.866   6.002  1.7854  0.5418  2.4503
    2MOL    H48  170   7.810   5.031   6.022  0.6881  0.0339 -0.1302
    2MOL    H49  171   7.634   4.784   5.980 -1.0883 -0.5970 -0.7957
    2MOL    C50  172   7.540   4.986   5.982 -0.3357 -0.0755  0.5610
    2MOL    C51  173   7.407   4.935   5.926  0.0330  0.0366 -0.8558
    2MOL   Cl52  174   7.286   5.077   5.916  0.3419 -0.0123  0.2729
    2MOL    H53  175   7.553   5.077   5.923 -2.4385 -0.8827 -1.1751
    2MOL    H54  176   7.533   5.014   6.088 -2.2044  0.9811  0.1721
    2MOL    H55  177   7.431   4.890   5.830  1.4264 -1.6571  0.2528
    2MOL    C56  178   7.347   4.822   6.013  0.3086  0.7205 -0.3815
    2MOL    C57  179   7.216   4.756   5.961 -0.6096  0.1914  0.9468
    2MOL   Cl58  180   7.110   4.697   6.091  0.3283 -0.3463 -0.0808
    2MOL    H59  181   7.338   4.852   6.117 -0.6687  0.3668 -0.3619
    2MOL    H60  182   7.423   4.745   6.030 -1.1609 -0.7700 -0.3844
    2MOL    H61  183   7.152   4.836   5.923 -1.8328 -1.7245 -1.1491
    2MOL    C62  184   7.250   4.650   5.848 -0.5584 -0.7277 -0.8764
    2MOL    C63  185   7.315   4.521   5.906 -0.7685  0.0791  0.0942
    2MOL   Cl64  186   7.486   4.507   5.862 -0.0577  0.7503 -0.2141
    2MOL    H65  187   7.292   4.689   5.756 -2.1783 -1.7822 -2.0957
    2MOL    H66  188   7.158   4.614   5.802 -1.7198 -1.1757  1.6529
    2MOL    H67  189   7.315   4.530   6.015 -1.1463 -0.4025  0.1358
    2MOL    C68  190   7.253   4.389   5.861  0.1262 -0.4090 -0.6119
    2MOL    C69  191   7.114   4.350   5.905 -0.2440 -0.1418  0.3522
    2MOL   Cl70  192   7.123   4.274   6.068 -0.0312  0.5303  0.1578
    2MOL    H71  193   7.326   4.315   5.893 -1.1845 -2.3822 -2.0243
    2MOL    H72  194   7.262   4.384   5.753 -1.4138 -0.2487 -0.7631
    2MOL    H73  195   7.061   4.446   5.904  2.4871  1.4171 -1.4129
    2MOL    C74  196   7.059   4.237   5.812  0.7589 -0.4921  0.0886
    2MOL    C75  197   6.953   4.282   5.702  0.1099  0.0554 -0.7065
    2MOL   Cl76  198   6.820   4.360   5.796 -0.3826  0.8506 -0.0503
    2MOL    H77  199   7.015   4.158   5.873 -0.7090 -1.2909 -1.9444
    2MOL    H78  200   7.141   4.193   5.756  1.1243  1.2923 -0.8041
    2MOL    H79  201   7.009   4.358   5.648  3.7012 -1.2947  0.9695
    2MOL    C80  202   6.892   4.166   5.622  0.6886 -0.4917  0.5170
    2MOL    C81  203   6.829   4.207   5.491  0.4256  0.6725  0.5321
    2MOL   Cl82  204   6.940   4.267   5.367 -0.2521 -0.0677  0.3253
    2MOL    H83  205   6.821   4.114   5.687 -0.8837  0.2958 -0.5512
    2MOL    H84  206   6.973   4.100   5.589  1.0666  0.7114 -1.0188
    2MOL    H85  207   6.804   4.107   5.456  1.1205  1.0505 -1.0913
    2MOL    C86  208   6.712   4.302   5.497  0.0466  0.3567  0.9157
    2MOL    C87  209   6.585   4.266   5.591 -0.0075 -0.1369  0.1914
    2MOL   Cl88  210   6.521   4.100   5.549 -0.5014 -0.0296  0.0874
    2MOL    H89  211   6.674   4.309   5.395  2.7280  1.6217 -0.0319
    2MOL    H90  212   6.754   4.398   5.525 -1.9492  2.0880 -1.8298
    2MOL    H91  213   6.623   4.258   5.692  0.4094 -1.4452 -0.0548
    2MOL    C92  214   6.474   4.372   5.590  0.9366 -0.1277 -0.7262
    2MOL    C93  215   6.411   4.409   5.451 -0.0766 -0.2335 -0.3711
    2MOL   Cl94  216   6.509   4.544   5.396  0.1944  0.1740  0.3404
    2MOL    H95  217   6.512   4.461   5.641  0.4697 -0.9910  1.1694
    2MOL    H96  218   6.399   4.334   5.659  0.5436 -1.4536 -1.8575
    2MOL    H97  219   6.423   4.329   5.378 -0.3077  0.4490 -1.1681
    2MOL    C98  220   6.264   4.449   5.445 -0.5048  0.4002  0.0498
    2MOL    C99  221   6.167   4.329   5.466  0.0777  0.2567  0.6464
    2MOL  Cl100  222   6.179   4.215   5.328  0.3883  0.0821 -0.0732
    2MOL   H101  223   6.244   4.489   5.346 -0.9665 -0.5875 -0.2656
    2MOL   H102  224   6.253   4.522   5.525  1.9524  1.5835 -0.6487
    2MOL   H103  225   6.186   4.279   5.561 -0.0116  1.9014  1.5445
    2MOL   C104  226   6.021   4.384   5.471 -0.6874  0.2238  0.5308
    2MOL   C105  227   5.912   4.297   5.526  0.3072  0.5695 -0.5362
    2MOL  Cl106  228   5.881   4.155   5.414  0.2236  0.1860  0.2709
    2MOL   H107  229   5.993   4.436   5.379 -1.4485  0.1932  0.7395
    2MOL   H108  230   6.035   4.480   5.521  0.9331  1.3807 -2.0198
    2MOL   H109  231   5.938   4.255   5.624 -1.1763 -1.5030 -0.9954
    2MOL   C110  232   5.778   4.364   5.537  0.2077  0.4677  0.1126
    2MOL   C111  233   5.713   4.452   5.429  0.0114 -0.5179 -0.2453
    2MOL  Cl112  234   5.559   4.494   5.497  0.3652 -0.0859 -0.3440
    2MOL   H113  235   5.773   4.408   5.637  0.5357  0.7980 -0.0141
    2MOL   H114  236   5.710   4.279   5.542  0.9179 -0.1093 -0.1151
    2MOL   H115  237   5.765   4.547   5.426 -0.2433 -0.3950 -1.1539
    2MOL   C116  238   5.694   4.380   5.295  0.2951 -0.3867 -0.4829
    2MOL   C117  239   5.635   4.451   5.177  0.1529 -0.2360 -0.0543
    2MOL  Cl118  240   5.760   4.579   5.142 -0.0953  0.2227 -0.5070
    2MOL   H119  241   5.622   4.299   5.305  0.4141 -0.1714  2.9530
    2MOL   H120  242   5.786   4.334   5.261  1.1192  0.3484  0.7359
    2MOL   H121  243   5.624   4.390   5.087  0.4128  0.4950 -0.5812
    2MOL   H122  244   5.535   4.488   5.199 -0.1965 -1.2725  0.1498
    3MOL     C1  245   5.637   3.000   3.290  0.5932  0.3948 -0.4562
    3MOL     C2  246   5.701   3.135   3.257 -0.4127  0.0826  0.2543
    3MOL    Cl3  247   5.572   3.257   3.232 -0.2059  0.2314 -0.2662
    3MOL     H4  248   5.555   2.970   3.225  0.9201 -1.1356 -0.1851
    3MOL     H5  249   5.717   2.925   3.291  0.4131  0.1663 -1.9757
    3MOL     H6  250   5.749   3.161   3.351 -0.2122 -1.0868  0.4881
    3MOL     H7  251   5.595   3.004   3.391  1.1395  2.3164 -0.2880
    3MOL     C8  252   5.801   3.128   3.148 -0.3772  0.1484  0.4580
    3MOL     C9  253   5.893   3.249   3.124 -0.5983  0.2035 -0.0433
    3MOL   Cl10  254   5.996   3.220   2.980  0.2819  0.1871 -0.1042
    3MOL    H11  255   5.749   3.107   3.055 -0.1846  1.0744  0.1348
    3MOL    H12  256   5.856   3.034   3.151  0.6193  0.6331 -1.4380
    3MOL    H13  257   5.833   3.338   3.108  0.7946  0.9903 -0.9387
    3MOL    C14  258   5.996   3.284   3.242  0.4499  0.0855 -0.0893
    3MOL    C15  259   6.079   3.412   3.224 -0.4542 -0.1318 -0.4243
    3MOL   Cl16  260   6.185   3.423   3.371 -0.4351 -0.0720 -0.1499
    3MOL    H17  261   6.059   3.196   3.234  1.0399  0.4505  0.4381
    3MOL    H18  262   5.945   3.289   3.339  1.4774  0.7981  0.4221
    3MOL    H19  263   6.148   3.391   3.142 -0.8195 -1.2415 -0.4537
    3MOL    C20  264   6.001   3.548   3.219  0.5056  0.3896 -0.6838
    3MOL    C21  265   6.082   3.678   3.214 -0.3923  0.2663  0.4739
    3MOL   Cl22  266   5.975   3.817   3.246 -0.2829  0.1281  0.0339
    3MOL    H23  267   5.938   3.542   3.307  0.8055 -0.1482 -0.4999
    3MOL    H24  268   5.935   3.546   3.132  1.3838 -1.8360 -1.3351
    3MOL    H25  269   6.149   3.669   3.299 -1.1967  1.9452  1.3223
    3MOL    C26  270   6.153   3.681   3.078 -0.3786 -0.3164  0.1918
    3MOL    C27  271   6.252   3.791   3.060 -0.5407 -0.0817 -0.1371
    3MOL   Cl28  272   6.282   3.831   2.889 -0.0209 -0.0270  0.1807
    3MOL    H29  273   6.067   3.689   3.012 -1.2531 -3.5154  0.8670
    3MOL    H30  274   6.202   3.586   3.055 -0.5428 -0.1628 -0.8383
    3MOL    H31  275   6.199   3.881   3.092 -0.1124 -0.4729  1.6704
    3MOL    C32  276   6.376   3.773   3.152 -0.6240 -0.3048  0.1335
    3MOL    C33  277   6.480   3.892   3.150  1.4252 -0.7349 -0.4582
    3MOL   Cl34  278   6.631   3.826   3.218 -0.4226  0.2055  0.2104
    3MOL    H35  279   6.423   3.679   3.125  3.2733  1.0452  1.8048
    3MOL    H36  280   6.352   3.746   3.254  0.5914  1.1642  0.8269
    3MOL    H37  281   6.496   3.919   3.046  1.1898  0.4019 -0.2086
    3MOL    C38  282   6.433   4.009   3.236  0.0987 -0.0536  0.4008
    3MOL    C39  283   6.537   4.123   3.268 -0.1867  0.4662  0.1849
    3MOL   Cl40  284   6.460   4.231   3.383  0.0560 -0.0538  0.0493
    3MOL    H41  285   6.404   3.959   3.328 -1.8711  0.0494 -0.1418
    3MOL    H42  286   6.347   4.058   3.191 -0.3349  0.5243  1.8429
    3MOL    H43  287   6.624   4.086   3.321  0.6593  0.7730 -0.9622
    3MOL    C44  288   6.581   4.208   3.146  0.0292  0.3388 -0.0653
    3MOL    C45  289   6.721   4.269   3.157  0.6374  0.0140 -0.2491
    3MOL   Cl46  290   6.721   4.439   3.101 -0.3115  0.1775  0.2037
    3MOL    H47  291   6.512   4.292   3.143 -0.0855  0.1996 -1.6961
    3MOL    H48  292   6.573   4.151   3.053  0.2391 -1.9728  1.2901
    3MOL    H49  293   6.758   4.273   3.260  2.5756 -1.8134 -0.8512
    3MOL    C50  294   6.833   4.187   3.085 -0.2068 -0.2088  0.4564
    3MOL    C51  295   6.977   4.194   3.142 -0.0448 -0.3786 -0.7235
    3MOL   Cl52  296   6.985   4.113   3.302 -0.0783  0.1638 -0.2176
    3MOL    H53  297   6.833   4.216   2.979 -0.4247 -2.1965 -0.1061
    3MOL    H54  298   6.813   4.081   3.093  2.6502 -0.6955  1.5846
    3MOL    H55  299   7.046   4.125   3.093 -0.0798 -0.9838  0.0628
    3MOL    C56  300   7.035   4.329   3.167 -0.4535 -0.3325 -0.1745
    3MOL    C57  301   7.098   4.398   3.042  0.0745  0.1024  0.4204
    3MOL   Cl58  302   7.243   4.327   2.971 -0.2236 -0.3805 -0.4208
    3MOL    H59  303   7.114   4.311   3.240 -0.5914  0.9915  0.3003
    3MOL    H60  304   6.968   4.397   3.218 -1.2497  0.7795 -2.6044
    3MOL    H61  305   7.022   4.406   2.964  1.0549  0.4864 -0.5044
    3MOL    C62  306   7.141   4.550   3.061 -0.4421 -0.8026  0.5447
    3MOL    C63  307   7.033   4.662   3.095 -0.2356  0.1125 -0.4496
    3MOL   Cl64  308   6.932   4.702   2.957  0.0565 -0.0737 -0.0530
    3MOL    H65  309   7.195   4.576   2.970 -2.4620  0.1618 -0.4070
    3MOL    H66  310   7.212   4.536   3.143 -0.4656 -1.7439  0.4084
    3MOL    H67  311   6.961   4.621   3.165 -0.8113 -1.3405 -1.8524
    3MOL    C68  312   7.094   4.791   3.153 -0.7758 -0.2927  0.4546
    3MOL    C69  313   7.199   4.863   3.054 -0.0257 -0.1945 -0.3058
    3MOL   Cl70  314   7.348   4.764   3.070 -0.1027 -0.5094  0.0909
    3MOL    H71  315   7.121   4.787   3.258 -1.9871  0.8862  0.8242
    3MOL    H72  316   7.005   4.854   3.158 -0.2267  0.3970  1.9030
    3MOL    H73  317   7.161   4.842   2.953  0.4306 -0.4780 -0.4181
    3MOL    C74  318   7.212   5.011   3.086 -0.0320  0.9033 -0.0407
    3MOL    C75  319   7.277   5.103   2.978 -0.5272  0.0760  0.3840
    3MOL   Cl76  320   7.310   5.252   3.059  0.4373  0.0520  0.4640
    3MOL    H77  321   7.270   5.014   3.178  1.1173  1.8860 -0.7803
    3MOL    H78  322   7.113   5.046   3.115  0.3102  1.5408  0.3767
    3MOL    H79  323   7.368   5.057   2.939 -1.7746 -0.2510 -2.2332
    3MOL    C80  324   7.169   5.132   2.867  1.3547 -0.5737  0.7985
    3MOL    C81  325   7.232   5.157   2.726  0.2768  0.7402 -1.3431
    3MOL   Cl82  326   7.130   5.274   2.637  0.3566  0.0908  0.4770
    3MOL    H83  327   7.109   5.220   2.891 -1.2087 -1.0689 -3.3610
    3MOL    H84  328   7.100   5.050   2.849  0.4379  0.5155 -0.6517
    3MOL    H85  329   7.328   5.205   2.747  0.2154  0.1577  0.2736
    3MOL    C86  330   7.251   5.022   2.656 -0.8536  0.4957  0.4086
    3MOL    C87  331   7.358   5.022   2.540  0.0024 -0.7241 -0.3378
    3MOL   Cl88  332   7.518   5.069   2.596  0.0854 -0.0372 -0.2381
    3MOL    H89  333   7.152   4.996   2.618 -0.0251  0.2252 -1.6354
    3MOL    H90  334   7.288   4.953   2.731  0.7257  1.1342  0.2442
    3MOL    H91  335   7.367   4.920   2.504  1.8899 -1.4086  1.9275
    3MOL    C92  336   7.322   5.103   2.411 -0.2176  0.1694  0.8020
    3MOL    C93  337   7.191   5.071   2.335  0.1056 -0.0797  0.1339
    3MOL   Cl94  338   7.189   4.901   2.286 -0.5771 -0.0512 -0.1162
    3MOL    H95  339   7.402   5.077   2.342 -0.8463  0.2371  0.0454
    3MOL    H96  340   7.326   5.211   2.425 -0.9803  0.1255  1.4502
    3MOL    H97  341   7.114   5.087   2.411  0.4941  1.0469  0.3021
    3MOL    C98  342   7.190   5.166   2.212  0.3223 -0.4004  0.0662
    3MOL    C99  343   7.052   5.171   2.142  0.0047 -0.3688 -0.1400
    3MOL  Cl100  344   7.086   5.234   1.980  0.0492 -0.0153  0.1829
    3MOL   H101  345   7.268   5.146   2.138 -1.8720 -0.8238 -2.1786
    3MOL   H102  346   7.212   5.261   2.263  0.8777 -0.7959  0.5756
    3MOL   H103  347   7.012   5.070   2.134 -3.1278  0.8073  0.0829
    3MOL   C104  348   6.949   5.261   2.219 -0.3995  0.1621  0.4443
    3MOL   C105  349   6.811   5.297   2.155  0.7966 -0.1632 -0.2076
    3MOL  Cl106  350   6.750   5.441   2.236 -0.0784  0.1096 -0.1079
    3MOL   H107  351   7.004   5.351   2.242 -0.0270 -0.1350  0.7113
    3MOL   H108  352   6.928   5.208   2.312 -1.8998 -0.0130  0.0310
    3MOL   H109  353   6.824   5.327   2.051 -0.1107 -2.7177 -1.0885
    3MOL   C110  354   6.701   5.193   2.158  0.6373 -0.3008 -0.0159
    3MOL   C111  355   6.721   5.075   2.069  0.1184 -0.3204 -0.3950
    3MOL  Cl112  356   6.738   5.128   1.893 -0.4748 -0.0021 -0.1011
    3MOL   H113  357   6.609   5.244   2.126  0.8760 -0.1553 -0.4695
    3MOL   H114  358   6.675   5.151   2.255  1.8126 -0.4810  0.2219
    3MOL   H115  359   6.808   5.025   2.112  0.8370  0.0138 -1.4394
    3MOL   C116  360   6.596   4.991   2.072  0.2640 -0.2199  0.3210
    3MOL   C117  361   6.600   4.862   1.992  0.2845 -0.4092 -0.8439
    3MOL  Cl118  362   6.468   4.762   2.056  0.0755 -0.2982  0.5513
    3MOL   H119  363   6.509   5.047   2.040  0.4181 -0.1431  0.0377
    3MOL   H120  364   6.574   4.960   2.174  0.4730 -0.0817  0.4098
    3MOL   H121  365   6.570   4.881   1.889  2.7282 -1.4611 -1.7753
    3MOL   H122  366   6.694   4.808   2.000  1.7715  1.9207 -2.0504
    4MOL     C1  367   3.109   7.556   2.537  0.3881  0.2101 -0.2070
    4MOL     C2  368   3.105   7.501   2.394  0.3062 -0.5471  0.3820
    4MOL    Cl3  369   3.193   7.626   2.305 -0.0980 -0.3548 -0.2868
    4MOL     H4  370   3.063   7.486   2.607  1.0433  0.4638  0.4852
    4MOL     H5  371   3.213   7.567   2.567  0.3087 -0.0978  0.1728
    4MOL     H6  372   3.161   7.409   2.385  1.4735  0.3461 -1.7854
    4MOL     H7  373   3.055   7.651   2.538  0.1344  0.1367 -2.6310
    4MOL     C8  374   2.968   7.485   2.347  0.6196 -0.4008 -0.1353
    4MOL     C9  375   2.905   7.357   2.396 -0.2810 -0.1980  0.5974
    4MOL   Cl10  376   2.943   7.226   2.275 -0.2605 -0.3209 -0.2261
    4MOL    H11  377   2.963   7.493   2.239 -0.3061 -1.5381 -0.1875
    4MOL    H12  378   2.907   7.572   2.374  0.1025 -0.4881 -1.0016
    4MOL    H13  379   2.957   7.325   2.486 -0.2509  0.2096  0.7261
    4MOL    C14  380   2.749   7.352   2.419 -0.0954 -0.3520 -1.1492
    4MOL    C15  381   2.699   7.383   2.567  0.3560  0.5792 -0.1921
    4MOL   Cl16  382   2.739   7.549   2.616 -0.3546 -0.2698 -0.1485
    4MOL    H17  383   2.708   7.260   2.379 -0.0004 -0.6463 -0.5713
    4MOL    H18  384   2.703   7.434   2.364 -0.6925 -0.1647 -0.3732
    4MOL    H19  385   2.590   7.373   2.567  0.5561 -2.0855  0.9593
    4MOL    C20  386   2.764   7.283   2.667 -0.2153 -0.3429 -0.0242
    4MOL    C21  387   2.714   7.289   2.814 -0.5038  0.9013 -0.3288
    4MOL   Cl22  388   2.835   7.382   2.905 -0.3282  0.2701 -0.3281
    4MOL    H23  389   2.872   7.298   2.664 -0.1335 -0.0607  2.6359
    4MOL    H24  390   2.744   7.184   2.626 -0.6373 -0.2886  0.0476
    4MOL    H25  391   2.619   7.339   2.834 -0.6471  0.2573  0.6626
    4MOL    C26  392   2.702   7.155   2.893 -0.2451  0.1538 -0.3386
    4MOL    C27  393   2.599   7.058   2.829 -0.4463 -0.4892  0.2497
    4MOL   Cl28  394   2.442   7.131   2.803  0.0026  0.0610  0.2403
    4MOL    H29  395   2.684   7.180   2.997  0.8599  0.0136 -0.1168
    4MOL    H30  396   2.799   7.106   2.887 -0.7678 -1.4194  2.9084
    4MOL    H31  397   2.631   7.012   2.736  0.9778  1.6148 -0.3420
    4MOL    C32  398   2.575   6.946   2.929 -0.0793  0.6008  0.5585
    4MOL    C33  399   2.492   6.828   2.875  0.4637 -0.3918 -0.3347
    4MOL   Cl34  400   2.463   6.717   3.010 -0.2052 -0.2033 -0.2236
    4MOL    H35  401   2.521   6.986   3.015 -1.4764  0.0391 -0.0465
    4MOL    H36  402   2.671   6.908   2.964 -1.0361 -2.3993  0.0964
    4MOL    H37  403   2.390   6.857   2.849  1.8983  3.1146 -2.2424
    4MOL    C38  404   2.560   6.742   2.763  0.0937  0.0089 -0.2437
    4MOL    C39  405   2.523   6.760   2.610  0.0787  0.4604 -0.6319
    4MOL   Cl40  406   2.354   6.748   2.608 -0.0801 -0.3556  0.1498
    4MOL    H41  407   2.545   6.637   2.787  2.3703 -0.4998 -0.8931
    4MOL    H42  408   2.669   6.751   2.764 -0.0711  2.3559  0.5980
    4MOL    H43  409   2.556   6.861   2.584 -0.8158  0.7094 -0.8116
    4MOL    C44  410   2.588   6.650   2.524 -0.7876  0.4420  0.0437
    4MOL    C45  411   2.558   6.660   2.375 -0.1569 -0.4975  0.3948
    4MOL   Cl46  412   2.606   6.511   2.298  0.0126  0.1825 -0.2772
    4MOL    H47  413   2.557   6.551   2.559  1.9689 -1.0527 -1.5134
    4MOL    H48  414   2.696   6.642   2.541 -0.5192  2.2296 -0.7491
    4MOL    H49  415   2.453   6.677   2.354 -0.0680  0.6342  0.8317
    4MOL    C50  416   2.639   6.769   2.302  0.5512 -0.1332  0.7722
    4MOL    C51  417   2.792   6.787   2.319 -0.1052  0.3785 -0.2353
    4MOL   Cl52  418   2.847   6.851   2.482 -0.0165  0.3710 -0.2400
    4MOL    H53  419   2.607   6.872   2.316  0.5216 -0.3151  2.0933
    4MOL    H54  420   2.606   6.750   2.200  1.4018  0.5628  0.3617
    4MOL    H55  421   2.829   6.684   2.313 -2.0158 -0.3460 -0.0262
    4MOL    C56  422   2.856   6.868   2.200  0.2178  0.5744 -0.7851
    4MOL    C57  423   3.013   6.861   2.216 -0.1026 -0.5063 -0.3670
    4MOL   Cl58  424   3.084   6.973   2.097  0.3992  0.6607 -0.1638
    4MOL    H59  425   2.839   6.976   2.209  0.6248  0.4859  1.3306
    4MOL    H60  426   2.830   6.838   2.099 -0.4425  0.9181 -0.7209
    4MOL    H61  427   3.053   6.894   2.312 -1.1239 -3.2940  1.0796
    4MOL    C62  428   3.062   6.718   2.171  0.4270 -0.2181  0.1778
    4MOL    C63  429   3.216   6.700   2.177  0.3142 -0.1830 -0.5143
    4MOL   Cl64  430   3.256   6.593   2.047  0.2471  0.0571 -0.0166
    4MOL    H65  431   3.034   6.710   2.066 -0.5606  1.4381  0.2969
    4MOL    H66  432   3.013   6.637   2.227  0.6563  0.5101  1.4568
    4MOL    H67  433   3.274   6.792   2.166 -0.0936  0.0655 -0.5813
    4MOL    C68  434   3.256   6.627   2.311 -0.7651 -0.6378 -0.6981
    4MOL    C69  435   3.233   6.703   2.437  0.1164 -0.0291 -0.1505
    4MOL   Cl70  436   3.321   6.861   2.426 -0.2236  0.0034  0.0411
    4MOL    H71  437   3.361   6.600   2.304 -0.5276 -0.2354  1.1595
    4MOL    H72  438   3.210   6.529   2.323  1.8154 -2.0305 -1.8110
    4MOL    H73  439   3.126   6.716   2.455  0.5243  2.1980  0.9051
    4MOL    C74  440   3.288   6.623   2.564  0.6181  0.7295 -0.6180
    4MOL    C75  441   3.214   6.490   2.602  1.1364 -1.2621 -0.3442
    4MOL   Cl76  442   3.035   6.512   2.613  0.0281  0.4316 -0.0189
    4MOL    H77  443   3.267   6.689   2.648 -2.1364 -1.2270  0.3296
    4MOL    H78  444   3.396   6.611   2.560  0.4991 -1.1263  0.9463
    4MOL    H79  445   3.230   6.426   2.516 -1.0802  0.3366 -1.9877
    4MOL    C80  446   3.265   6.439   2.739 -0.0985  0.0423  0.2492
    4MOL    C81  447   3.278   6.290   2.745 -0.0305  0.1001 -0.2673
    4MOL   Cl82  448   3.402   6.237   2.632 -0.1816 -0.0084  0.5649
    4MOL    H83  449   3.198   6.483   2.812 -0.2943 -1.4019  0.9725
    4MOL    H84  450   3.365   6.478   2.759 -0.4278  1.1329 -0.1958
    4MOL    H85  451   3.321   6.268   2.843 -1.3930  0.7777  0.4997
    4MOL    C86  452   3.141   6.221   2.726 -0.2685  0.5042  0.1097
    4MOL    C87  453   3.132   6.071   2.750  0.2303  0.0501  0.2862
    4MOL   Cl88  454   3.238   6.027   2.894  0.0617  0.1271  0.0428
    4MOL    H89  455   3.099   6.239   2.627  0.5781  0.9274 -0.1778
    4MOL    H90  456   3.072   6.268   2.795 -1.7939  1.3894 -1.9637
    4MOL    H91  457   3.029   6.053   2.778  0.0222  2.1970  0.9677
    4MOL    C92  458   3.162   5.982   2.629 -0.0927 -0.3834  0.1596
    4MOL    C93  459   3.167   5.829   2.649 -0.4193 -0.1239  0.5056
    4MOL   Cl94  460   3.197   5.770   2.485 -0.1457  0.4080  0.0847
    4MOL    H95  461   3.251   6.011   2.572 -0.9169  1.7477 -0.0855
    4MOL    H96  462   3.083   6.003   2.557  0.9934 -2.0645 -1.5897
    4MOL    H97  463   3.246   5.806   2.722  1.1283 -0.4132 -1.2258
    4MOL    C98  464   3.032   5.781   2.702  0.4146 -0.0929  0.0352
    4MOL    C99  465   3.009   5.634   2.719  0.1032 -0.1136 -0.2900
    4MOL  Cl100  466   2.837   5.603   2.744  0.3405  0.0475 -0.0359
    4MOL   H101  467   2.954   5.820   2.636 -0.0799  2.4068  1.9826
    4MOL   H102  468   3.017   5.833   2.797  0.2539 -2.0022  1.0847
    4MOL   H103  469   3.028   5.583   2.625 -0.8059 -0.4929 -0.2677
    4MOL   C104  470   3.086   5.571   2.833  0.4361 -0.1395  0.1650
    4MOL   C105  471   3.105   5.420   2.831  0.3243 -0.7746 -0.1215
    4MOL  Cl106  472   2.952   5.332   2.792 -0.0633  0.6583 -0.0276
    4MOL   H107  473   3.031   5.593   2.925  3.3430 -2.2177  2.4677
    4MOL   H108  474   3.177   5.626   2.857 -0.8859  1.9220  0.6003
    4MOL   H109  475   3.172   5.399   2.748  0.8282  0.8879 -0.1647
    4MOL   C110  476   3.165   5.364   2.968  0.3628 -0.4076 -0.4048
    4MOL   C111  477   3.232   5.228   2.935  0.2448  0.3448  0.3451
    4MOL  Cl112  478   3.218   5.140   3.082 -0.1731 -0.0397 -0.2530
    4MOL   H113  479   3.082   5.348   3.036 -0.0300  2.7840 -0.0692
    4MOL   H114  480   3.229   5.437   3.016  0.4313 -0.0018 -1.1005
    4MOL   H115  481   3.161   5.179   2.868 -0.3453  0.8782  0.5769
    4MOL   C116  482   3.381   5.232   2.898 -0.0769 -0.7978 -0.1850
    4MOL   C117  483   3.450   5.099   2.853  0.1009 -0.0491  0.7084
    4MOL  Cl118  484   3.619   5.122   2.835 -0.2991 -0.1689 -0.3088
    4MOL   H119  485   3.429   5.270   2.988 -0.1350 -3.0869  0.8307
    4MOL   H120  486   3.392   5.310   2.822 -1.5880  0.6561  1.0648
    4MOL   H121  487   3.438   5.026   2.933 -2.1091  1.7744  2.1227
    4MOL   H122  488   3.408   5.056   2.762 -3.4053  1.4931  1.4788
    5MOL     C1  489   7.548   1.575   8.094 -0.5613 -1.1801 -0.1715
    5MOL     C2  490   7.677   1.585   8.007  0.1825  0.3221 -0.8450
    5MOL    Cl3  491   7.755   1.741   8.061  0.3043  0.5727 -0.2444
    5MOL     H4  492   7.492   1.486   8.067 -2.7159  0.8766 -2.7312
    5MOL     H5  493   7.572   1.577   8.200  0.1864 -1.2308 -0.3320
    5MOL     H6  494   7.730   1.499   8.049 -0.2447  0.6632  0.4127
    5MOL     H7  495   7.474   1.653   8.078  1.3487  0.9278  0.8953
    5MOL     C8  496   7.659   1.593   7.851 -0.6301 -0.1046  0.1491
    5MOL     C9  497   7.585   1.481   7.787 -0.8352 -0.1951 -0.0863
    5MOL   Cl10  498   7.647   1.327   7.837 -0.0217 -0.2555 -0.1781
    5MOL    H11  499   7.747   1.612   7.790 -0.8160 -1.8081 -0.6796
    5MOL    H12  500   7.603   1.681   7.820 -0.9572 -0.4308 -0.1779
    5MOL    H13  501   7.483   1.499   7.821 -0.1267  1.0753  1.4285
    5MOL    C14  502   7.562   1.496   7.629  0.2091 -0.2987  0.7066
    5MOL    C15  503   7.506   1.625   7.572 -0.1066 -0.4108  0.2658
    5MOL   Cl16  504   7.362   1.676   7.662  0.2227 -0.1385 -0.2067
    5MOL    H17  505   7.502   1.414   7.589  1.7890 -0.8409 -0.6144
    5MOL    H18  506   7.662   1.477   7.589 -0.7885 -1.9707 -1.0774
    5MOL    H19  507   7.574   1.708   7.591 -0.1844  0.0487 -1.3402
    5MOL    C20  508   7.470   1.614   7.420  0.0528  0.5214  0.0774
    5MOL    C21  509   7.585   1.582   7.319  0.6350  0.2865 -0.2157
    5MOL   Cl22  510   7.707   1.706   7.311  0.2988  0.1602  0.3915
    5MOL    H23  511   7.421   1.708   7.393  2.6240  2.7015  2.6877
    5MOL    H24  512   7.391   1.540   7.411 -0.6541  1.1308  1.2185
    5MOL    H25  513   7.630   1.490   7.358 -2.1586 -0.6122  0.9838
    5MOL    C26  514   7.530   1.553   7.177 -0.2423  0.2416  1.1456
    5MOL    C27  515   7.443   1.429   7.169 -0.2398  0.1762 -0.2268
    5MOL   Cl28  516   7.550   1.291   7.133  0.1833 -0.3522  0.3450
    5MOL    H29  517   7.616   1.549   7.109  0.6972 -1.0632  2.3781
    5MOL    H30  518   7.469   1.638   7.147  1.1844  0.5350 -1.0613
    5MOL    H31  519   7.394   1.406   7.264  0.2090  2.9461  0.7501
    5MOL    C32  520   7.346   1.434   7.052 -0.2880  0.1318  0.7607
    5MOL    C33  521   7.225   1.527   7.058 -0.3360  0.6297 -0.3673
    5MOL   Cl34  522   7.111   1.457   7.170 -0.3710 -0.0875  0.1492
    5MOL    H35  523   7.319   1.331   7.031  2.5711 -0.8334  1.5420
    5MOL    H36  524   7.403   1.449   6.960  1.2874 -1.2133  1.4932
    5MOL    H37  525   7.259   1.616   7.111  0.9592  0.3538 -0.7121
    5MOL    C38  526   7.153   1.552   6.920 -0.3270 -0.0685  0.6735
    5MOL    C39  527   7.231   1.608   6.796 -0.0896  0.0624 -0.0488
    5MOL   Cl40  528   7.332   1.742   6.839 -0.0444  0.3014 -0.5055
    5MOL    H41  529   7.068   1.618   6.939 -2.9411 -2.7923 -1.2248
    5MOL    H42  530   7.104   1.461   6.886  1.6276 -0.5332 -1.0411
    5MOL    H43  531   7.303   1.543   6.747 -0.0154  1.5709 -1.9990
    5MOL    C44  532   7.147   1.645   6.672 -0.1729  0.4781  0.7903
    5MOL    C45  533   7.026   1.733   6.701  0.4065 -0.1321  0.0662
    5MOL   Cl46  534   6.880   1.636   6.754  0.1558  0.6987  0.1712
    5MOL    H47  535   7.116   1.554   6.621 -0.2316  1.2142 -0.5177
    5MOL    H48  536   7.212   1.703   6.607  0.7501 -1.7320 -0.3111
    5MOL    H49  537   7.053   1.812   6.772  0.6450  1.3417 -1.6372
    5MOL    C50  538   6.972   1.796   6.572 -0.4996  0.0531  0.0743
    5MOL    C51  539   6.886   1.930   6.591 -0.1405  0.0717 -0.4064
    5MOL   Cl52  540   6.983   2.052   6.679 -0.2395 -0.1340  0.2461
    5MOL    H53  541   6.915   1.723   6.515  0.3202  1.4365 -2.6192
    5MOL    H54  542   7.054   1.822   6.505 -1.4301  0.6834 -0.8468
    5MOL    H55  543   6.876   1.977   6.493  1.2610  1.4545  0.0912
    5MOL    C56  544   6.751   1.924   6.653  0.7955 -0.9517 -0.8879
    5MOL    C57  545   6.643   1.837   6.594  0.1864 -0.1768 -0.4483
    5MOL   Cl58  546   6.611   1.902   6.431  0.5604  0.2358 -0.0747
    5MOL    H59  547   6.712   2.026   6.661 -0.2478 -1.4713  1.0265
    5MOL    H60  548   6.779   1.892   6.753  0.9544  1.0778 -0.2500
    5MOL    H61  549   6.674   1.736   6.567  1.2927  0.1900 -0.5729
    5MOL    C62  550   6.516   1.839   6.675 -0.3310 -0.6733  0.0228
    5MOL    C63  551   6.527   1.752   6.797  0.2128 -0.4549  0.0968
    5MOL   Cl64  552   6.555   1.593   6.747  0.1535 -0.0969 -0.2297
    5MOL    H65  553   6.427   1.807   6.621 -1.1075  0.4604  0.6130
    5MOL    H66  554   6.496   1.941   6.709 -2.8882 -1.3872  0.7651
    5MOL    H67  555   6.608   1.779   6.864  1.2234 -1.9699 -0.4985
    5MOL    C68  556   6.402   1.748   6.889 -0.9645  0.5137 -0.0321
    5MOL    C69  557   6.358   1.881   6.954 -0.4305 -0.0901 -0.2584
    5MOL   Cl70  558   6.506   1.934   7.027 -0.1767 -0.1015  0.2714
    5MOL    H71  559   6.419   1.675   6.968 -1.0829 -0.0744 -0.5447
    5MOL    H72  560   6.315   1.716   6.832 -1.3128  0.6566  0.4112
    5MOL    H73  561   6.331   1.956   6.879  0.3243  0.7384  0.2808
    5MOL    C74  562   6.250   1.870   7.062 -0.2135  0.2774  0.7355
    5MOL    C75  563   6.158   1.995   7.079  0.3983 -0.4276 -0.6791
    5MOL   Cl76  564   6.051   1.964   7.220 -0.3657  0.0531 -0.3843
    5MOL    H77  565   6.296   1.839   7.156 -1.0442 -3.8244 -0.0995
    5MOL    H78  566   6.184   1.785   7.043 -0.6924  0.5275  1.2708
    5MOL    H79  567   6.222   2.079   7.106 -0.4017 -0.5433  1.7207
    5MOL    C80  568   6.065   2.030   6.964  0.1593  0.1306 -0.4265
    5MOL    C81  569   5.954   1.933   6.927 -0.2342 -0.3650 -0.6083
    5MOL   Cl82  570   6.026   1.800   6.829  0.1069  0.1011  0.1678
    5MOL    H83  571   6.126   2.053   6.876 -1.1102  2.3572 -0.7791
    5MOL    H84  572   6.027   2.129   6.992 -1.5287 -0.8760  0.8901
    5MOL    H85  573   5.912   1.885   7.015 -0.5415  2.5711  0.9204
    5MOL    C86  574   5.836   1.985   6.850 -0.2372  0.0700  0.2798
    5MOL    C87  575   5.756   2.093   6.924  0.1417 -0.1653  0.1537
    5MOL   Cl88  576   5.707   2.056   7.094  0.4147  0.0961 -0.2872
    5MOL    H89  577   5.767   1.902   6.831  2.4997 -2.1921 -0.0745
    5MOL    H90  578   5.867   2.019   6.751  0.0153  0.5118  0.5126
    5MOL    H91  579   5.817   2.184   6.929  0.3951 -0.3937  1.6433
    5MOL    C92  580   5.623   2.124   6.840  0.6355 -0.6061  0.1318
    5MOL    C93  581   5.575   2.270   6.845 -0.1598  1.0090  0.0518
    5MOL   Cl94  582   5.408   2.271   6.794  0.3879  0.3016 -0.1583
    5MOL    H95  583   5.544   2.060   6.879  0.6535 -2.0466 -2.1001
    5MOL    H96  584   5.623   2.088   6.737 -0.3382 -1.9741  0.5921
    5MOL    H97  585   5.583   2.305   6.948  1.8766  1.3645 -0.2091
    5MOL    C98  586   5.652   2.356   6.745  0.3858  0.4101  0.5347
    5MOL    C99  587   5.635   2.512   6.758  0.7700  0.4019  0.1220
    5MOL  Cl100  588   5.720   2.585   6.619 -0.0024  0.1775  0.0781
    5MOL   H101  589   5.623   2.306   6.652 -0.6235 -0.2619  1.1971
    5MOL   H102  590   5.759   2.339   6.745  0.5045  1.1489  0.6173
    5MOL   H103  591   5.530   2.536   6.741  0.8864  1.9180  1.3892
    5MOL   C104  592   5.686   2.587   6.893 -0.0049  0.6143  0.5691
    5MOL   C105  593   5.657   2.733   6.911 -0.1604  0.1604  0.2201
    5MOL  Cl106  594   5.794   2.820   6.994  0.0718 -0.1322  0.1866
    5MOL   H107  595   5.793   2.563   6.898  0.0925  1.3041  2.0266
    5MOL   H108  596   5.651   2.536   6.983 -0.7021  1.2705  0.6771
    5MOL   H109  597   5.656   2.790   6.818 -1.6998 -0.5257 -0.1966
    5MOL   C110  598   5.523   2.753   6.987  0.1430 -0.5203  0.0392
    5MOL   C111  599   5.391   2.748   6.904  0.0239 -0.4395  0.1916
    5MOL  Cl112  600   5.407   2.865   6.768  0.2662 -0.2529  0.2338
    5MOL   H113  601   5.522   2.855   7.027  3.2611 -0.4886  0.1249
    5MOL   H114  602   5.519   2.708   7.086  1.5720  1.3967  1.0154
    5MOL   H115  603   5.378   2.652   6.853  1.5307  0.4524 -1.9037
    5MOL   C116  604   5.277   2.785   7.004  0.9987  0.2951 -0.4033
    5MOL   C117  605   5.139   2.763   6.936 -0.6543  0.5271 -0.3398
    5MOL  Cl118  606   5.009   2.809   7.053  0.1535  0.1323 -0.1718
    5MOL   H119  607   5.278   2.888   7.040  0.4004  0.4329 -0.7711
    5MOL   H120  608   5.284   2.724   7.094  1.2383 -0.8048 -1.1501
    5MOL   H121  609   5.131   2.839   6.858  0.5063  1.7220  0.6849
    5MOL   H122  610   5.128   2.663   6.894 -0.1322  0.4849 -0.3724
    6MOL     C1  611   3.179   6.868   7.080 -0.0873  0.0260 -0.0473
    6MOL     C2  612   3.073   6.764   7.055  0.2315  0.4461  0.4078
    6MOL    Cl3  613   2.927   6.796   7.143 -0.1385 -0.0133 -0.2594
    6MOL     H4  614   3.214   6.869   7.183  0.7942 -5.4360 -0.1627
    6MOL     H5  615   3.263   6.846   7.014 -0.4220 -0.8792 -0.1814
    6MOL     H6  616   3.048   6.777   6.949 -0.7584 -0.9576  0.4474
    6MOL     H7  617   3.148   6.966   7.045 -0.3211  0.1411  0.4878
    6MOL     C8  618   3.114   6.617   7.077 -0.4280  0.1266 -0.4495
    6MOL     C9  619   3.239   6.575   6.992  0.2627  0.1254  0.1709
    6MOL   Cl10  620   3.200   6.590   6.816 -0.0995  0.2305 -0.0370
    6MOL    H11  621   3.036   6.551   7.042  0.0335  0.0192 -1.2939
    6MOL    H12  622   3.131   6.593   7.182  0.0539  1.9778 -0.0769
    6MOL    H13  623   3.319   6.644   7.020 -0.6056  0.7725  1.1168
    6MOL    C14  624   3.293   6.432   7.012  0.6139 -0.3892 -0.0381
    6MOL    C15  625   3.323   6.399   7.160 -0.3583  0.0837 -0.2370
    6MOL   Cl16  626   3.454   6.500   7.213  0.1092  0.2928 -0.3403
    6MOL    H17  627   3.380   6.413   6.949 -0.2958 -0.4117 -1.3123
    6MOL    H18  628   3.223   6.361   6.969  0.8322 -0.8568  0.3815
    6MOL    H19  629   3.239   6.429   7.223  1.0027  0.2115  1.5696
    6MOL    C20  630   3.367   6.250   7.189  0.2780  0.8472 -0.2207
    6MOL    C21  631   3.268   6.136   7.152  0.0810 -0.1526 -0.8827
    6MOL   Cl22  632   3.111   6.167   7.242 -0.1119  0.1879 -0.0870
    6MOL    H23  633   3.385   6.239   7.296  0.2980 -0.9963 -0.4000
    6MOL    H24  634   3.464   6.228   7.144  1.8584  0.8086  3.0595
    6MOL    H25  635   3.238   6.148   7.048 -1.0220  1.2103 -0.4231
    6MOL    C26  636   3.321   5.997   7.186  0.3917 -0.6380  0.3066
    6MOL    C27  637   3.413   5.946   7.069  0.1049  0.1226  0.3471
    6MOL   Cl28  638   3.339   5.941   6.907  0.2023  0.1402 -0.2093
    6MOL    H29  639   3.231   5.935   7.186 -0.7728  0.9827 -2.1741
    6MOL    H30  640   3.386   6.000   7.274  2.0705 -0.7316 -0.8993
    6MOL    H31  641   3.503   6.007   7.068 -0.8767  1.6417  1.4304
    6MOL    C32  642   3.465   5.800   7.089 -0.3892  0.1223 -0.4407
    6MOL    C33  643   3.600   5.774   7.014 -0.1333 -0.9238  0.3058
    6MOL   Cl34  644   3.638   5.597   7.026  0.1366 -0.2264 -0.0288
    6MOL    H35  645   3.391   5.723   7.066  0.4983 -1.0072  0.3672
    6MOL    H36  646   3.492   5.788   7.194 -0.2417  0.5176 -0.4362
    6MOL    H37  647   3.594   5.795   6.907 -0.7419  0.0904  0.5356
    6MOL    C38  648   3.720   5.840   7.082  0.1360  0.5788 -0.5850
    6MOL    C39  649   3.864   5.795   7.029 -0.6494 -0.9061 -0.8422
    6MOL   Cl40  650   3.991   5.861   7.143  0.0326  0.0468  0.0903
    6MOL    H41  651   3.716   5.817   7.189  1.8321  0.6577 -0.4925
    6MOL    H42  652   3.719   5.948   7.070  1.0704  0.6574 -0.0151
    6MOL    H43  653   3.892   5.691   7.046  1.5773  0.0672  1.8291
    6MOL    C44  654   3.906   5.842   6.894 -0.0778  0.7842  0.3153
    6MOL    C45  655   3.998   5.745   6.810 -0.2826  0.3628 -0.0710
    6MOL   Cl46  656   3.920   5.586   6.772  0.2004 -0.0267  0.1038
    6MOL    H47  657   3.950   5.942   6.897 -0.5014  1.0011 -0.6244
    6MOL    H48  658   3.812   5.845   6.839 -0.2270  1.0505  0.5790
    6MOL    H49  659   3.996   5.792   6.712 -1.9699  2.1674  0.8080
    6MOL    C50  660   4.143   5.729   6.853 -0.4923  0.2938 -0.1640
    6MOL    C51  661   4.220   5.856   6.874 -0.8657  0.0031 -0.5033
    6MOL   Cl52  662   4.198   5.987   6.744  0.1305  0.2036  0.2569
    6MOL    H53  663   4.198   5.660   6.789 -0.9222  1.2092 -1.5590
    6MOL    H54  664   4.138   5.685   6.952  0.2958  1.1207  0.2495
    6MOL    H55  665   4.184   5.911   6.961 -0.1656 -0.6945  0.2462
    6MOL    C56  666   4.370   5.844   6.887 -0.2258 -0.3784 -0.4914
    6MOL    C57  667   4.426   5.723   6.972 -0.2889 -0.0830 -0.5470
    6MOL   Cl58  668   4.371   5.752   7.141  0.2814 -0.4526 -0.0868
    6MOL    H59  669   4.415   5.936   6.924 -2.6715 -0.1139  1.9958
    6MOL    H60  670   4.399   5.830   6.783  2.9213 -0.7969  0.3976
    6MOL    H61  671   4.387   5.629   6.933  1.8967 -1.0690 -0.4497
    6MOL    C62  672   4.576   5.696   6.973 -0.2787 -0.5284  0.5287
    6MOL    C63  673   4.643   5.694   6.833  0.2086 -0.4438  0.9537
    6MOL   Cl64  674   4.577   5.557   6.741  0.3527 -0.1382  0.2662
    6MOL    H65  675   4.599   5.599   7.019  1.6344 -0.0539  0.6363
    6MOL    H66  676   4.631   5.766   7.036  0.4817  0.5316 -1.2679
    6MOL    H67  677   4.615   5.783   6.777 -2.6379  0.1753  3.2173
    6MOL    C68  678   4.796   5.673   6.853 -0.3252  0.4891  0.1149
    6MOL    C69  679   4.876   5.646   6.721 -0.0783 -0.0210  0.0989
    6MOL   Cl70  680   5.022   5.542   6.752 -0.2027  0.4348  0.0349
    6MOL    H71  681   4.811   5.603   6.935 -2.2847 -0.3103 -0.1651
    6MOL    H72  682   4.840   5.762   6.898 -0.7013 -1.2277  4.1781
    6MOL    H73  683   4.825   5.573   6.657  0.1864  0.1272 -0.2803
    6MOL    C74  684   4.919   5.773   6.648 -0.0855  0.9847 -0.5567
    6MOL    C75  685   4.962   5.753   6.502  0.2464 -0.0850 -0.8088
    6MOL   Cl76  686   5.108   5.854   6.476 -0.1905 -0.2492  0.1054
    6MOL    H77  687   4.997   5.818   6.709 -0.2960 -0.1855  0.5870
    6MOL    H78  688   4.837   5.845   6.653  0.6213  1.5963  2.9051
    6MOL    H79  689   4.980   5.647   6.483 -0.7601 -0.4438  0.1765
    6MOL    C80  690   4.857   5.793   6.393  0.2211  0.1048 -0.0094
    6MOL    C81  691   4.717   5.732   6.410  0.3959 -0.4615 -0.0645
    6MOL   Cl82  692   4.722   5.554   6.398 -0.4616  0.0457  0.2293
    6MOL    H83  693   4.896   5.771   6.294  1.8040  0.9031  0.4083
    6MOL    H84  694   4.854   5.902   6.399  0.2219  0.1318 -0.4734
    6MOL    H85  695   4.674   5.763   6.505 -0.5655  0.9110 -0.9283
    6MOL    C86  696   4.637   5.785   6.287  0.1041  0.2919 -0.5142
    6MOL    C87  697   4.495   5.735   6.266  0.1335 -0.4610 -0.1190
    6MOL   Cl88  698   4.430   5.851   6.144  0.0851  0.1095 -0.2084
    6MOL    H89  699   4.687   5.778   6.190  0.3110 -0.4981 -0.3522
    6MOL    H90  700   4.631   5.892   6.304 -0.9874 -0.2426  2.7482
    6MOL    H91  701   4.497   5.636   6.220 -1.0822 -1.3347  1.6851
    6MOL    C92  702   4.412   5.725   6.390  0.3834  0.3039  0.3951
    6MOL    C93  703   4.282   5.650   6.363  0.5385 -0.0113  0.0986
    6MOL   Cl94  704   4.189   5.668   6.508  0.4172  0.2259 -0.6828
    6MOL    H95  705   4.391   5.826   6.426  0.4555  0.1091  0.9989
    6MOL    H96  706   4.473   5.675   6.465  1.9353 -0.2060 -1.2003
    6MOL    H97  707   4.224   5.702   6.286  2.1061  0.2163 -0.9493
    6MOL    C98  708   4.285   5.504   6.317 -0.2610 -0.7799  0.0178
    6MOL    C99  709   4.195   5.448   6.206 -0.1656  0.0466 -0.4604
    6MOL  Cl100  710   4.251   5.503   6.051  0.3737 -0.4070  0.9332
    6MOL   H101  711   4.263   5.451   6.410  1.7324 -1.3667  0.1692
    6MOL   H102  712   4.385   5.480   6.280 -0.5773 -1.2097 -0.5724
    6MOL   H103  713   4.196   5.339   6.206  2.0294  0.0274  0.4571
    6MOL   C104  714   4.052   5.489   6.236 -0.7465 -0.4295  0.1094
    6MOL   C105  715   3.995   5.419   6.352  0.3450 -0.1537  0.3524
    6MOL  Cl106  716   3.962   5.245   6.321  0.2457  0.2154  0.1697
    6MOL   H107  717   4.002   5.467   6.141 -1.0694  1.6791 -0.2251
    6MOL   H108  718   4.042   5.596   6.254 -1.6478 -0.7104  1.3376
    6MOL   H109  719   4.064   5.426   6.437  2.6275  0.0900 -1.4691
    6MOL   C110  720   3.865   5.480   6.406 -0.3653 -0.3236  0.6569
    6MOL   C111  721   3.744   5.460   6.308 -0.1544  0.0164  0.0895
    6MOL  Cl112  722   3.746   5.602   6.205  0.0579 -0.0599 -0.3316
    6MOL   H113  723   3.884   5.583   6.438  0.0583  0.9559 -3.3841
    6MOL   H114  724   3.831   5.439   6.501  2.5733 -0.9643  1.4708
    6MOL   H115  725   3.750   5.373   6.243 -1.6691 -2.1071  2.7166
    6MOL   C116  726   3.606   5.461   6.384  0.1949  0.6263  0.0137
    6MOL   C117  727   3.487   5.472   6.287 -0.3973 -0.3215 -0.3665
    6MOL  Cl118  728   3.334   5.446   6.371  0.4616  0.2421 -0.1717
    6MOL   H119  729   3.620   5.541   6.455  2.2048 -1.0065  1.5200
    6MOL   H120  730   3.590   5.379   6.454 -0.6430  2.3614  1.8988
    6MOL   H121  731   3.478   5.565   6.231 -1.4929 -0.0578  0.2428
    6MOL   H122  732   3.504   5.386   6.222  0.0724 -0.3242 -0.2423
    7MOL     C1  733   2.378   6.436   5.881  0.0863 -0.1788 -0.2269
    7MOL     C2  734   2.342   6.290   5.838 -0.1154  0.4473 -0.2760
    7MOL    Cl3  735   2.238   6.214   5.966  0.0153 -0.3214  0.2967
    7MOL     H4  736   2.436   6.486   5.804 -1.3792  0.1303 -1.1618
    7MOL     H5  737   2.281   6.485   5.892  0.6871  1.2130 -0.9881
    7MOL     H6  738   2.289   6.291   5.743 -0.1406  0.3145 -0.2636
    7MOL     H7  739   2.430   6.437   5.977  1.4513  1.4712 -0.9556
    7MOL     C8  740   2.469   6.210   5.822 -0.4299  0.1361  0.1818
    7MOL     C9  741   2.457   6.073   5.756 -0.6628 -0.5833  0.0897
    7MOL   Cl10  742   2.618   6.009   5.740  0.1038 -0.2832  0.1453
    7MOL    H11  743   2.518   6.205   5.919  2.3936  1.4216 -1.1356
    7MOL    H12  744   2.549   6.262   5.770  0.4847 -1.8006 -0.3750
    7MOL    H13  745   2.389   6.005   5.807 -3.7377  1.5286 -0.9712
    7MOL    C14  746   2.408   6.085   5.610 -0.8015  0.8778  1.1995
    7MOL    C15  747   2.426   5.964   5.512 -0.5304  0.1520 -0.4766
    7MOL   Cl16  748   2.348   6.016   5.362  0.3301 -0.4509  0.4075
    7MOL    H17  749   2.438   6.176   5.559  3.5319  0.1562  2.2623
    7MOL    H18  750   2.302   6.097   5.633 -1.2030 -2.2152  1.2212
    7MOL    H19  751   2.529   5.946   5.483 -0.8216 -0.2468 -1.2779
    7MOL    C20  752   2.358   5.832   5.561  0.2649 -0.7356 -0.4231
    7MOL    C21  753   2.435   5.707   5.525  0.5413 -0.7356  0.3326
    7MOL   Cl22  754   2.598   5.714   5.581 -0.3009  0.6977 -0.0299
    7MOL    H23  755   2.252   5.832   5.537  0.3792 -1.8683 -0.9613
    7MOL    H24  756   2.350   5.835   5.670 -0.4277  2.3828 -0.5194
    7MOL    H25  757   2.387   5.626   5.581  0.0924 -0.7045 -0.0033
    7MOL    C26  758   2.426   5.667   5.376  0.7336 -0.0181  0.6047
    7MOL    C27  759   2.283   5.629   5.336 -0.1287 -0.2540  0.4469
    7MOL   Cl28  760   2.223   5.499   5.437 -0.1291  0.2345  0.1119
    7MOL    H29  761   2.481   5.575   5.357 -0.4442 -1.1007  2.3017
    7MOL    H30  762   2.476   5.745   5.319  0.8506 -0.5034  0.0396
    7MOL    H31  763   2.215   5.712   5.352 -0.6028 -0.9681  2.2797
    7MOL    C32  764   2.262   5.596   5.184 -0.4975 -0.4706 -0.5184
    7MOL    C33  765   2.258   5.714   5.085 -0.3671  0.2194  0.5022
    7MOL   Cl34  766   2.104   5.806   5.094 -0.0798  0.3573 -0.1451
    7MOL    H35  767   2.162   5.554   5.194  0.0491 -1.2306  2.2096
    7MOL    H36  768   2.319   5.511   5.149  1.1372  0.0222  0.8983
    7MOL    H37  769   2.340   5.781   5.110 -1.2926  0.8796  1.8007
    7MOL    C38  770   2.278   5.685   4.937  0.6572  0.3399  0.5136
    7MOL    C39  771   2.312   5.806   4.848  0.3592  0.1158  1.1864
    7MOL   Cl40  772   2.295   5.763   4.682  0.5058 -0.1868  0.2671
    7MOL    H41  773   2.190   5.630   4.904  1.4055  1.4329 -3.7031
    7MOL    H42  774   2.345   5.601   4.919 -3.1478 -2.7357  0.1983
    7MOL    H43  775   2.238   5.884   4.866 -1.2361 -0.5179 -2.3294
    7MOL    C44  776   2.461   5.860   4.876 -0.1635 -0.6306 -0.3988
    7MOL    C45  777   2.571   5.751   4.855  0.6182  0.1966 -0.2433
    7MOL   Cl46  778   2.578   5.636   4.994 -0.1581 -0.2901 -0.0450
    7MOL    H47  779   2.481   5.899   4.975 -3.1976  1.3485 -0.4966
    7MOL    H48  780   2.483   5.937   4.802 -2.1504 -0.2273 -0.6077
    7MOL    H49  781   2.539   5.689   4.771  0.0385 -0.0230  0.1355
    7MOL    C50  782   2.714   5.806   4.824 -0.5604 -0.1671 -0.0402
    7MOL    C51  783   2.742   5.899   4.702  0.0394  0.0393 -0.4327
    7MOL   Cl52  784   2.703   5.808   4.553 -0.4149 -0.2836  0.2187
    7MOL    H53  785   2.774   5.717   4.801  0.2422 -0.1578  1.9712
    7MOL    H54  786   2.773   5.835   4.911  1.8532 -0.5060 -1.5188
    7MOL    H55  787   2.675   5.984   4.697  0.6522  0.4940 -1.0468
    7MOL    C56  788   2.891   5.954   4.696  0.1513  0.1134  0.2379
    7MOL    C57  789   2.903   6.106   4.663 -0.1867  0.1786  0.3880
    7MOL   Cl58  790   2.855   6.195   4.808  0.4860  0.1289 -0.0765
    7MOL    H59  791   2.948   5.900   4.621  2.7123  1.1425  1.3790
    7MOL    H60  792   2.946   5.934   4.787  2.1633 -0.0656 -0.9816
    7MOL    H61  793   3.008   6.132   4.647 -0.0133 -0.7863 -0.0357
    7MOL    C62  794   2.820   6.169   4.546  0.3811  0.3206 -0.5170
    7MOL    C63  795   2.857   6.100   4.419 -0.2686  0.9890  0.0757
    7MOL   Cl64  796   3.000   6.194   4.333  0.1319  0.2451 -0.3106
    7MOL    H65  797   2.830   6.277   4.534  1.1115  0.0760 -2.1879
    7MOL    H66  798   2.714   6.163   4.572  0.5227  1.3641  0.3037
    7MOL    H67  799   2.895   6.000   4.437  1.0569  1.9694  3.0967
    7MOL    C68  800   2.733   6.092   4.331  0.2922  0.1294  0.0044
    7MOL    C69  801   2.745   6.014   4.201  1.4066 -0.4196  0.6341
    7MOL   Cl70  802   2.609   6.048   4.088 -0.1588  0.0119  0.0630
    7MOL    H71  803   2.687   6.190   4.315  1.2826  0.4509 -0.9250
    7MOL    H72  804   2.663   6.039   4.396  0.3026 -0.5160 -0.5123
    7MOL    H73  805   2.836   6.053   4.156 -0.1360 -1.2833 -3.3888
    7MOL    C74  806   2.751   5.858   4.216  0.0771  0.3573  0.3336
    7MOL    C75  807   2.825   5.779   4.102 -0.4732  0.6342  0.1606
    7MOL   Cl76  808   2.790   5.604   4.095 -0.0950 -0.1372  0.0911
    7MOL    H77  809   2.649   5.825   4.233  0.0479 -0.1452 -0.7316
    7MOL    H78  810   2.801   5.827   4.307 -0.8964  0.3669  0.8699
    7MOL    H79  811   2.778   5.823   4.014  0.9443 -0.9509 -1.4447
    7MOL    C80  812   2.977   5.794   4.094 -0.0532 -0.1763  0.4251
    7MOL    C81  813   3.060   5.718   4.206 -0.1353 -0.7195  0.0057
    7MOL   Cl82  814   3.107   5.836   4.332  0.5340  0.1831 -0.5798
    7MOL    H83  815   3.003   5.899   4.079  0.8014 -0.4757 -0.2083
    7MOL    H84  816   3.001   5.754   3.995 -0.8010  1.7878 -0.5839
    7MOL    H85  817   2.995   5.647   4.256  0.1409 -0.6305  0.4959
    7MOL    C86  818   3.193   5.660   4.150  0.1650 -0.5299 -0.8028
    7MOL    C87  819   3.192   5.532   4.066  0.1690 -0.0220 -0.4492
    7MOL   Cl88  820   3.109   5.396   4.152  0.1019  0.1369 -0.1037
    7MOL    H89  821   3.256   5.644   4.238 -1.3548  0.6404  0.5315
    7MOL    H90  822   3.253   5.732   4.094  1.5291 -1.6443 -0.7823
    7MOL    H91  823   3.135   5.546   3.974  0.9434 -0.0017 -0.9237
    7MOL    C92  824   3.326   5.479   4.021 -0.2266  0.4100  0.4210
    7MOL    C93  825   3.417   5.575   3.946 -0.3806  0.7302 -0.1091
    7MOL   Cl94  826   3.348   5.603   3.785  0.2062  0.0181 -0.0422
    7MOL    H95  827   3.319   5.382   3.970  1.8047  0.0997  0.6927
    7MOL    H96  828   3.379   5.450   4.113  0.3350 -2.2303 -0.6663
    7MOL    H97  829   3.436   5.673   3.988 -1.3245  0.0116  2.0609
    7MOL    C98  830   3.546   5.503   3.915 -0.1995  0.0076 -0.0009
    7MOL    C99  831   3.652   5.507   4.029  0.1931  0.1570  0.1977
    7MOL  Cl100  832   3.696   5.673   4.057 -0.0425 -0.1896  0.2783
    7MOL   H101  833   3.595   5.533   3.822  0.6935 -0.1901  0.4053
    7MOL   H102  834   3.531   5.399   3.886  2.0117 -0.0452 -1.0413
    7MOL   H103  835   3.617   5.466   4.124  0.5543 -0.9870 -0.1548
    7MOL   C104  836   3.774   5.435   3.976 -0.5390 -0.4377  0.5025
    7MOL   C105  837   3.885   5.400   4.082 -0.0841  0.4064 -0.2912
    7MOL  Cl106  838   3.806   5.317   4.221  0.4743  0.7426  0.3430
    7MOL   H107  839   3.815   5.494   3.893  4.2319 -4.0481  0.0853
    7MOL   H108  840   3.744   5.338   3.938  0.4801 -0.4707 -0.2413
    7MOL   H109  841   3.942   5.320   4.034 -0.3248  0.4884 -0.7139
    7MOL   C110  842   3.974   5.510   4.135  0.3903  0.6195 -0.6055
    7MOL   C111  843   4.048   5.606   4.043  0.3534  0.9290  0.4975
    7MOL  Cl112  844   4.145   5.512   3.934 -0.3596 -0.1437 -0.1212
    7MOL   H113  845   4.042   5.454   4.198 -0.9330 -1.1532 -0.7272
    7MOL   H114  846   3.921   5.567   4.211  0.8972 -0.7308  0.7761
    7MOL   H115  847   3.978   5.655   3.975  0.4612 -0.7232 -0.8343
    7MOL   C116  848   4.134   5.713   4.113 -0.3159  0.4939 -0.4698
    7MOL   C117  849   4.060   5.846   4.150  0.4454 -0.1561 -0.3666
    7MOL  Cl118  850   3.939   5.906   4.038  0.1406  0.2917 -0.0234
    7MOL   H119  851   4.209   5.751   4.044  2.3770  1.6545  2.9693
    7MOL   H120  852   4.193   5.663   4.190 -1.3432  0.6317  0.4242
    7MOL   H121  853   4.009   5.810   4.240 -1.3208  0.5242 -1.0715
    7MOL   H122  854   4.137   5.917   4.180  2.5065 -2.6541  0.5047
    8MOL     C1  855   7.018   1.033   2.278  0.0927  0.1257 -0.0593
    8MOL     C2  856   6.877   1.083   2.263  0.1874 -0.0118 -0.6459
    8MOL    Cl3  857   6.857   1.234   2.355  0.2423  0.1722  0.3233
    8MOL     H4  858   7.082   1.103   2.224 -2.7740  1.6630 -1.5218
    8MOL     H5  859   7.048   1.029   2.383 -0.8021 -2.0192  0.1378
    8MOL     H6  860   6.856   1.107   2.158 -0.5576 -1.0575 -0.7366
    8MOL     H7  861   7.027   0.933   2.235 -1.6890 -0.3124  0.5769
    8MOL     C8  862   6.778   0.982   2.326  0.1384  0.4988  0.1694
    8MOL     C9  863   6.630   1.024   2.328 -0.3026 -0.0942  0.6958
    8MOL   Cl10  864   6.539   0.928   2.447  0.0195  0.0729 -0.3798
    8MOL    H11  865   6.803   0.974   2.432  2.3867 -0.1634 -0.4008
    8MOL    H12  866   6.792   0.880   2.293 -2.1229  0.4631 -0.8116
    8MOL    H13  867   6.619   1.128   2.359  0.2202  0.1825 -0.0327
    8MOL    C14  868   6.577   1.000   2.190 -1.0331 -0.3062  0.0790
    8MOL    C15  869   6.438   1.073   2.164  0.2226  0.5398 -0.3044
    8MOL   Cl16  870   6.373   0.988   2.020  0.1848 -0.1754 -0.0676
    8MOL    H17  871   6.573   0.892   2.175 -1.6746 -0.2290 -0.3423
    8MOL    H18  872   6.641   1.045   2.114 -0.8820  1.8388  1.4323
    8MOL    H19  873   6.377   1.044   2.250  0.5842  1.9392  0.4263
    8MOL    C20  874   6.440   1.220   2.149  0.3278  0.1806 -0.3802
    8MOL    C21  875   6.320   1.300   2.212 -0.8989  0.7695 -0.8882
    8MOL   Cl22  876   6.328   1.288   2.393  0.3705 -0.2128 -0.5257
    8MOL    H23  877   6.440   1.250   2.044  1.2999  0.3363 -0.3451
    8MOL    H24  878   6.529   1.266   2.193 -0.0457  3.3543 -2.7647
    8MOL    H25  879   6.335   1.404   2.181  2.8539  0.2149 -1.1178
    8MOL    C26  880   6.180   1.246   2.163  0.3585 -0.3869 -0.2676
    8MOL    C27  881   6.138   1.296   2.024 -0.5718 -0.0250 -0.0202
    8MOL   Cl28  882   6.132   1.473   2.015 -0.0952 -0.2979  0.2359
    8MOL    H29  883   6.111   1.288   2.236 -1.0497 -1.5352 -0.9097
    8MOL    H30  884   6.167   1.139   2.182 -0.3079 -0.4172 -0.8812
    8MOL    H31  885   6.213   1.250   1.959  0.8657  1.3157  0.6741
    8MOL    C32  886   6.000   1.246   1.978  0.2531  0.1491 -0.3098
    8MOL    C33  887   5.933   1.313   1.852  0.9395 -0.2377 -0.0761
    8MOL   Cl34  888   5.789   1.215   1.828 -0.1448  0.1288  0.2852
    8MOL    H35  889   5.936   1.254   2.066 -0.0863 -0.6914 -0.4768
    8MOL    H36  890   6.005   1.140   1.952 -2.2922 -0.2292  0.5475
    8MOL    H37  891   5.893   1.412   1.877  0.4891 -0.3185 -0.4753
    8MOL    C38  892   6.012   1.337   1.725  0.2108 -0.0507  0.2687
    8MOL    C39  893   5.945   1.321   1.582 -0.0331  0.2566 -0.4945
    8MOL   Cl40  894   6.075   1.336   1.462 -0.1209  0.1402  0.1305
    8MOL    H41  895   6.099   1.271   1.725  1.0711  1.0636 -0.7783
    8MOL    H42  896   6.061   1.434   1.720  0.3737 -0.1438  0.0184
    8MOL    H43  897   5.897   1.224   1.572  0.2043  0.0331  0.4698
    8MOL    C44  898   5.845   1.436   1.558 -0.0196  0.3097  0.3521
    8MOL    C45  899   5.740   1.414   1.448 -0.0538  0.1378 -0.4583
    8MOL   Cl46  900   5.642   1.265   1.479  0.1339  0.2095 -0.0789
    8MOL    H47  901   5.888   1.535   1.545 -0.7519  0.6267  0.3491
    8MOL    H48  902   5.796   1.439   1.655 -0.0086 -2.9531  0.5034
    8MOL    H49  903   5.667   1.495   1.453  0.2623  0.4431 -0.7252
    8MOL    C50  904   5.802   1.399   1.308  0.1184  0.0739  0.6797
    8MOL    C51  905   5.856   1.524   1.246 -0.3943  0.0295  0.5628
    8MOL   Cl52  906   5.716   1.628   1.237  0.2959 -0.0599  0.5264
    8MOL    H53  907   5.728   1.373   1.232  1.3985  0.3381 -0.6862
    8MOL    H54  908   5.876   1.318   1.311  0.4742  0.3538 -0.2017
    8MOL    H55  909   5.925   1.582   1.307 -0.9883  0.9498  0.3741
    8MOL    C56  910   5.917   1.499   1.105  0.3738 -0.5700 -0.2156
    8MOL    C57  911   6.058   1.447   1.099  0.3095  0.3353  0.7845
    8MOL   Cl58  912   6.178   1.551   1.178  0.0431  0.3726  0.6667
    8MOL    H59  913   5.916   1.584   1.038  2.5158 -1.6274 -1.6443
    8MOL    H60  914   5.859   1.421   1.054  0.8073  0.1808 -1.8905
    8MOL    H61  915   6.068   1.352   1.151  2.8459 -0.5204 -1.1868
    8MOL    C62  916   6.099   1.423   0.958  0.0662 -0.8096  0.2118
    8MOL    C63  917   6.238   1.357   0.940 -0.1943 -0.1278 -0.5000
    8MOL   Cl64  918   6.262   1.331   0.764 -0.2397  0.2420  0.0458
    8MOL    H65  919   6.093   1.520   0.909 -0.0865  0.4274  2.6221
    8MOL    H66  920   6.027   1.358   0.909 -1.2078  1.1899 -0.5741
    8MOL    H67  921   6.321   1.424   0.964  1.0512 -0.5431 -3.3740
    8MOL    C68  922   6.266   1.222   1.014 -0.2706 -0.0687  0.2521
    8MOL    C69  923   6.413   1.179   0.992 -0.5624  0.0991 -0.7127
    8MOL   Cl70  924   6.423   1.004   1.014  0.2281  0.0545  0.0994
    8MOL    H71  925   6.205   1.138   0.980  0.6371  0.0760 -1.8010
    8MOL    H72  926   6.246   1.226   1.121 -1.0052 -0.8097  0.1481
    8MOL    H73  927   6.447   1.189   0.889 -1.1792 -0.6568 -0.9896
    8MOL    C74  928   6.519   1.246   1.080  0.4210  0.3218  0.0327
    8MOL    C75  929   6.664   1.262   1.026 -0.5142 -0.3457 -0.6279
    8MOL   Cl76  930   6.668   1.367   0.875  0.5216  0.5548  0.3322
    8MOL    H77  931   6.522   1.193   1.175 -1.0262 -1.1098 -0.6918
    8MOL    H78  932   6.475   1.345   1.088 -2.7665 -0.8970 -1.6496
    8MOL    H79  933   6.724   1.298   1.109  1.5920 -1.3815 -1.6490
    8MOL    C80  934   6.738   1.124   0.986 -0.4501  0.3385  0.1918
    8MOL    C81  935   6.757   1.035   1.108 -0.1887 -0.4636  0.8842
    8MOL   Cl82  936   6.892   1.102   1.204  0.3431  0.3308  0.2934
    8MOL    H83  937   6.836   1.151   0.945 -0.0411  0.1094  1.0224
    8MOL    H84  938   6.692   1.079   0.898 -2.2124  1.8865  0.2854
    8MOL    H85  939   6.670   1.037   1.173 -0.2771  1.7247  0.7556
    8MOL    C86  940   6.782   0.888   1.073  0.4762  0.4235 -0.3179
    8MOL    C87  941   6.817   0.783   1.183 -0.0750 -0.2247 -0.3684
    8MOL   Cl88  942   6.852   0.621   1.109  0.4109  0.1609  0.3319
    8MOL    H89  943   6.872   0.896   1.012  0.1519  2.2582 -0.5603
    8MOL    H90  944   6.702   0.857   1.005 -1.5471  1.8421  1.3473
    8MOL    H91  945   6.912   0.819   1.223  0.1271 -1.0265 -0.1217
    8MOL    C92  946   6.717   0.763   1.295 -0.2859  0.4501  0.7703
    8MOL    C93  947   6.764   0.678   1.412 -0.7197  0.2318  0.3125
    8MOL   Cl94  948   6.644   0.680   1.537  0.2130  0.1945  0.0958
    8MOL    H95  949   6.623   0.726   1.254  0.4814  0.2009 -0.8185
    8MOL    H96  950   6.687   0.860   1.335 -1.0165  0.8200 -0.6348
    8MOL    H97  951   6.776   0.577   1.373  1.3452  0.7636 -0.4457
    8MOL    C98  952   6.898   0.712   1.477 -0.0421  0.5772  0.4195
    8MOL    C99  953   6.904   0.838   1.560  0.0536 -0.5511  0.1164
    8MOL  Cl100  954   7.041   0.938   1.519  0.0291 -0.0525  0.3362
    8MOL   H101  955   6.980   0.726   1.407  1.0249 -0.3528  1.4677
    8MOL   H102  956   6.932   0.624   1.530  1.1431 -0.3474 -1.8431
    8MOL   H103  957   6.822   0.897   1.517  0.0785 -0.5340  0.0932
    8MOL   C104  958   6.887   0.798   1.711 -0.0022 -0.1095  1.0602
    8MOL   C105  959   6.879   0.926   1.804 -0.4493  0.3080 -0.8160
    8MOL  Cl106  960   6.875   0.861   1.976 -0.2910  0.4828 -0.1085
    8MOL   H107  961   6.958   0.722   1.743 -0.7687 -1.1162  0.3708
    8MOL   H108  962   6.798   0.739   1.732 -1.5538  1.1994 -1.5268
    8MOL   H109  963   6.968   0.988   1.793  0.1402  0.3205  3.4788
    8MOL   C110  964   6.750   1.023   1.775 -0.2885 -0.3447  0.9459
    8MOL   C111  965   6.784   1.138   1.683 -0.2844 -0.1019 -0.0151
    8MOL  Cl112  966   6.888   1.258   1.759 -0.4867 -0.4399 -0.1464
    8MOL   H113  967   6.717   1.061   1.872 -1.2932  1.2805 -0.0067
    8MOL   H114  968   6.671   0.958   1.738 -0.7073 -0.6972  2.3950
    8MOL   H115  969   6.841   1.105   1.597 -0.5593 -1.2004  0.2210
    8MOL   C116  970   6.665   1.209   1.621  0.4408 -0.0619  0.1634
    8MOL   C117  971   6.693   1.329   1.522  0.3371 -0.2719 -0.1327
    8MOL  Cl118  972   6.549   1.345   1.411  0.2646  0.1698  0.0965
    8MOL   H119  973   6.591   1.247   1.692  0.1550  1.1896 -0.7787
    8MOL   H120  974   6.617   1.130   1.563  0.8142  0.2184 -0.5322
    8MOL   H121  975   6.712   1.420   1.579 -2.2839  0.8095 -0.8829
    8MOL   H122  976   6.783   1.305   1.466  2.2822  1.6085  2.0351
    9MOL     C1  977   0.404   6.835   6.673  0.4528 -0.4969  0.1247
    9MOL     C2  978   0.507   6.873   6.567  0.1812  0.4180 -0.4085
    9MOL    Cl3  979   0.430   6.929   6.419  0.4587  0.1869  0.0128
    9MOL     H4  980   0.348   6.745   6.648  0.3951 -0.3754 -0.1941
    9MOL     H5  981   0.447   6.821   6.772  0.7248  1.2402  0.2658
    9MOL     H6  982   0.555   6.966   6.599  1.9455 -0.5318 -0.2659
    9MOL     H7  983   0.329   6.913   6.687  1.7322  0.6605  0.6369
    9MOL     C8  984   0.602   6.763   6.539  0.0597 -0.5031 -0.1941
    9MOL     C9  985   0.721   6.810   6.448 -0.1329  0.2061  0.1564
    9MOL   Cl10  986   0.833   6.672   6.443  0.1925  0.1966 -0.0613
    9MOL    H11  987   0.542   6.685   6.492  0.0156 -0.6075  0.0365
    9MOL    H12  988   0.644   6.728   6.634 -1.2939 -0.3433  0.4706
    9MOL    H13  989   0.683   6.829   6.348 -2.3682  0.4986  1.0142
    9MOL    C14  990   0.800   6.926   6.506  0.4400 -1.0186  0.0460
    9MOL    C15  991   0.910   6.975   6.408  0.1519 -0.4061 -0.2443
    9MOL   Cl16  992   1.019   7.084   6.508 -0.2183 -0.0462 -0.2189
    9MOL    H17  993   0.846   6.901   6.602 -1.5599  2.0271  1.9009
    9MOL    H18  994   0.743   7.014   6.536  1.3483  0.3034 -1.9804
    9MOL    H19  995   0.970   6.893   6.368 -2.3088 -1.9639 -0.8861
    9MOL    C20  996   0.852   7.059   6.295 -0.7857  0.0830  0.4515
    9MOL    C21  997   0.908   7.037   6.151 -0.1710  0.4683  0.1082
    9MOL   Cl22  998   1.074   7.095   6.151  0.0694  0.2169 -0.2013
    9MOL    H23  999   0.850   7.161   6.333 -1.3752  0.4964 -0.6927
    9MOL    H24 1000   0.746   7.034   6.287 -0.6026 -0.8392  0.7872
    9MOL    H25 1001   0.900   6.930   6.133  0.3434  0.3817  0.3813
    9MOL    C26 1002   0.819   7.109   6.045  0.2545 -0.2292  0.2818
    9MOL    C27 1003   0.809   7.044   5.912  0.9347 -0.5725 -0.1256
    9MOL   Cl28 1004   0.974   7.037   5.836 -0.4897 -0.3561  0.1955
    9MOL    H29 1005   0.851   7.212   6.033 -0.5810  0.3245  2.5800
    9MOL    H30 1006   0.720   7.131   6.084  1.8358  1.1084  3.8396
    9MOL    H31 1007   0.780   6.940   5.929 -0.4332 -0.0220  0.9380
    9MOL    C32 1008   0.705   7.094   5.810  0.0212 -0.2190 -0.5446
    9MOL    C33 1009   0.645   6.986   5.720  0.4460 -0.9546 -0.9150
    9MOL   Cl34 1010   0.582   7.066   5.576  0.2700  0.1951 -0.0170
    9MOL    H35 1011   0.749   7.170   5.744 -1.2009  0.1316 -0.9659
    9MOL    H36 1012   0.628   7.137   5.874 -0.1336 -1.7861  0.3439
    9MOL    H37 1013   0.721   6.914   5.689 -0.7874 -2.8837  0.3828
    9MOL    C38 1014   0.527   6.905   5.787  0.2661  0.2157  0.7746
    9MOL    C39 1015   0.489   6.781   5.710  0.7006  0.0679  0.3360
    9MOL   Cl40 1016   0.310   6.748   5.720  0.3686  0.1795 -0.2950
    9MOL    H41 1017   0.438   6.968   5.778 -0.4518 -0.7128  1.4159
    9MOL    H42 1018   0.540   6.887   5.893 -1.7794 -0.0541  0.9961
    9MOL    H43 1019   0.519   6.796   5.607 -1.6796 -0.8938 -0.5248
    9MOL    C44 1020   0.569   6.663   5.767  0.7527  0.9085 -0.3385
    9MOL    C45 1021   0.530   6.527   5.709 -0.0911 -0.0223  0.0495
    9MOL   Cl46 1022   0.606   6.409   5.822 -0.0044 -0.8527  0.1427
    9MOL    H47 1023   0.544   6.656   5.873 -1.9328 -0.6507 -1.0308
    9MOL    H48 1024   0.676   6.682   5.770  0.9311 -0.2521  4.5050
    9MOL    H49 1025   0.424   6.506   5.698 -0.1523  0.5208 -0.4273
    9MOL    C50 1026   0.589   6.504   5.571 -0.5146 -0.1465 -0.2699
    9MOL    C51 1027   0.611   6.359   5.526 -0.6297 -0.9512  0.0689
    9MOL   Cl52 1028   0.779   6.325   5.552  0.2004 -0.1172 -0.0490
    9MOL    H53 1029   0.680   6.562   5.555  0.3948 -2.0563 -2.3031
    9MOL    H54 1030   0.520   6.547   5.498  0.3255 -0.1657 -1.0793
    9MOL    H55 1031   0.558   6.290   5.592 -1.2356 -0.5656 -0.0073
    9MOL    C56 1032   0.589   6.316   5.385  0.2195 -0.0477 -0.4561
    9MOL    C57 1033   0.454   6.320   5.326 -0.1086  0.6110 -0.0475
    9MOL   Cl58 1034   0.340   6.239   5.443  0.1067 -0.1798  0.1383
    9MOL    H59 1035   0.620   6.212   5.393 -1.8935 -0.3572  6.5138
    9MOL    H60 1036   0.652   6.377   5.320 -0.5126  0.7102 -0.4529
    9MOL    H61 1037   0.407   6.417   5.312  0.4607  1.1474  1.7292
    9MOL    C62 1038   0.450   6.238   5.194 -0.1569 -0.3299  0.0311
    9MOL    C63 1039   0.501   6.313   5.072  0.1369 -0.0432 -0.4093
    9MOL   Cl64 1040   0.391   6.434   5.010  0.0592 -0.0187  0.1737
    9MOL    H65 1041   0.354   6.194   5.168  0.1204  0.1865 -1.9440
    9MOL    H66 1042   0.506   6.144   5.199 -2.5755 -1.7912  0.6730
    9MOL    H67 1043   0.599   6.356   5.094  0.2934 -0.1566 -0.8862
    9MOL    C68 1044   0.522   6.212   4.961  0.0594 -0.6440 -0.6607
    9MOL    C69 1045   0.598   6.269   4.840 -0.5813  0.2236  0.4420
    9MOL   Cl70 1046   0.581   6.155   4.710  0.1479  0.5245  0.2083
    9MOL    H71 1047   0.426   6.173   4.928 -1.0163 -0.1933  1.8461
    9MOL    H72 1048   0.585   6.128   4.988 -0.5230 -1.1243 -0.7912
    9MOL    H73 1049   0.537   6.353   4.807 -0.2884  0.5050  0.6170
    9MOL    C74 1050   0.749   6.282   4.859  0.3148  0.0624 -0.3067
    9MOL    C75 1051   0.814   6.371   4.752 -0.4097  0.9547  0.2172
    9MOL   Cl76 1052   0.990   6.357   4.772  0.2259  0.2255  0.2152
    9MOL    H77 1053   0.799   6.185   4.862  0.1808 -0.0019 -0.0862
    9MOL    H78 1054   0.761   6.325   4.959  3.1991 -1.0113 -0.1239
    9MOL    H79 1055   0.782   6.343   4.651 -0.9119  0.7450  0.4335
    9MOL    C80 1056   0.782   6.527   4.763 -0.2271  0.0294  0.1296
    9MOL    C81 1057   0.833   6.633   4.658 -0.0495  0.1009 -0.0090
    9MOL   Cl82 1058   0.750   6.791   4.694 -0.0932 -0.2658 -0.3120
    9MOL    H83 1059   0.824   6.553   4.860 -1.9743  1.4602  0.5057
    9MOL    H84 1060   0.674   6.529   4.764 -0.3160  1.3769 -3.6428
    9MOL    H85 1061   0.941   6.641   4.676 -0.0191 -0.8045  0.2089
    9MOL    C86 1062   0.807   6.597   4.504  0.2460  0.6217 -0.2471
    9MOL    C87 1063   0.662   6.604   4.456  0.2609  0.0219  0.1413
    9MOL   Cl88 1064   0.566   6.473   4.526  0.1538  0.2532  0.2561
    9MOL    H89 1065   0.866   6.511   4.471 -1.5995 -0.5740 -0.5558
    9MOL    H90 1066   0.862   6.676   4.454  2.9441 -0.6405  0.6541
    9MOL    H91 1067   0.618   6.698   4.489  0.4818 -1.0915  3.8843
    9MOL    C92 1068   0.642   6.606   4.301  0.4034 -0.4707 -0.1460
    9MOL    C93 1069   0.710   6.725   4.225  0.4212  0.6665 -0.7983
    9MOL   Cl94 1070   0.672   6.889   4.289 -0.3867 -0.0705 -0.0583
    9MOL    H95 1071   0.535   6.610   4.280  0.1629 -2.9782  0.4437
    9MOL    H96 1072   0.647   6.505   4.260  0.3537 -0.5413  0.0231
    9MOL    H97 1073   0.819   6.728   4.226  0.4676 -0.5952 -1.2665
    9MOL    C98 1074   0.666   6.718   4.075  0.9597 -0.6283 -0.3500
    9MOL    C99 1075   0.732   6.823   3.980 -0.0657 -0.1868  1.0492
    9MOL  Cl100 1076   0.650   6.831   3.826  0.1813 -0.0305 -0.7155
    9MOL   H101 1077   0.558   6.725   4.065  0.8986 -2.1968 -0.8872
    9MOL   H102 1078   0.688   6.625   4.022 -0.1814 -1.1834  0.1570
    9MOL   H103 1079   0.729   6.924   4.021  1.2268  0.6498 -0.8250
    9MOL   C104 1080   0.877   6.787   3.946 -0.2716 -0.2264  0.1779
    9MOL   C105 1081   0.963   6.864   3.845  0.1656 -1.0229 -0.6526
    9MOL  Cl106 1082   1.087   6.755   3.793  0.2036 -0.1251  0.1738
    9MOL   H107 1083   0.878   6.688   3.901  1.2964 -0.3566  0.4978
    9MOL   H108 1084   0.928   6.784   4.042 -0.1744 -0.8338  0.1103
    9MOL   H109 1085   0.903   6.900   3.762 -0.9977  1.9975  1.4054
    9MOL   C110 1086   1.012   7.002   3.901  0.7878 -0.5406  0.6727
    9MOL   C111 1087   1.084   7.088   3.792  0.0949 -0.1711  0.2608
    9MOL  Cl112 1088   1.253   7.044   3.778 -0.0443 -0.0205 -0.1910
    9MOL   H113 1089   1.065   6.992   3.996 -1.0579 -0.3434  1.7349
    9MOL   H114 1090   0.923   7.058   3.929 -0.5478 -1.2638 -1.9779
    9MOL   H115 1091   1.048   7.078   3.690 -0.3930 -0.5853  0.4744
    9MOL   C116 1092   1.077   7.243   3.838 -0.6414  0.3863  0.4887
    9MOL   C117 1093   1.137   7.340   3.732  0.0444  0.4416 -0.7249
    9MOL  Cl118 1094   1.058   7.324   3.564  0.0858 -0.0576 -0.3783
    9MOL   H119 1095   1.120   7.261   3.936 -2.3865  4.4561  0.5982
    9MOL   H120 1096   0.970   7.261   3.846 -0.1662  3.4390  0.3845
    9MOL   H121 1097   1.140   7.442   3.771  2.8960  0.8685 -1.8925
    9MOL   H122 1098   1.245   7.322   3.725 -0.1103 -0.3367 -1.1290
   10MOL     C1 1099   1.255   3.603   4.158  0.9115  0.6509 -0.4201
   10MOL     C2 1100   1.377   3.521   4.106  0.5729  0.0098 -0.3832
   10MOL    Cl3 1101   1.311   3.398   3.984 -0.2851  0.3904 -0.1086
   10MOL     H4 1102   1.210   3.651   4.071  0.4296  0.3980 -0.3104
   10MOL     H5 1103   1.175   3.544   4.203  2.6712  0.0272  1.9988
   10MOL     H6 1104   1.440   3.593   4.054 -0.6291  1.4255  0.0951
   10MOL     H7 1105   1.285   3.678   4.232  2.9499 -1.6069  1.1557
   10MOL     C8 1106   1.453   3.449   4.218 -0.7795  0.1275 -0.5097
   10MOL     C9 1107   1.575   3.367   4.180 -0.8723 -0.3157  0.8649
   10MOL   Cl10 1108   1.597   3.262   4.320 -0.3127 -0.2250 -0.4034
   10MOL    H11 1109   1.385   3.386   4.276 -0.0180 -1.1371 -0.9717
   10MOL    H12 1110   1.480   3.522   4.294  0.5720 -0.7387 -0.1418
   10MOL    H13 1111   1.558   3.305   4.093  1.8248  1.7375 -1.2244
   10MOL    C14 1112   1.699   3.451   4.160 -0.0306  0.4963 -0.0181
   10MOL    C15 1113   1.810   3.385   4.082  0.2651  0.2075  0.5659
   10MOL   Cl16 1114   1.757   3.385   3.915  0.0365 -0.0577  0.2341
   10MOL    H17 1115   1.739   3.493   4.253 -0.3897  1.1027 -0.1401
   10MOL    H18 1116   1.663   3.535   4.102 -1.5222  1.1590  1.7978
   10MOL    H19 1117   1.893   3.455   4.084 -0.1882  0.7864 -0.5536
   10MOL    C20 1118   1.850   3.243   4.123  0.4313 -0.0659  0.1283
   10MOL    C21 1119   1.916   3.232   4.257  0.0610 -0.2460  0.3791
   10MOL   Cl22 1120   2.081   3.310   4.255  0.5945 -0.2479 -0.0752
   10MOL    H23 1121   1.921   3.210   4.048 -0.1263  0.3002 -0.5731
   10MOL    H24 1122   1.768   3.171   4.116  0.2340 -0.0938  2.4573
   10MOL    H25 1123   1.863   3.279   4.340  1.5157  1.5694  0.3117
   10MOL    C26 1124   1.928   3.092   4.290  0.2739 -0.2085  0.0212
   10MOL    C27 1125   2.008   3.047   4.417  1.1247  0.1038 -0.1479
   10MOL   Cl28 1126   1.998   2.868   4.412  0.1069 -0.4756 -0.3010
   10MOL    H29 1127   1.971   3.042   4.203 -0.6039 -0.3495 -0.3384
   10MOL    H30 1128   1.822   3.067   4.296  0.3077 -0.5649 -0.8542
   10MOL    H31 1129   2.115   3.062   4.406  1.4822 -2.1852 -0.0882
   10MOL    C32 1130   1.953   3.095   4.558  0.4902 -0.0913  0.7332
   10MOL    C33 1131   2.013   3.231   4.599 -0.0888  0.3058  0.1787
   10MOL   Cl34 1132   2.188   3.205   4.650 -0.0379 -0.4402 -0.0468
   10MOL    H35 1133   1.972   3.019   4.634  0.2908 -1.6452 -0.7310
   10MOL    H36 1134   1.847   3.105   4.537  0.7808  0.7927 -0.4205
   10MOL    H37 1135   2.018   3.299   4.514 -0.8064 -0.4627 -0.4891
   10MOL    C38 1136   1.943   3.293   4.718  0.2878 -0.2170 -0.1269
   10MOL    C39 1137   1.795   3.349   4.707 -0.1353 -0.1254 -0.3269
   10MOL   Cl40 1138   1.781   3.461   4.562  0.0399 -0.0337 -0.2098
   10MOL    H41 1139   2.000   3.383   4.743  0.7337 -1.0139  1.7959
   10MOL    H42 1140   1.964   3.229   4.804 -2.0852  1.1096  1.4674
   10MOL    H43 1141   1.731   3.261   4.699  0.0914 -0.6347  2.8515
   10MOL    C44 1142   1.747   3.429   4.836  0.1930  0.0481  0.5844
   10MOL    C45 1143   1.605   3.493   4.833 -0.3794  0.5805 -0.1422
   10MOL   Cl46 1144   1.590   3.570   4.992  0.2652  0.0739 -0.4269
   10MOL    H47 1145   1.821   3.507   4.854  0.1090 -0.5249  3.6308
   10MOL    H48 1146   1.758   3.366   4.923  0.6039 -3.3570 -1.8372
   10MOL    H49 1147   1.598   3.569   4.755 -1.5965 -0.6713 -1.2968
   10MOL    C50 1148   1.487   3.387   4.809 -0.3526 -0.8755  0.7346
   10MOL    C51 1149   1.350   3.452   4.819 -0.6040 -0.1673 -0.3678
   10MOL   Cl52 1150   1.231   3.320   4.792 -0.1174 -0.0415  0.0620
   10MOL    H53 1151   1.486   3.324   4.898  1.1370  0.0057  1.4028
   10MOL    H54 1152   1.493   3.322   4.722 -0.5218 -0.5571  0.4805
   10MOL    H55 1153   1.331   3.486   4.921  0.6598  0.6456 -0.3911
   10MOL    C56 1154   1.330   3.569   4.716 -0.4583 -0.2469 -0.0640
   10MOL    C57 1155   1.202   3.643   4.736  0.7972 -0.3165  0.1615
   10MOL   Cl58 1156   1.168   3.746   4.593 -0.1017  0.1442  0.0000
   10MOL    H59 1157   1.333   3.520   4.619  2.0424  0.4453 -0.3671
   10MOL    H60 1158   1.411   3.641   4.710 -1.2803  0.7711  0.7649
   10MOL    H61 1159   1.117   3.574   4.730 -0.0785  0.8224 -0.9251
   10MOL    C62 1160   1.191   3.741   4.856 -0.4358 -0.1446  0.9596
   10MOL    C63 1161   1.045   3.769   4.901  0.4923  0.0594 -0.4647
   10MOL   Cl64 1162   1.034   3.938   4.969  0.1862  0.2789  0.1843
   10MOL    H65 1163   1.240   3.834   4.828 -0.3756  0.2848  2.4720
   10MOL    H66 1164   1.245   3.700   4.941  2.2016  1.0171 -0.1085
   10MOL    H67 1165   0.967   3.753   4.827 -2.0919 -0.7920  2.3497
   10MOL    C68 1166   1.002   3.676   5.009 -0.1441  0.3042  0.8115
   10MOL    C69 1167   0.981   3.520   4.973  0.0447  0.3073  0.0168
   10MOL   Cl70 1168   0.845   3.496   4.857 -0.0961 -0.3248  0.4968
   10MOL    H71 1169   0.905   3.706   5.049 -0.4391 -0.4323  0.6578
   10MOL    H72 1170   1.069   3.680   5.095  1.4678  0.2195 -0.4068
   10MOL    H73 1171   1.072   3.483   4.926  1.0615 -0.5446  2.5654
   10MOL    C74 1172   0.950   3.422   5.086 -1.2934  0.0040  0.2286
   10MOL    C75 1173   1.042   3.424   5.210  0.4468  0.4480 -0.1957
   10MOL   Cl76 1174   1.203   3.332   5.175  0.0670 -0.0800 -0.2171
   10MOL    H77 1175   0.954   3.321   5.044  0.4100  0.7139 -1.3860
   10MOL    H78 1176   0.845   3.428   5.117 -1.6410 -1.2121 -0.6628
   10MOL    H79 1177   1.069   3.518   5.257  0.4365  0.2943  0.1187
   10MOL    C80 1178   0.974   3.337   5.320  0.0840  0.2804 -0.4160
   10MOL    C81 1179   0.836   3.377   5.383  0.2511  0.8283  0.3520
   10MOL   Cl82 1180   0.836   3.534   5.462 -0.0465 -0.0532 -0.0248
   10MOL    H83 1181   1.049   3.337   5.399  0.0774 -1.4306 -0.3918
   10MOL    H84 1182   0.965   3.233   5.290  0.7698  0.0018  0.3167
   10MOL    H85 1183   0.756   3.374   5.309  0.2854  1.8229  0.2667
   10MOL    C86 1184   0.818   3.275   5.491  0.6701 -0.9366  0.8123
   10MOL    C87 1185   0.773   3.132   5.452 -0.1529 -0.2412  0.3369
   10MOL   Cl88 1186   0.603   3.146   5.399 -0.5240 -0.0563  0.2567
   10MOL    H89 1187   0.739   3.306   5.558 -0.7711  0.6418 -1.5509
   10MOL    H90 1188   0.912   3.267   5.545  1.9189 -0.1752 -1.1725
   10MOL    H91 1189   0.828   3.096   5.365  0.0520 -0.9911  0.7719
   10MOL    C92 1190   0.785   3.019   5.558  0.0695  0.0923 -0.0026
   10MOL    C93 1191   0.923   2.951   5.558 -0.1625 -0.0231 -0.1040
   10MOL   Cl94 1192   0.923   2.824   5.676 -0.5329 -0.1329  0.1104
   10MOL    H95 1193   0.710   2.943   5.534 -0.4047  0.0232  1.6674
   10MOL    H96 1194   0.734   3.049   5.650 -1.2466 -1.4474 -0.1961
   10MOL    H97 1195   0.953   2.907   5.463 -1.6173  0.8890 -1.0027
   10MOL    C98 1196   1.037   3.052   5.581 -0.0404 -0.0655 -0.3426
   10MOL    C99 1197   1.177   3.002   5.601  0.3999  0.4542 -0.0957
   10MOL  Cl100 1198   1.285   3.136   5.637  0.1344  0.4611  0.0930
   10MOL   H101 1199   1.003   3.110   5.667  1.7368 -1.0785  1.0780
   10MOL   H102 1200   1.057   3.110   5.491 -0.0674  0.1484 -0.2129
   10MOL   H103 1201   1.177   2.943   5.693  2.3055  0.3134 -0.1596
   10MOL   C104 1202   1.231   2.918   5.488 -0.3253  0.7729  0.0585
   10MOL   C105 1203   1.256   2.991   5.353  0.2015  0.1963  0.3245
   10MOL  Cl106 1204   1.108   2.988   5.248 -0.0033 -0.4456  0.1557
   10MOL   H107 1205   1.159   2.838   5.468  2.0179 -1.0919 -1.2226
   10MOL   H108 1206   1.322   2.867   5.520 -0.9454 -1.7232 -1.9543
   10MOL   H109 1207   1.277   3.097   5.369  0.9219  0.4233 -1.9031
   10MOL   C110 1208   1.373   2.929   5.272  0.0864  0.0059  0.0298
   10MOL   C111 1209   1.446   3.018   5.171 -0.2361  0.4452 -0.4662
   10MOL  Cl112 1210   1.539   2.912   5.072  0.5283  0.1832  0.1393
   10MOL   H113 1211   1.333   2.845   5.214  1.1982  1.7105 -3.3496
   10MOL   H114 1212   1.438   2.882   5.345  0.4619  2.0446  1.0195
   10MOL   H115 1213   1.361   3.057   5.115 -0.1927  0.9727 -0.1689
   10MOL   C116 1214   1.532   3.128   5.234 -0.0711  0.1539 -0.5533
   10MOL   C117 1215   1.632   3.181   5.139  0.4077 -0.0100 -0.5815
   10MOL  Cl118 1216   1.722   3.308   5.210 -0.7041  0.3047  0.1459
   10MOL   H119 1217   1.584   3.081   5.318  0.0637  1.0773 -0.1148
   10MOL   H120 1218   1.478   3.207   5.287 -2.7542 -2.6212  1.0133
   10MOL   H121 1219   1.713   3.110   5.121  2.1275  2.0061 -0.9640
   10MOL   H122 1220   1.601   3.214   5.039  2.6641  1.6166 -0.7829
   11MOL     C1 1221   2.345   6.665   5.545  0.2289 -0.4305  0.6439
   11MOL     C2 1222   2.308   6.646   5.398  0.2954 -0.1019  0.3756
   11MOL    Cl3 1223   2.454   6.647   5.300  0.0237  0.5873  0.0023
   11MOL     H4 1224   2.381   6.768   5.554  1.2855 -0.5933 -1.4175
   11MOL     H5 1225   2.253   6.658   5.604 -0.1483  1.2749  0.2945
   11MOL     H6 1226   2.262   6.549   5.377 -0.4675  0.2785  0.3094
   11MOL     H7 1227   2.416   6.593   5.584  1.3567  1.6666  2.5430
   11MOL     C8 1228   2.208   6.757   5.355  0.5785 -0.4267 -0.0190
   11MOL     C9 1229   2.155   6.747   5.213  0.3045  0.5363  0.1824
   11MOL   Cl10 1230   2.046   6.886   5.189 -0.1123  0.2583  0.2684
   11MOL    H11 1231   2.264   6.849   5.374  0.3924  0.0323 -1.5603
   11MOL    H12 1232   2.121   6.742   5.418  1.2516 -1.8018  0.6171
   11MOL    H13 1233   2.231   6.743   5.135  0.1469 -1.1093  0.0942
   11MOL    C14 1234   2.066   6.618   5.192  0.2160  0.1184 -0.0462
   11MOL    C15 1235   2.007   6.602   5.049  0.0269  0.4124 -0.0481
   11MOL   Cl16 1236   1.914   6.457   5.041  0.2780 -0.1037  0.2651
   11MOL    H17 1237   1.991   6.612   5.271 -0.3458  0.4548 -0.5515
   11MOL    H18 1238   2.136   6.537   5.215  3.4130  2.7140 -0.3075
   11MOL    H19 1239   1.929   6.676   5.032 -0.6324 -0.5887 -1.5413
   11MOL    C20 1240   2.112   6.603   4.931 -0.3725 -0.1112  0.1218
   11MOL    C21 1241   2.039   6.625   4.790  0.0481 -0.2855 -0.6753
   11MOL   Cl22 1242   2.177   6.622   4.681  0.4235 -0.1306 -0.0159
   11MOL    H23 1243   2.171   6.511   4.935 -0.0069 -0.0557 -2.8495
   11MOL    H24 1244   2.192   6.677   4.937  0.1128 -0.7923  3.2809
   11MOL    H25 1245   1.981   6.534   4.778 -1.5844  0.6268  0.1102
   11MOL    C26 1246   1.954   6.754   4.774 -0.2828  0.1058  0.3214
   11MOL    C27 1247   1.931   6.807   4.632 -0.1999 -0.5633 -0.1851
   11MOL   Cl28 1248   1.840   6.959   4.646 -0.1970  0.4271 -0.1433
   11MOL    H29 1249   2.013   6.834   4.818 -0.2048  0.4298 -0.3672
   11MOL    H30 1250   1.861   6.742   4.830  0.3100  1.2972  1.5826
   11MOL    H31 1251   2.028   6.829   4.586 -1.0948 -0.2019 -1.9284
   11MOL    C32 1252   1.866   6.705   4.542 -0.4831  0.2302  0.1348
   11MOL    C33 1253   1.797   6.760   4.416 -0.9951  0.1795  0.4878
   11MOL   Cl34 1254   1.696   6.642   4.342  0.3697 -0.3874  0.1804
   11MOL    H35 1255   1.797   6.637   4.593 -1.7111 -0.2352 -2.0844
   11MOL    H36 1256   1.946   6.636   4.516  1.0118  1.2113  2.0560
   11MOL    H37 1257   1.729   6.839   4.448 -0.9339 -0.5322  2.4360
   11MOL    C38 1258   1.896   6.817   4.305  0.2841  0.2968  0.1650
   11MOL    C39 1259   1.834   6.866   4.170  0.1642  0.0865 -0.1951
   11MOL   Cl40 1260   1.958   6.934   4.059  0.5861  0.4432  0.2317
   11MOL    H41 1261   1.975   6.745   4.281  0.7333  0.3116  1.5612
   11MOL    H42 1262   1.962   6.895   4.343  0.7560  0.2501 -0.5481
   11MOL    H43 1263   1.798   6.780   4.112  0.1807  0.4929 -0.8151
   11MOL    C44 1264   1.711   6.968   4.194 -0.2063  0.2079  0.1111
   11MOL    C45 1265   1.737   7.115   4.229 -0.7302 -0.2783 -0.0716
   11MOL   Cl46 1266   1.810   7.140   4.387  0.3376  0.0564  0.2223
   11MOL    H47 1267   1.641   6.923   4.264  0.6468 -1.7850 -0.2706
   11MOL    H48 1268   1.657   6.973   4.099 -0.4903  2.5180  0.3774
   11MOL    H49 1269   1.812   7.152   4.159  0.8037 -1.9649  0.6349
   11MOL    C50 1270   1.609   7.206   4.223  0.1218 -0.0588  0.3076
   11MOL    C51 1271   1.550   7.214   4.082 -0.5502 -0.1533 -0.2205
   11MOL   Cl52 1272   1.683   7.239   3.958 -0.5731 -0.0898 -0.1137
   11MOL    H53 1273   1.619   7.307   4.264 -1.0640  0.3445 -0.3707
   11MOL    H54 1274   1.539   7.160   4.293  1.3224 -0.2972  1.3679
   11MOL    H55 1275   1.491   7.127   4.053 -2.7395  1.0813  0.4401
   11MOL    C56 1276   1.453   7.334   4.057  0.1711  0.0571 -0.3681
   11MOL    C57 1277   1.338   7.347   4.160 -0.7021 -0.3784  0.2626
   11MOL   Cl58 1278   1.255   7.191   4.175  0.3809  0.3953  0.0598
   11MOL    H59 1279   1.417   7.338   3.954 -1.8981 -0.3253  0.3182
   11MOL    H60 1280   1.521   7.419   4.061  0.9865 -0.5800 -0.4044
   11MOL    H61 1281   1.377   7.370   4.259 -2.0923 -1.0744  0.9808
   11MOL    C62 1282   1.226   7.461   4.138 -0.2531 -0.3869  0.0834
   11MOL    C63 1283   1.272   7.606   4.116  0.9124 -0.8214 -0.3192
   11MOL   Cl64 1284   1.369   7.662   4.256  0.3769 -0.1246 -0.4561
   11MOL    H65 1285   1.158   7.453   4.223 -1.0187 -0.1266 -0.5056
   11MOL    H66 1286   1.161   7.440   4.054 -1.8473 -0.1481  1.2445
   11MOL    H67 1287   1.341   7.615   4.032 -0.2119 -1.3853 -1.3087
   11MOL    C68 1288   1.164   7.710   4.100 -0.2689  0.6895 -0.2408
   11MOL    C69 1289   1.102   7.724   3.962 -0.0532 -0.1870 -0.1857
   11MOL   Cl70 1290   1.231   7.792   3.859 -0.1953 -0.2949  0.0753
   11MOL    H71 1291   1.209   7.807   4.121 -1.8828  1.8214 -1.8114
   11MOL    H72 1292   1.089   7.696   4.178  0.1186  2.8582  0.5526
   11MOL    H73 1293   1.083   7.619   3.940 -0.9280 -0.2895  1.0356
   11MOL    C74 1294   0.989   7.825   3.950 -0.2641  0.4428 -0.4098
   11MOL    C75 1295   0.904   7.813   3.817  0.2393 -0.0580  0.8780
   11MOL   Cl76 1296   0.786   7.947   3.814 -0.1950 -0.2572 -0.2436
   11MOL    H77 1297   1.025   7.923   3.978  0.5831 -0.3136  1.2378
   11MOL    H78 1298   0.911   7.806   4.025 -0.9023  0.8541 -0.9600
   11MOL    H79 1299   0.967   7.826   3.729 -1.5017 -1.3382 -0.5686
   11MOL    C80 1300   0.824   7.683   3.807  0.4073 -0.4215  0.4823
   11MOL    C81 1301   0.752   7.646   3.673 -0.0003  0.5475  0.5239
   11MOL   Cl82 1302   0.686   7.491   3.701 -0.1717 -0.1677  0.2366
   11MOL    H83 1303   0.745   7.696   3.881  1.2240 -0.0397  1.2982
   11MOL    H84 1304   0.891   7.600   3.826  0.8766 -0.0116  0.6210
   11MOL    H85 1305   0.667   7.712   3.657  0.1381  0.3002 -1.3754
   11MOL    C86 1306   0.849   7.641   3.560  0.3991 -0.0938  0.3444
   11MOL    C87 1307   0.792   7.627   3.422  0.3734  0.3045 -0.3824
   11MOL   Cl88 1308   0.924   7.606   3.309 -0.0820 -0.4586 -0.0787
   11MOL    H89 1309   0.929   7.571   3.584 -0.0389 -0.7193  0.0191
   11MOL    H90 1310   0.905   7.732   3.542 -0.9946  0.6016 -0.5126
   11MOL    H91 1311   0.727   7.540   3.434 -0.6738  1.2517  0.8845
   11MOL    C92 1312   0.706   7.750   3.378 -0.2099  0.1126 -0.1470
   11MOL    C93 1313   0.639   7.727   3.245  0.1676  0.0441 -0.1471
   11MOL   Cl94 1314   0.632   7.867   3.146 -0.0195 -0.1994  0.0580
   11MOL    H95 1315   0.777   7.831   3.390 -1.9901  1.6662  0.2720
   11MOL    H96 1316   0.634   7.777   3.455 -1.8527 -1.6646 -0.9829
   11MOL    H97 1317   0.702   7.661   3.185  0.1943 -0.8292  0.8310
   11MOL    C98 1318   0.504   7.662   3.261  0.3596  0.7372  0.8569
   11MOL    C99 1319   0.463   7.573   3.140 -0.0982  0.0883  0.3428
   11MOL  Cl100 1320   0.312   7.629   3.056 -0.2473  0.1039  0.4546
   11MOL   H101 1321   0.431   7.740   3.281  1.9157  2.0777  1.3943
   11MOL   H102 1322   0.503   7.601   3.351  1.7532 -0.5587  0.0352
   11MOL   H103 1323   0.536   7.563   3.060  0.7959 -3.1868  1.4990
   11MOL   C104 1324   0.444   7.428   3.171 -0.4663  0.3851  0.4584
   11MOL   C105 1325   0.553   7.336   3.235 -0.9950 -0.4811  0.6892
   11MOL  Cl106 1326   0.714   7.370   3.172 -0.0449 -0.1330  0.2634
   11MOL   H107 1327   0.427   7.384   3.073  1.2686  2.0326 -0.5978
   11MOL   H108 1328   0.350   7.403   3.222  0.6572 -2.8262  1.0349
   11MOL   H109 1329   0.556   7.364   3.340  1.2669 -1.8885  1.0303
   11MOL   C110 1330   0.530   7.181   3.215 -0.2674 -0.1670 -0.2055
   11MOL   C111 1331   0.599   7.092   3.319  0.4058  0.0175 -0.3583
   11MOL  Cl112 1332   0.622   6.929   3.246 -0.0883 -0.1309 -0.0813
   11MOL   H113 1333   0.564   7.151   3.115 -2.6718 -2.3756 -0.4054
   11MOL   H114 1334   0.427   7.148   3.225 -0.5233  0.7836  0.3665
   11MOL   H115 1335   0.694   7.139   3.346  1.0407 -2.9591  2.9637
   11MOL   C116 1336   0.538   7.080   3.462 -0.1200 -0.2291  0.3075
   11MOL   C117 1337   0.614   7.004   3.565 -0.4150 -0.3339  0.1337
   11MOL  Cl118 1338   0.752   7.092   3.606 -0.0763  0.0755  0.5077
   11MOL   H119 1339   0.455   7.018   3.428  1.5531 -1.4246 -1.6599
   11MOL   H120 1340   0.508   7.177   3.504  1.6847  0.9511 -1.0372
   11MOL   H121 1341   0.550   7.003   3.653  1.3629 -1.7259  1.4459
   11MOL   H122 1342   0.638   6.903   3.532  1.8357  0.0246  0.5892
   12MOL     C1 1343   0.241   0.320   0.906  0.4880 -0.6422 -0.3570
   12MOL     C2 1344   0.189   0.315   1.050  0.2765 -0.1586 -0.5559
   12MOL    Cl3 1345   0.026   0.239   1.058  0.1098 -0.1108 -0.1706
   12MOL     H4 1346   0.167   0.360   0.838 -0.7844 -1.7832  0.3286
   12MOL     H5 1347   0.340   0.361   0.886 -0.6188  2.1916 -0.2346
   12MOL     H6 1348   0.250   0.246   1.108  0.7453 -0.0360 -0.9003
   12MOL     H7 1349   0.246   0.212   0.892  0.0742 -0.8183  0.7623
   12MOL     C8 1350   0.186   0.454   1.112 -0.0102  0.3731  0.2288
   12MOL     C9 1351   0.331   0.509   1.134  0.3416 -0.2538 -1.3597
   12MOL   Cl10 1352   0.422   0.390   1.230 -0.0551  0.1394 -0.2725
   12MOL    H11 1353   0.132   0.448   1.207  0.5749  0.1185  0.5464
   12MOL    H12 1354   0.129   0.522   1.048  0.5271 -0.1117 -0.7818
   12MOL    H13 1355   0.384   0.507   1.039 -0.5107 -0.6690 -1.8304
   12MOL    C14 1356   0.346   0.646   1.203  0.4363 -0.0666  0.5079
   12MOL    C15 1357   0.293   0.774   1.133 -0.3853  0.0347  0.5988
   12MOL   Cl16 1358   0.341   0.785   0.959 -0.0697 -0.4192  0.2144
   12MOL    H17 1359   0.452   0.666   1.219  0.4503  0.5211 -0.3264
   12MOL    H18 1360   0.296   0.639   1.300 -1.7333  3.0604 -0.3132
   12MOL    H19 1361   0.185   0.762   1.140 -0.5491  0.0272 -1.5004
   12MOL    C20 1362   0.347   0.898   1.207 -0.8410 -0.7777  0.4607
   12MOL    C21 1363   0.279   1.038   1.174 -0.1642  1.3532 -0.3214
   12MOL   Cl22 1364   0.392   1.150   1.263 -0.3478  0.0658  0.0147
   12MOL    H23 1365   0.456   0.905   1.207 -0.7231 -2.2590 -0.3468
   12MOL    H24 1366   0.314   0.885   1.310  2.9255 -0.2470  1.8127
   12MOL    H25 1367   0.276   1.063   1.068  3.1699 -2.2562 -1.3836
   12MOL    C26 1368   0.139   1.049   1.239  0.0023  0.3798  0.6495
   12MOL    C27 1369   0.048   1.161   1.186 -0.1084 -0.1114  0.0020
   12MOL   Cl28 1370   0.003   1.141   1.010  0.4570  0.0274 -0.0214
   12MOL    H29 1371   0.136   1.039   1.347  2.9498 -0.1220  0.7526
   12MOL    H30 1372   0.092   0.953   1.216 -0.6613  0.6766  0.7740
   12MOL    H31 1373   8.478   1.153   1.239  1.0108  0.5693  2.1858
   12MOL    C32 1374   0.108   1.294   1.207  0.1739  0.4379  0.4851
   12MOL    C33 1375   0.011   1.418   1.222 -0.7885  0.6650 -0.0944
   12MOL   Cl34 1376   8.395   1.419   1.111  0.1198  0.8427 -0.0587
   12MOL    H35 1377   0.185   1.298   1.130  1.2933 -1.9969  1.4131
   12MOL    H36 1378   0.165   1.289   1.300 -0.5944 -2.1386  0.8649
   12MOL    H37 1379   8.487   1.434   1.317  0.2168  2.1447  0.1951
   12MOL    C38 1380   0.074   1.561   1.214  0.0695  0.2521 -0.6208
   12MOL    C39 1381   0.193   1.582   1.304 -0.3210  0.0877 -0.0321
   12MOL   Cl40 1382   0.147   1.521   1.469 -0.1692  0.4498 -0.0658
   12MOL    H41 1383   8.524   1.638   1.230 -0.9625  0.0429 -4.2301
   12MOL    H42 1384   0.101   1.573   1.109 -0.8094  0.2415 -0.8496
   12MOL    H43 1385   0.283   1.532   1.268 -0.2080  1.2180 -1.3768
   12MOL    C44 1386   0.224   1.736   1.327  0.4400 -0.4681 -0.2194
   12MOL    C45 1387   0.290   1.815   1.215 -0.2108 -0.4456 -0.3466
   12MOL   Cl46 1388   0.467   1.796   1.213  0.0525 -0.3038  0.0726
   12MOL    H47 1389   0.297   1.757   1.405  2.3985  1.3059 -2.4398
   12MOL    H48 1390   0.130   1.781   1.358  1.3294 -0.8835  3.1988
   12MOL    H49 1391   0.257   1.759   1.128  0.9592 -0.4301 -0.8122
   12MOL    C50 1392   0.254   1.965   1.209  0.0553 -0.0651  0.0249
   12MOL    C51 1393   0.316   2.046   1.097  0.7205  0.2753  0.8721
   12MOL   Cl52 1394   0.256   2.212   1.113 -0.1794 -0.1072 -0.1734
   12MOL    H53 1395   0.290   1.999   1.305 -0.0375 -0.4211  0.1868
   12MOL    H54 1396   0.146   1.974   1.202  0.2673  1.0719 -2.4928
   12MOL    H55 1397   0.424   2.043   1.108  0.9747 -0.0079 -1.5099
   12MOL    C56 1398   0.284   2.011   0.947  0.2491  0.9824 -0.2032
   12MOL    C57 1399   0.137   2.040   0.898 -0.2515  0.1765  0.1214
   12MOL   Cl58 1400   0.027   1.916   0.976  0.3190 -0.4160  0.1386
   12MOL    H59 1401   0.310   1.906   0.938 -0.1215  0.9282 -0.6724
   12MOL    H60 1402   0.352   2.062   0.880  0.2570 -0.1957 -1.1114
   12MOL    H61 1403   0.098   2.138   0.927 -1.5168 -0.3170  0.1176
   12MOL    C62 1404   0.117   2.038   0.737 -0.6608 -0.4578 -0.3606
   12MOL    C63 1405   0.191   2.148   0.653 -0.5732 -0.1711  0.3539
   12MOL   Cl64 1406   0.153   2.325   0.694 -0.0086  0.1113 -0.2426
   12MOL    H65 1407   0.010   2.026   0.719 -0.7823 -0.4780  0.3642
   12MOL    H66 1408   0.148   1.939   0.702 -2.0090 -0.9876 -0.1136
   12MOL    H67 1409   0.298   2.142   0.672 -0.5877  0.7135  0.7587
   12MOL    C68 1410   0.185   2.123   0.499 -0.9056  0.4968 -0.6947
   12MOL    C69 1411   0.231   2.242   0.419 -0.1118 -0.2608  0.2529
   12MOL   Cl70 1412   0.198   2.222   0.243 -0.0976 -0.3710 -0.2952
   12MOL    H71 1413   0.081   2.105   0.472 -0.8957  0.3874 -0.6582
   12MOL    H72 1414   0.234   2.030   0.471 -0.9568  0.0422  0.6905
   12MOL    H73 1415   0.186   2.336   0.451  1.2094  0.9286 -1.2770
   12MOL    C74 1416   0.384   2.265   0.412 -0.6272  0.3808  0.1395
   12MOL    C75 1417   0.477   2.145   0.372  0.2686 -0.4323 -0.4591
   12MOL   Cl76 1418   0.543   2.071   0.515  0.0992  0.1084  0.0650
   12MOL    H77 1419   0.420   2.304   0.507 -0.4113  1.2127 -0.2828
   12MOL    H78 1420   0.396   2.355   0.351  0.8278 -0.2490 -0.5442
   12MOL    H79 1421   0.412   2.073   0.323 -0.1208 -0.4382  0.0699
   12MOL    C80 1422   0.589   2.198   0.273 -0.9814  0.4199 -0.3899
   12MOL    C81 1423   0.541   2.207   0.130 -1.1780  0.7592 -0.0668
   12MOL   Cl82 1424   0.519   2.033   0.085  0.7335  0.2277  0.1318
   12MOL    H83 1425   0.668   2.123   0.277 -1.0947  0.3255  0.1284
   12MOL    H84 1426   0.627   2.295   0.306 -0.6860  1.0312 -2.4744
   12MOL    H85 1427   0.443   2.255   0.132 -1.8315 -0.6216  1.6214
   12MOL    C86 1428   0.636   2.278   0.031  0.2068 -0.2511  0.6817
   12MOL    C87 1429   0.571   2.278   8.414  0.1509  0.3632  0.5397
   12MOL   Cl88 1430   0.679   2.364   8.306  0.1991 -0.0220 -0.3156
   12MOL    H89 1431   0.736   2.236   0.016 -0.4998 -1.1441 -1.7940
   12MOL    H90 1432   0.649   2.378   0.072 -0.5283  0.9524 -1.9463
   12MOL    H91 1433   0.567   2.174   8.383  0.3598  0.7220 -0.7237
   12MOL    C92 1434   0.433   2.342   8.398 -0.3504 -0.6557 -0.6563
   12MOL    C93 1435   0.400   2.485   8.443 -0.7389  0.5088 -0.2320
   12MOL   Cl94 1436   0.417   2.528   0.092  0.2858  0.2709  0.3801
   12MOL    H95 1437   0.367   2.283   8.462 -1.9420  1.0140 -0.7392
   12MOL    H96 1438   0.405   2.329   8.293  4.1600 -4.1061 -1.5886
   12MOL    H97 1439   0.464   2.551   8.385  0.0926  1.6811  1.9364
   12MOL    C98 1440   0.259   2.532   8.399 -0.0880  0.5986 -0.3413
   12MOL    C99 1441   0.135   2.469   8.475 -0.8817  0.0435  0.0452
   12MOL  Cl100 1442   0.093   2.320   8.384 -0.0502 -0.2895 -0.0856
   12MOL   H101 1443   0.250   2.517   8.291 -0.5519 -0.2281 -0.1925
   12MOL   H102 1444   0.260   2.641   8.407 -1.0043  0.5483  0.4799
   12MOL   H103 1445   0.166   2.431   0.048 -0.2963 -1.4355 -0.6976
   12MOL   C104 1446   0.011   2.566   8.494  0.6768 -0.3818 -0.2411
   12MOL   C105 1447   8.416   2.488   0.020  0.4755  0.9935  0.4695
   12MOL  Cl106 1448   8.274   2.578   0.022 -0.2244 -0.3698 -0.0174
   12MOL   H107 1449   8.518   2.604   8.393 -0.5466 -0.2740  0.0088
   12MOL   H108 1450   0.038   2.658   0.020 -0.1956 -0.4927  0.4335
   12MOL   H109 1451   8.396   2.392   8.499  2.2318  0.2894  1.1399
   12MOL   C110 1452   8.433   2.443   0.167  0.3471 -0.4675  0.0465
   12MOL   C111 1453   8.335   2.344   0.233  0.0084  0.0742  0.5246
   12MOL  Cl112 1454   8.368   2.347   0.405 -0.4245  0.0919 -0.5217
   12MOL   H113 1455   8.424   2.541   0.215 -0.3267  1.3537 -3.5843
   12MOL   H114 1456   0.010   2.414   0.190 -0.6158 -1.2270  3.7559
   12MOL   H115 1457   8.233   2.379   0.224  0.0033  0.4027  1.8140
   12MOL   C116 1458   8.355   2.201   0.181  0.2602  0.4962 -0.1791
   12MOL   C117 1459   8.224   2.121   0.217 -0.3820 -0.4439 -0.1847
   12MOL  Cl118 1460   8.263   1.951   0.181 -0.0366  0.2713  0.1244
   12MOL   H119 1461   8.433   2.145   0.232 -1.2151 -2.2666 -0.8297
   12MOL   H120 1462   8.365   2.191   0.073 -0.8796 -2.0221 -0.0930
   12MOL   H121 1463   8.203   2.124   0.324 -0.8779 -1.4262 -0.2521
   12MOL   H122 1464   8.136   2.137   0.155 -0.6581 -2.0240 -0.2144
   13MOL     C1 1465   3.085   6.987   2.773 -0.7379 -0.2571  0.0407
   13MOL     C2 1466   3.144   7.122   2.719 -0.2632  0.6826 -1.0861
   13MOL    Cl3 1467   3.124   7.117   2.544  0.0832 -0.0063  0.0529
   13MOL     H4 1468   3.141   6.901   2.736 -1.7434 -1.0544  0.3331
   13MOL     H5 1469   3.090   6.980   2.881  1.6475 -0.4944 -0.0547
   13MOL     H6 1470   3.085   7.208   2.750 -0.1630  0.6014 -0.6714
   13MOL     H7 1471   2.983   6.986   2.733 -0.5421  1.8009 -0.5703
   13MOL     C8 1472   3.286   7.141   2.757 -0.0095  0.3875  0.3963
   13MOL     C9 1473   3.360   7.275   2.737  0.1463 -0.0167  0.0298
   13MOL   Cl10 1474   3.272   7.400   2.828 -0.1340  0.2121 -0.1792
   13MOL    H11 1475   3.345   7.055   2.727 -0.4175  0.3096 -0.2122
   13MOL    H12 1476   3.284   7.136   2.866  0.6710 -0.0448  0.3893
   13MOL    H13 1477   3.452   7.271   2.794  0.6448 -2.1971 -0.9051
   13MOL    C14 1478   3.391   7.302   2.594 -0.6484  0.2401  0.2517
   13MOL    C15 1479   3.513   7.394   2.557  0.1480  0.8972  0.1407
   13MOL   Cl16 1480   3.502   7.555   2.636 -0.4127  0.6240  0.2712
   13MOL    H17 1481   3.300   7.326   2.539  0.2437  2.1177 -0.4722
   13MOL    H18 1482   3.415   7.204   2.555 -0.5064  1.2912 -2.4101
   13MOL    H19 1483   3.612   7.355   2.581 -0.6445 -1.7437 -0.6802
   13MOL    C20 1484   3.516   7.423   2.407  0.7310  0.0714 -0.1911
   13MOL    C21 1485   3.522   7.302   2.312 -0.3179 -0.2321  0.5956
   13MOL   Cl22 1486   3.658   7.198   2.354 -0.1915 -0.4920 -0.2916
   13MOL    H23 1487   3.592   7.497   2.381 -0.5686  1.5964  0.3260
   13MOL    H24 1488   3.422   7.470   2.379  0.3226 -0.4544  0.2956
   13MOL    H25 1489   3.437   7.236   2.332 -0.3216 -0.2936  0.3834
   13MOL    C26 1490   3.542   7.341   2.164  0.5248 -0.2223  0.2423
   13MOL    C27 1491   3.413   7.407   2.105  0.3559  0.4781 -0.3657
   13MOL   Cl28 1492   3.280   7.288   2.131  0.0492  0.1301  0.1383
   13MOL    H29 1493   3.586   7.260   2.106 -0.2610 -0.8575  0.5229
   13MOL    H30 1494   3.626   7.411   2.168 -0.8758  1.4900  0.6797
   13MOL    H31 1495   3.377   7.496   2.155 -1.8242 -0.7266  0.2874
   13MOL    C32 1496   3.408   7.438   1.953  0.1143 -0.2059 -0.0015
   13MOL    C33 1497   3.516   7.537   1.907  0.0695  0.4461  0.3458
   13MOL   Cl34 1498   3.507   7.672   2.018 -0.3241  0.1796 -0.2199
   13MOL    H35 1499   3.311   7.485   1.933  0.7144 -0.4331 -3.9712
   13MOL    H36 1500   3.415   7.352   1.885 -1.3760  0.0784 -0.5367
   13MOL    H37 1501   3.607   7.482   1.928  1.4405  1.2777 -3.1239
   13MOL    C38 1502   3.510   7.583   1.766  0.2232 -0.3907  0.2082
   13MOL    C39 1503   3.643   7.623   1.712  0.3192  0.3411  0.3633
   13MOL   Cl40 1504   3.737   7.477   1.671  0.6082 -0.4056  0.0098
   13MOL    H41 1505   3.442   7.669   1.761  0.0022 -0.5610  0.2609
   13MOL    H42 1506   3.468   7.496   1.716 -0.7641  0.1852  0.0169
   13MOL    H43 1507   3.608   7.664   1.617 -0.6828 -2.2520 -0.4237
   13MOL    C44 1508   3.729   7.729   1.780 -0.1437 -0.0963  0.3986
   13MOL    C45 1509   3.685   7.871   1.814  0.3607 -0.0273  0.3870
   13MOL   Cl46 1510   3.613   7.957   1.679  0.0317  0.4353  0.1503
   13MOL    H47 1511   3.812   7.738   1.709  0.7719  0.9483  1.5813
   13MOL    H48 1512   3.774   7.680   1.867 -0.5185 -0.1321  0.5694
   13MOL    H49 1513   3.603   7.862   1.885 -1.2413  0.7251 -1.3132
   13MOL    C50 1514   3.797   7.952   1.882  0.2632  0.3763  0.0720
   13MOL    C51 1515   3.759   8.098   1.929  0.5930 -0.4512 -0.6304
   13MOL   Cl52 1516   3.902   8.190   1.954 -0.3528  0.1142 -0.0246
   13MOL    H53 1517   3.883   7.953   1.816 -1.0239 -0.3257 -1.6573
   13MOL    H54 1518   3.831   7.888   1.963  0.8987  2.2136  1.2801
   13MOL    H55 1519   3.698   8.154   1.858 -0.9958 -0.0860  0.9569
   13MOL    C56 1520   3.685   8.096   2.063 -0.3676 -0.3201 -0.4892
   13MOL    C57 1521   3.639   8.231   2.127 -0.2964  0.3390 -0.0169
   13MOL   Cl58 1522   3.606   8.186   2.296  0.1245 -0.2580  0.3413
   13MOL    H59 1523   3.754   8.044   2.129 -2.0582 -2.5125 -0.3947
   13MOL    H60 1524   3.595   8.034   2.062 -0.8007  0.2983 -2.5273
   13MOL    H61 1525   3.729   8.293   2.126  0.8717 -1.3175  0.0073
   13MOL    C62 1526   3.529   8.298   2.047 -0.0922  0.4098 -0.1638
   13MOL    C63 1527   3.518   8.453   2.050 -0.3232  0.6803 -0.1785
   13MOL   Cl64 1528   3.361   8.504   1.974 -0.0724 -0.0988  0.0262
   13MOL    H65 1529   3.434   8.262   2.087  0.5341 -1.0927 -0.0026
   13MOL    H66 1530   3.520   8.269   1.942 -0.0088 -2.6918  0.6371
   13MOL    H67 1531   3.517   8.481   2.155 -1.2917  1.0230 -0.2708
   13MOL    C68 1532   3.628   8.521   1.971 -0.2440 -0.8403 -0.0693
   13MOL    C69 1533   3.639   0.149   1.984 -0.3540  0.3672 -0.0955
   13MOL   Cl70 1534   3.760   0.213   1.867  0.1173 -0.0071 -0.0789
   13MOL    H71 1535   3.607   8.501   1.866  0.0155  1.7001 -0.6489
   13MOL    H72 1536   3.721   8.473   2.000  0.8254  0.7678 -0.7730
   13MOL    H73 1537   3.543   0.188   1.952 -1.1278 -2.0861 -0.8873
   13MOL    C74 1538   3.665   0.206   2.126  0.0146 -0.3996  0.2544
   13MOL    C75 1539   3.597   0.329   2.178  0.3855 -0.4836 -0.2893
   13MOL   Cl76 1540   3.430   0.290   2.216 -0.1361  0.3761  0.3288
   13MOL    H77 1541   3.774   0.216   2.123 -0.0620 -0.0363 -1.5496
   13MOL    H78 1542   3.653   0.129   2.203 -1.4358 -0.2797  0.1631
   13MOL    H79 1543   3.645   0.362   2.270 -1.3524  0.3883  0.3293
   13MOL    C80 1544   3.609   0.459   2.090  0.1083 -0.0297 -0.2388
   13MOL    C81 1545   3.747   0.507   2.057 -0.6328 -0.1787  0.1503
   13MOL   Cl82 1546   3.845   0.493   2.201  0.3810 -0.0926 -0.1421
   13MOL    H83 1547   3.549   0.535   2.140  0.6886  1.1389 -1.2772
   13MOL    H84 1548   3.562   0.434   1.995 -0.5036 -0.8780  0.2856
   13MOL    H85 1549   3.793   0.460   1.970  0.9457  0.0491  0.8455
   13MOL    C86 1550   3.744   0.660   2.022  0.1980 -0.2053  0.8360
   13MOL    C87 1551   3.673   0.679   1.888 -0.1716  0.5682  0.1986
   13MOL   Cl88 1552   3.779   0.620   1.756  0.0222 -0.3532 -0.1171
   13MOL    H89 1553   3.848   0.691   2.027  0.6234 -0.9862 -2.2485
   13MOL    H90 1554   3.683   0.700   2.103  0.9794 -1.0247  1.8342
   13MOL    H91 1555   3.581   0.622   1.895 -0.2982  0.8801  1.2108
   13MOL    C92 1556   3.636   0.821   1.861  0.2689 -0.1699  0.2264
   13MOL    C93 1557   3.754   0.920   1.838  0.0813 -0.3529  0.0367
   13MOL   Cl94 1558   3.802   0.975   2.005 -0.1586  0.1687 -0.1697
   13MOL    H95 1559   3.588   0.856   1.952  0.0626  1.7678 -0.6027
   13MOL    H96 1560   3.560   0.830   1.783 -2.9246 -0.4723  3.1848
   13MOL    H97 1561   3.844   0.870   1.800  0.3548 -0.1333  0.3911
   13MOL    C98 1562   3.727   1.044   1.748  0.0042  0.0563  0.4892
   13MOL    C99 1563   3.641   1.159   1.812  0.5674 -0.5796  0.1518
   13MOL  Cl100 1564   3.488   1.098   1.858  0.2255 -0.0517 -0.0206
   13MOL   H101 1565   3.684   1.003   1.656  1.7026 -1.1734  0.2332
   13MOL   H102 1566   3.818   1.095   1.717 -1.3004  1.8497 -0.5158
   13MOL   H103 1567   3.693   1.201   1.898 -0.7813  1.8218 -0.1463
   13MOL   C104 1568   3.635   1.280   1.715  0.0866  0.0018 -0.2611
   13MOL   C105 1569   3.623   1.423   1.777  0.3327 -0.0605  0.0665
   13MOL  Cl106 1570   3.764   1.469   1.878  0.0795  0.2551  0.1225
   13MOL   H107 1571   3.582   1.268   1.620 -1.8040  0.0907  0.7541
   13MOL   H108 1572   3.740   1.291   1.689 -0.4345  1.8268 -1.6898
   13MOL   H109 1573   3.627   1.491   1.692 -0.4419  0.3832  0.3808
   13MOL   C110 1574   3.491   1.453   1.850 -0.1078  0.1604  0.0545
   13MOL   C111 1575   3.482   1.591   1.894  0.7329  0.7527 -0.2891
   13MOL  Cl112 1576   3.322   1.600   1.985 -0.2053  0.1965 -0.0720
   13MOL   H113 1577   3.495   1.387   1.937 -1.0457  0.6687  0.4924
   13MOL   H114 1578   3.408   1.412   1.793  0.5250 -2.3947  0.9078
   13MOL   H115 1579   3.550   1.611   1.977 -0.8668 -1.5496  1.6353
   13MOL   C116 1580   3.483   1.697   1.770 -0.0459 -0.1915 -0.3314
   13MOL   C117 1581   3.469   1.842   1.806 -0.0244 -0.9490 -0.6056
   13MOL  Cl118 1582   3.498   1.945   1.669  0.1972 -0.1574  0.1838
   13MOL   H119 1583   3.402   1.669   1.702 -0.0410  0.3658 -0.5685
   13MOL   H120 1584   3.574   1.696   1.710  1.0039 -1.7007  1.2627
   13MOL   H121 1585   3.368   1.851   1.846  0.5774 -1.0548  1.0045
   13MOL   H122 1586   3.540   1.869   1.885  0.3595 -1.0104 -0.9294
   14MOL     C1 1587   6.619   6.267   5.936  0.6364  0.0873 -0.1336
   14MOL     C2 1588   6.712   6.344   5.842  0.8427 -0.5705 -0.5513
   14MOL    Cl3 1589   6.859   6.368   5.938  0.0293 -0.4337  0.4008
   14MOL     H4 1590   6.588   6.329   6.020  0.2697 -1.2078  0.7089
   14MOL     H5 1591   6.523   6.236   5.894  0.8534 -2.0948  0.8717
   14MOL     H6 1592   6.739   6.290   5.751  1.7082  1.6375 -1.6629
   14MOL     H7 1593   6.680   6.187   5.979 -0.0201 -0.0644  0.5436
   14MOL     C8 1594   6.632   6.478   5.814  0.1921 -0.2506  0.8460
   14MOL     C9 1595   6.720   6.589   5.742  0.0620  0.3808  0.5190
   14MOL   Cl10 1596   6.597   6.712   5.716  0.2565  0.1564  0.0635
   14MOL    H11 1597   6.588   6.525   5.902  1.3274 -2.1628  2.4625
   14MOL    H12 1598   6.542   6.454   5.757  0.7424 -0.5723  0.1088
   14MOL    H13 1599   6.794   6.640   5.804  1.6832 -0.9892 -0.2713
   14MOL    C14 1600   6.792   6.541   5.608  0.7138 -0.5067  0.0658
   14MOL    C15 1601   6.844   6.660   5.520 -0.0087  0.0216  0.1355
   14MOL   Cl16 1602   6.897   6.582   5.362 -0.2349 -0.1272  0.0432
   14MOL    H17 1603   6.717   6.486   5.551 -0.6679  0.6637  0.7285
   14MOL    H18 1604   6.866   6.462   5.619  1.7669  0.9571  4.2109
   14MOL    H19 1605   6.760   6.727   5.500  0.9237  1.0798 -0.2644
   14MOL    C20 1606   6.957   6.757   5.562  0.1631  0.7359 -0.2988
   14MOL    C21 1607   6.963   6.898   5.502 -0.0414 -0.8149  0.1809
   14MOL   Cl22 1608   7.010   6.893   5.329  0.3181  0.0344  0.0181
   14MOL    H23 1609   7.050   6.701   5.549  0.1728  0.7847 -0.4456
   14MOL    H24 1610   6.960   6.772   5.670 -0.8036 -0.5485 -0.0839
   14MOL    H25 1611   6.867   6.950   5.504  1.6810  2.4515  2.1138
   14MOL    C26 1612   7.063   6.990   5.566 -0.1582 -0.3036  0.2020
   14MOL    C27 1613   7.071   7.143   5.516 -0.1471  0.3146  0.1473
   14MOL   Cl28 1614   7.206   7.219   5.596 -0.1109 -0.0891  0.2298
   14MOL    H29 1615   7.162   6.947   5.546 -0.2265 -1.1653  1.6664
   14MOL    H30 1616   7.031   6.982   5.670 -2.0154 -0.9656 -0.4087
   14MOL    H31 1617   7.107   7.154   5.414 -0.9493 -0.4692 -0.2296
   14MOL    C32 1618   6.940   7.229   5.529  0.5165 -0.3753  0.0114
   14MOL    C33 1619   6.896   7.244   5.680 -0.6489 -0.2596  0.1181
   14MOL   Cl34 1620   6.785   7.119   5.733  0.0051 -0.4567  0.0506
   14MOL    H35 1621   6.859   7.210   5.459  1.4793  0.4096 -1.3459
   14MOL    H36 1622   6.970   7.329   5.496 -0.9123 -0.9246 -3.0574
   14MOL    H37 1623   6.984   7.239   5.743  1.4908 -1.1445 -2.8354
   14MOL    C38 1624   6.814   7.368   5.715 -0.1812  0.5436 -0.5612
   14MOL    C39 1625   6.890   7.502   5.712 -0.6292  0.3655 -0.2636
   14MOL   Cl40 1626   7.002   7.495   5.848  0.5557 -0.0909  0.0340
   14MOL    H41 1627   6.775   7.362   5.816 -2.7070 -1.4948 -1.5751
   14MOL    H42 1628   6.730   7.380   5.645  0.5913  0.6809 -1.4737
   14MOL    H43 1629   6.947   7.506   5.620 -1.8839  0.7819 -1.0356
   14MOL    C44 1630   6.796   7.625   5.730  0.0067  1.1477 -0.0770
   14MOL    C45 1631   6.849   7.764   5.742  0.7120  0.4765 -0.1718
   14MOL   Cl46 1632   6.712   7.877   5.739 -0.7081  0.1856  0.4124
   14MOL    H47 1633   6.736   7.602   5.819  0.7526  0.0678  0.1600
   14MOL    H48 1634   6.725   7.632   5.648 -0.8687  1.2414  0.6771
   14MOL    H49 1635   6.893   7.783   5.840  0.9008 -1.4929  0.1542
   14MOL    C50 1636   6.946   7.806   5.634  0.1930 -0.0848  0.3004
   14MOL    C51 1637   7.029   7.933   5.665  0.3553  0.1110 -0.1252
   14MOL   Cl52 1638   6.962   8.055   5.569 -0.3129 -0.2996  0.1656
   14MOL    H53 1639   6.884   7.824   5.546 -0.3545  0.6593  0.8265
   14MOL    H54 1640   7.012   7.725   5.605  0.3942 -0.6445  2.2475
   14MOL    H55 1641   7.004   7.956   5.769  1.0792 -0.3130  0.1376
   14MOL    C56 1642   7.185   7.917   5.636  0.0914 -0.3874 -0.1011
   14MOL    C57 1643   7.263   7.814   5.714  0.2490 -0.1262  0.2764
   14MOL   Cl58 1644   7.220   7.825   5.888 -0.3706 -0.1884 -0.0176
   14MOL    H59 1645   7.222   8.016   5.663 -2.1802  0.6096 -0.5073
   14MOL    H60 1646   7.201   7.905   5.529 -2.3386 -0.0887 -0.5224
   14MOL    H61 1647   7.242   7.718   5.668  0.4075 -0.1961  0.3519
   14MOL    C62 1648   7.416   7.842   5.702  0.2335  0.4925 -0.1800
   14MOL    C63 1649   7.513   7.726   5.724  0.0132 -0.4184 -0.1847
   14MOL   Cl64 1650   7.684   7.775   5.710 -0.2662 -0.2316 -0.1575
   14MOL    H65 1651   7.441   7.917   5.778  1.0203 -3.2028  3.3800
   14MOL    H66 1652   7.431   7.883   5.603  1.3005  0.7837  0.0963
   14MOL    H67 1653   7.493   7.699   5.828 -1.0832  2.6550  0.4310
   14MOL    C68 1654   7.494   7.596   5.646  0.3558 -0.7146 -1.0073
   14MOL    C69 1655   7.490   7.600   5.493  0.0174 -0.0435  0.0932
   14MOL   Cl70 1656   7.346   7.672   5.421  0.0134 -0.0029 -0.1838
   14MOL    H71 1657   7.400   7.553   5.679  0.3254  1.2974  1.7180
   14MOL    H72 1658   7.568   7.521   5.673  1.8721  0.3961 -1.9424
   14MOL    H73 1659   7.573   7.664   5.464 -0.5152  1.1603  1.1823
   14MOL    C74 1660   7.491   7.468   5.428  0.5849  0.1130  0.4249
   14MOL    C75 1661   7.612   7.379   5.437 -0.5547  0.4510 -0.9747
   14MOL   Cl76 1662   7.741   7.446   5.334 -0.2636 -0.2680  0.1436
   14MOL    H77 1663   7.478   7.484   5.321 -0.0187  1.8175  0.7399
   14MOL    H78 1664   7.404   7.408   5.455  0.1057  0.3980 -0.4712
   14MOL    H79 1665   7.650   7.380   5.539  2.4758  1.1218 -2.0569
   14MOL    C80 1666   7.596   7.228   5.397 -0.0018  0.3829  0.2790
   14MOL    C81 1667   7.566   7.203   5.248  0.9850  0.4916 -0.1012
   14MOL   Cl82 1668   7.403   7.255   5.216 -0.0034 -0.4391  0.0402
   14MOL    H83 1669   7.523   7.192   5.470  0.5564 -0.1876  0.5626
   14MOL    H84 1670   7.689   7.174   5.414 -0.7857 -2.1506 -2.9519
   14MOL    H85 1671   7.640   7.258   5.191  0.6548  0.7495 -0.2828
   14MOL    C86 1672   7.564   7.056   5.215  0.3610 -0.5655  0.1337
   14MOL    C87 1673   7.692   6.995   5.149 -0.0632  0.5231 -0.0963
   14MOL   Cl88 1674   7.814   6.968   5.279 -0.2096 -0.0774  0.3143
   14MOL    H89 1675   7.491   7.041   5.136  2.1682 -0.2206 -1.6606
   14MOL    H90 1676   7.522   6.997   5.296 -0.5031  1.2609  1.0599
   14MOL    H91 1677   7.679   6.892   5.114  0.4810 -0.0264  1.3155
   14MOL    C92 1678   7.760   7.080   5.028 -0.1965  0.0045  0.3421
   14MOL    C93 1679   7.658   7.117   4.920 -0.9659  0.9178 -0.0262
   14MOL   Cl94 1680   7.597   6.970   4.834  0.1955 -0.0338  0.5400
   14MOL    H95 1681   7.842   7.033   4.973  0.1528  0.3714  0.5529
   14MOL    H96 1682   7.804   7.166   5.078  0.6075 -0.2601  0.1066
   14MOL    H97 1683   7.575   7.178   4.956 -1.0565  1.2678 -0.7944
   14MOL    C98 1684   7.719   7.203   4.803  0.1414 -0.3120 -0.7280
   14MOL    C99 1685   7.754   7.345   4.854 -0.2176 -0.0966  0.1672
   14MOL  Cl100 1686   7.609   7.421   4.908 -0.5994 -0.0597 -0.0140
   14MOL   H101 1687   7.648   7.219   4.722  1.6893 -0.2659 -2.0871
   14MOL   H102 1688   7.805   7.151   4.763  1.3730 -1.2283  2.9146
   14MOL   H103 1689   7.825   7.348   4.937 -0.1786 -0.4685  0.1503
   14MOL   C104 1690   7.813   7.429   4.743  0.1418  0.1308 -0.4359
   14MOL   C105 1691   7.947   7.379   4.694 -0.7649 -0.3333  0.0024
   14MOL  Cl106 1692   8.066   7.398   4.821 -0.3144  0.3036 -0.0644
   14MOL   H107 1693   7.809   7.534   4.770  1.2806  0.4329 -1.4346
   14MOL   H108 1694   7.744   7.432   4.658  0.2943 -2.0695 -0.6683
   14MOL   H109 1695   7.955   7.277   4.654  0.2013 -0.4712  0.5372
   14MOL   C110 1696   7.993   7.474   4.576  0.3126  0.1162 -0.0303
   14MOL   C111 1697   8.103   7.421   4.475  0.7018 -0.2112  0.6460
   14MOL  Cl112 1698   8.249   7.371   4.564  0.0347 -0.0973 -0.0792
   14MOL   H113 1699   8.012   7.575   4.611 -0.1393 -0.1183  0.8954
   14MOL   H114 1700   7.907   7.490   4.510 -1.1024  1.4890  2.1030
   14MOL   H115 1701   8.062   7.328   4.434 -0.7622 -0.0900  1.7788
   14MOL   C116 1702   8.131   7.512   4.359 -0.4144 -0.2943 -0.0499
   14MOL   C117 1703   8.229   7.469   4.251 -0.3369  0.0745 -0.4116
   14MOL  Cl118 1704   8.153   7.330   4.161 -0.2823 -0.1657  0.2001
   14MOL   H119 1705   8.175   7.603   4.399  0.6078 -0.3752 -0.9291
   14MOL   H120 1706   8.039   7.549   4.313  0.5060 -1.0466 -2.6040
   14MOL   H121 1707   8.252   7.551   4.184 -3.1510  0.0981 -1.3917
   14MOL   H122 1708   8.320   7.437   4.302  0.9312  1.1419 -1.9831
   15MOL     C1 1709   0.885   5.293   4.146  0.3887  0.6008 -0.2066
   15MOL     C2 1710   0.987   5.387   4.211  0.7727  0.0911  0.2167
   15MOL    Cl3 1711   1.143   5.358   4.131  0.3006  0.1654 -0.2936
   15MOL     H4 1712   0.910   5.187   4.160  0.1731  0.6608  0.6744
   15MOL     H5 1713   0.782   5.299   4.182 -0.0534 -1.7096 -0.9984
   15MOL     H6 1714   0.968   5.492   4.189 -0.4644 -0.0875  0.4002
   15MOL     H7 1715   0.891   5.308   4.038  0.8333 -0.6321 -0.3631
   15MOL     C8 1716   0.988   5.355   4.357  0.2766  0.8179  0.5194
   15MOL     C9 1717   1.065   5.449   4.444 -0.1853 -0.5274  0.2739
   15MOL   Cl10 1718   1.105   5.372   4.596  0.1215  0.1806 -0.0540
   15MOL    H11 1719   1.015   5.250   4.366 -1.6727  0.1350 -1.0351
   15MOL    H12 1720   0.884   5.348   4.389 -0.5415  0.7541 -1.9877
   15MOL    H13 1721   1.162   5.471   4.398  1.0691 -0.6279  2.7802
   15MOL    C14 1722   0.993   5.585   4.451  0.3369 -0.0753 -0.6851
   15MOL    C15 1723   1.068   5.692   4.530 -0.0167 -0.3737 -0.0517
   15MOL   Cl16 1724   0.946   5.814   4.572 -0.0148  0.2890  0.1910
   15MOL    H17 1725   0.898   5.575   4.503  0.9656 -1.2078  0.2730
   15MOL    H18 1726   0.969   5.621   4.351  0.7894 -0.5454 -0.9690
   15MOL    H19 1727   1.114   5.653   4.620 -1.9393 -2.4349  0.1092
   15MOL    C20 1728   1.179   5.758   4.447 -0.0586  0.2074 -0.0701
   15MOL    C21 1729   1.295   5.837   4.511 -0.3330 -0.0805 -0.4202
   15MOL   Cl22 1730   1.409   5.729   4.612 -0.1657  0.0309  0.4290
   15MOL    H23 1731   1.126   5.829   4.383 -0.3546  2.6009  2.7272
   15MOL    H24 1732   1.232   5.687   4.384  1.8607 -0.3104  2.1041
   15MOL    H25 1733   1.353   5.880   4.430 -1.0088  1.0854 -0.2930
   15MOL    C26 1734   1.244   5.957   4.606 -0.6192  1.3419  0.6389
   15MOL    C27 1735   1.363   6.055   4.640 -0.0996  0.0061 -0.6855
   15MOL   Cl28 1736   1.330   6.125   4.800  0.2250 -0.2471  0.5267
   15MOL    H29 1737   1.183   5.920   4.688  1.6781 -2.4010  0.7595
   15MOL    H30 1738   1.159   6.005   4.558 -0.4827  0.2753 -0.6887
   15MOL    H31 1739   1.452   5.995   4.658 -0.9968 -1.0659  0.3304
   15MOL    C32 1740   1.371   6.163   4.534 -0.1926  0.2781  0.0239
   15MOL    C33 1741   1.511   6.231   4.528  0.3430 -0.3784  0.6840
   15MOL   Cl34 1742   1.619   6.112   4.460 -0.0104  0.1046 -0.2187
   15MOL    H35 1743   1.282   6.224   4.546 -0.4479 -0.0815 -0.0133
   15MOL    H36 1744   1.357   6.114   4.437  2.2414  2.0595 -1.2719
   15MOL    H37 1745   1.494   6.309   4.453 -0.2906 -0.7926  0.3851
   15MOL    C38 1746   1.576   6.301   4.645 -0.3746  0.4034 -0.1390
   15MOL    C39 1747   1.496   6.414   4.713 -0.6503 -1.0022 -0.2828
   15MOL   Cl40 1748   1.474   6.537   4.587  0.1546 -0.0314  0.5087
   15MOL    H41 1749   1.678   6.338   4.630 -0.7651  0.8251 -1.8419
   15MOL    H42 1750   1.587   6.223   4.720  2.3150  1.0269  0.1575
   15MOL    H43 1751   1.394   6.382   4.737 -0.8437 -1.3939 -1.5692
   15MOL    C44 1752   1.563   6.475   4.837 -0.1792  0.1231 -1.0099
   15MOL    C45 1753   1.497   6.598   4.897 -0.4830  1.2456  0.6859
   15MOL   Cl46 1754   1.613   6.664   5.018  0.3249  0.3656  0.0634
   15MOL    H47 1755   1.663   6.503   4.801  1.1972 -1.5346  1.3845
   15MOL    H48 1756   1.578   6.407   4.921  1.9948 -1.2169 -2.4466
   15MOL    H49 1757   1.469   6.673   4.823 -3.7176  0.2631  0.8747
   15MOL    C50 1758   1.363   6.563   4.966 -0.3978  0.5712  0.3859
   15MOL    C51 1759   1.267   6.671   5.028 -0.3002  0.0274 -0.2560
   15MOL   Cl52 1760   1.331   6.727   5.189 -0.3084  0.3824  0.2500
   15MOL    H53 1761   1.386   6.501   5.052 -0.0748  0.6606  0.3642
   15MOL    H54 1762   1.300   6.495   4.910  0.7539 -1.4235  1.4723
   15MOL    H55 1763   1.265   6.761   4.967  0.0073  1.6410  2.0592
   15MOL    C56 1764   1.122   6.629   5.040 -0.6403 -0.2662  0.8252
   15MOL    C57 1765   1.030   6.720   5.128 -0.5115 -0.2547 -0.3628
   15MOL   Cl58 1766   0.884   6.625   5.159  0.0310 -0.1160  0.1659
   15MOL    H59 1767   1.120   6.528   5.081 -0.6198 -0.8481 -0.5882
   15MOL    H60 1768   1.085   6.615   4.938  0.2546 -1.0123  0.5976
   15MOL    H61 1769   1.069   6.747   5.226 -1.1727 -0.4899 -0.0321
   15MOL    C62 1770   0.983   6.844   5.057 -0.3487 -0.0620  0.2030
   15MOL    C63 1771   0.912   6.959   5.148 -0.2480  0.5875  0.4210
   15MOL   Cl64 1772   0.775   7.043   5.072 -0.0975  0.1423  0.5683
   15MOL    H65 1773   0.917   6.815   4.976 -1.8038  0.8553  1.0510
   15MOL    H66 1774   1.063   6.891   4.999 -0.8682  0.6788  0.0773
   15MOL    H67 1775   0.867   6.899   5.227  1.1468  1.0173  1.5821
   15MOL    C68 1776   1.000   7.047   5.232 -0.8521 -0.1462  0.5367
   15MOL    C69 1777   1.081   7.141   5.143  0.0344  0.6083 -0.7123
   15MOL   Cl70 1778   1.225   7.050   5.092  0.2639 -0.4396 -0.1250
   15MOL    H71 1779   1.067   6.981   5.286 -0.2160 -0.8191 -1.0561
   15MOL    H72 1780   0.932   7.106   5.294 -2.9499 -0.8425 -1.0635
   15MOL    H73 1781   1.018   7.180   5.063 -0.9949 -0.4128 -0.4025
   15MOL    C74 1782   1.112   7.270   5.225 -0.1224 -0.0092 -0.5850
   15MOL    C75 1783   1.178   7.380   5.134 -0.2490  0.3871  0.1113
   15MOL   Cl76 1784   1.355   7.345   5.126  0.0144 -0.4341 -0.4265
   15MOL    H77 1785   1.172   7.267   5.316  1.7299 -2.3977 -1.8099
   15MOL    H78 1786   1.013   7.305   5.252  0.2955  0.0074  0.9640
   15MOL    H79 1787   1.148   7.380   5.029 -0.8730 -0.1038  0.2843
   15MOL    C80 1788   1.161   7.521   5.196 -0.1010 -0.1208 -0.6687
   15MOL    C81 1789   1.031   7.586   5.168  0.4490  0.4075 -0.3873
   15MOL   Cl82 1790   1.009   7.625   4.995 -0.5249 -0.1392 -0.2101
   15MOL    H83 1791   1.238   7.585   5.152 -0.8994  0.9870 -0.4904
   15MOL    H84 1792   1.193   7.511   5.300 -0.1513  2.8647 -0.3019
   15MOL    H85 1793   0.957   7.506   5.171  0.4564  0.4051 -0.2542
   15MOL    C86 1794   0.986   7.700   5.259  0.0510  0.1099 -0.4507
   15MOL    C87 1795   0.849   7.752   5.243  0.0956  0.2474 -0.1782
   15MOL   Cl88 1796   0.831   7.894   5.339 -0.2710 -0.4082  0.0261
   15MOL    H89 1797   1.059   7.777   5.233 -1.5336  1.4572 -0.9471
   15MOL    H90 1798   1.005   7.681   5.365 -0.1226 -1.3142 -0.6729
   15MOL    H91 1799   0.847   7.778   5.137 -0.1814  0.0321 -0.2255
   15MOL    C92 1800   0.732   7.666   5.270 -0.1398  0.1060  0.3615
   15MOL    C93 1801   0.727   7.613   5.409 -0.5757  0.8863  0.2423
   15MOL   Cl94 1802   0.855   7.480   5.419  0.3945  0.1187  0.2290
   15MOL    H95 1803   0.729   7.587   5.195  0.5651 -1.6320  2.1096
   15MOL    H96 1804   0.639   7.723   5.263 -1.2045 -1.8040 -2.0953
   15MOL    H97 1805   0.759   7.691   5.478  1.0404 -1.5504  2.3653
   15MOL    C98 1806   0.593   7.562   5.461 -0.7371  0.7683 -0.7482
   15MOL    C99 1807   0.592   7.564   5.624  0.4084 -0.9268  0.7199
   15MOL  Cl100 1808   0.449   7.466   5.669  0.0128 -0.2576  0.1652
   15MOL   H101 1809   0.570   7.463   5.421  1.1270 -0.0128  0.0404
   15MOL   H102 1810   0.511   7.617   5.416  0.2160  0.2647 -3.1863
   15MOL   H103 1811   0.677   7.509   5.663  0.3342 -1.3680  0.2628
   15MOL   C104 1812   0.573   7.711   5.668  0.6132  0.0222 -0.9227
   15MOL   C105 1813   0.546   7.740   5.822  1.0787 -0.1483 -0.1871
   15MOL  Cl106 1814   0.524   7.915   5.842  0.1365  0.2266 -0.3083
   15MOL   H107 1815   0.505   7.773   5.609  0.5165  1.1185  0.3267
   15MOL   H108 1816   0.666   7.762   5.645  0.4116  0.7916 -0.0761
   15MOL   H109 1817   0.446   7.697   5.837  0.4162  0.5477 -2.4161
   15MOL   C110 1818   0.656   7.672   5.912  0.5722 -0.1897  0.1695
   15MOL   C111 1819   0.677   7.718   6.056  0.6757 -0.1721  0.1576
   15MOL  Cl112 1820   0.808   7.619   6.139  0.0653  0.1670 -0.1324
   15MOL   H113 1821   0.757   7.692   5.877  0.9544 -1.1797  0.6803
   15MOL   H114 1822   0.650   7.564   5.900 -0.2169  0.0570 -1.7465
   15MOL   H115 1823   0.704   7.824   6.049 -0.6699  0.0799 -1.5736
   15MOL   C116 1824   0.542   7.717   6.130 -0.1750  0.6164 -0.0964
   15MOL   C117 1825   0.538   7.766   6.279  0.5019  0.0255  0.4322
   15MOL  Cl118 1826   0.498   7.933   6.293  0.0809 -0.3041 -0.0382
   15MOL   H119 1827   0.505   7.615   6.117 -0.1824  0.5045  0.7572
   15MOL   H120 1828   0.470   7.779   6.076  0.5731  1.2523 -0.3699
   15MOL   H121 1829   0.473   7.709   6.345 -1.0751 -1.0296 -1.9652
   15MOL   H122 1830   0.639   7.754   6.318  1.3337  0.8708 -1.3898
   16MOL     C1 1831   1.034   4.368   4.985  0.0938  0.2270  0.2698
   16MOL     C2 1832   0.888   4.389   4.959  0.2099 -0.3108 -0.2699
   16MOL    Cl3 1833   0.821   4.225   4.977 -0.0597 -0.0172  0.1205
   16MOL     H4 1834   1.069   4.309   4.900 -0.5173  0.1937  0.0444
   16MOL     H5 1835   1.090   4.461   4.980  0.5039 -0.1039 -1.7664
   16MOL     H6 1836   0.837   4.459   5.026 -0.5690 -0.6720 -0.4739
   16MOL     H7 1837   1.039   4.320   5.083 -1.1103  2.3587  1.3957
   16MOL     C8 1838   0.871   4.439   4.816  0.0389 -0.7805 -0.1389
   16MOL     C9 1839   0.885   4.593   4.793 -0.3189 -0.4291  0.1195
   16MOL   Cl10 1840   0.762   4.685   4.883  0.1208 -0.2479 -0.1599
   16MOL    H11 1841   0.776   4.419   4.768 -1.3166  1.2214  1.6318
   16MOL    H12 1842   0.943   4.387   4.752  0.4604  0.1492 -0.4258
   16MOL    H13 1843   0.978   4.620   4.844  0.2897 -1.3688 -0.4896
   16MOL    C14 1844   0.886   4.635   4.641 -0.0939  1.2255 -0.1265
   16MOL    C15 1845   0.964   4.762   4.613  0.2831  0.1317 -0.3493
   16MOL   Cl16 1846   1.131   4.735   4.667 -0.0336 -0.1997 -0.3023
   16MOL    H17 1847   0.783   4.644   4.605 -0.3833 -2.3205 -0.3987
   16MOL    H18 1848   0.916   4.546   4.585 -0.3677  0.5159  0.8494
   16MOL    H19 1849   0.959   4.763   4.504 -0.1669 -1.1730 -0.3448
   16MOL    C20 1850   0.902   4.895   4.657 -0.1436 -0.0909 -0.6278
   16MOL    C21 1851   0.760   4.936   4.593  0.0188  0.3524 -0.3099
   16MOL   Cl22 1852   0.790   4.968   4.419  0.2224 -0.0399 -0.0225
   16MOL    H23 1853   0.976   4.974   4.644  0.2884 -0.4262 -0.2326
   16MOL    H24 1854   0.890   4.882   4.765  2.1546  0.5258 -0.2579
   16MOL    H25 1855   0.692   4.851   4.599 -0.4266  0.6341 -1.2670
   16MOL    C26 1856   0.708   5.063   4.670  0.3416  0.1264  0.5982
   16MOL    C27 1857   0.556   5.080   4.663 -0.5201 -0.2477 -0.5205
   16MOL   Cl28 1858   0.515   5.107   4.494 -0.2805  0.2106 -0.1676
   16MOL    H29 1859   0.758   5.152   4.631 -1.2630  0.5340 -0.5461
   16MOL    H30 1860   0.735   5.050   4.775  0.7862 -1.4156  0.3082
   16MOL    H31 1861   0.503   4.989   4.693  2.3266 -1.2012  1.8503
   16MOL    C32 1862   0.516   5.210   4.737  0.4674 -0.4813 -0.1522
   16MOL    C33 1863   0.493   5.193   4.888 -0.4024  0.2969  0.3478
   16MOL   Cl34 1864   0.366   5.062   4.917  0.2658 -0.2224 -0.0534
   16MOL    H35 1865   0.417   5.229   4.696  0.3054  0.2947  0.5685
   16MOL    H36 1866   0.582   5.295   4.718 -2.0738  1.1024 -2.1725
   16MOL    H37 1867   0.584   5.176   4.945 -0.9651  0.6350  1.3511
   16MOL    C38 1868   0.426   5.323   4.939  1.0871 -0.2456 -0.1670
   16MOL    C39 1869   0.449   5.341   5.098 -0.0393 -0.1851 -0.4393
   16MOL   Cl40 1870   0.619   5.369   5.130 -0.1328 -0.0565 -0.2871
   16MOL    H41 1871   0.322   5.317   4.906  0.8715 -2.6311  0.8202
   16MOL    H42 1872   0.469   5.406   4.884  1.6907 -1.0971 -0.9973
   16MOL    H43 1873   0.402   5.437   5.119 -1.6457 -0.9930 -0.3046
   16MOL    C44 1874   0.402   5.237   5.199  0.4632 -0.2966 -0.7894
   16MOL    C45 1875   0.253   5.213   5.191  0.4109  0.0553  0.3076
   16MOL   Cl46 1876   0.175   5.369   5.248 -0.4708  0.1498  0.0585
   16MOL    H47 1877   0.424   5.265   5.302 -0.2546  2.6875 -1.4232
   16MOL    H48 1878   0.454   5.142   5.181  0.1182 -0.4681 -0.8820
   16MOL    H49 1879   0.226   5.207   5.085  1.0352  0.9289  0.0884
   16MOL    C50 1880   0.215   5.089   5.270  0.1894 -0.1551  0.1051
   16MOL    C51 1881   0.075   5.040   5.237  0.4494  0.2140  0.1777
   16MOL   Cl52 1882   0.050   5.033   5.062  0.0309 -0.0533  0.0620
   16MOL    H53 1883   0.234   5.095   5.377 -1.3021 -2.0313  0.5040
   16MOL    H54 1884   0.279   5.005   5.241 -0.6314 -1.4163  1.8187
   16MOL    H55 1885   0.078   4.936   5.268  0.8742  0.3290  0.5269
   16MOL    C56 1886   8.485   5.110   5.309  0.7261 -0.1001 -0.4550
   16MOL    C57 1887   8.350   5.036   5.330  0.2998  0.1349  0.4460
   16MOL   Cl58 1888   8.374   4.866   5.400 -0.3955  0.0398  0.0554
   16MOL    H59 1889   8.463   5.209   5.269 -0.8529  1.1617  3.3523
   16MOL    H60 1890   8.521   5.130   5.410  0.3593  2.8720 -0.8444
   16MOL    H61 1891   8.297   5.101   5.399  0.5598  0.3920  0.4084
   16MOL    C62 1892   8.263   5.023   5.207  0.6663  0.1833  0.2938
   16MOL    C63 1893   8.125   4.949   5.224  0.3303 -0.2929  0.1619
   16MOL   Cl64 1894   8.048   4.950   5.066 -0.0846  0.0612 -0.0548
   16MOL    H65 1895   8.325   4.962   5.141 -1.7993 -2.4136  0.2785
   16MOL    H66 1896   8.252   5.121   5.160  3.1290  0.3474  0.0180
   16MOL    H67 1897   8.145   4.843   5.241 -0.7370 -0.4548  0.4595
   16MOL    C68 1898   8.040   5.014   5.333 -0.1746 -0.5258 -0.0100
   16MOL    C69 1899   7.898   4.967   5.364 -0.0736  0.1286  0.5537
   16MOL   Cl70 1900   7.828   5.041   5.509  0.3343  0.0790 -0.4035
   16MOL    H71 1901   8.039   5.123   5.323  2.6206 -0.4170  0.3789
   16MOL    H72 1902   8.092   5.013   5.429 -0.9631  0.8412  0.4483
   16MOL    H73 1903   7.823   4.981   5.286  0.1667 -2.3192 -0.1619
   16MOL    C74 1904   7.894   4.812   5.381 -0.3861 -0.4520 -0.4752
   16MOL    C75 1905   7.757   4.739   5.354 -0.1261 -0.4461 -0.1596
   16MOL   Cl76 1906   7.771   4.577   5.419 -0.0675  0.0821 -0.2913
   16MOL    H77 1907   7.920   4.796   5.486 -1.7570 -0.5727 -0.1480
   16MOL    H78 1908   7.965   4.757   5.319  2.2567  2.0696  0.2043
   16MOL    H79 1909   7.680   4.787   5.414 -0.2134  0.5125 -1.0177
   16MOL    C80 1910   7.697   4.726   5.209  0.5944 -0.3652 -0.6987
   16MOL    C81 1911   7.630   4.847   5.139 -0.1837  0.2957 -0.5515
   16MOL   Cl82 1912   7.509   4.920   5.249  0.0824 -0.2701  0.4347
   16MOL    H83 1913   7.622   4.647   5.218 -0.0698  0.1485 -1.6078
   16MOL    H84 1914   7.775   4.696   5.140  1.0678 -1.6899  0.3851
   16MOL    H85 1915   7.699   4.930   5.121  0.7307  0.2761  2.6701
   16MOL    C86 1916   7.563   4.811   5.010 -0.0874 -0.4143 -0.1030
   16MOL    C87 1917   7.645   4.762   4.889  0.4629 -0.0638 -0.1725
   16MOL   Cl88 1918   7.705   4.906   4.815  0.1243 -0.0794  0.4883
   16MOL    H89 1919   7.508   4.899   4.977  0.8124 -0.2714 -1.2510
   16MOL    H90 1920   7.492   4.733   5.039 -0.6230  0.7185  1.6858
   16MOL    H91 1921   7.731   4.698   4.908 -0.3486 -1.0855  0.0889
   16MOL    C92 1922   7.552   4.693   4.782 -0.2037 -0.4046 -0.5210
   16MOL    C93 1923   7.502   4.560   4.829 -0.4582 -0.0132  0.7998
   16MOL   Cl94 1924   7.640   4.473   4.895 -0.2686  0.3462  0.3318
   16MOL    H95 1925   7.608   4.687   4.689 -1.3186 -0.5474 -1.1769
   16MOL    H96 1926   7.467   4.756   4.756 -1.7923 -0.9086  3.0971
   16MOL    H97 1927   7.427   4.584   4.905  0.8851  0.8833  1.8626
   16MOL    C98 1928   7.427   4.480   4.718  0.5280  0.2954 -0.2998
   16MOL    C99 1929   7.477   4.476   4.575 -0.2394 -0.0679 -0.6392
   16MOL  Cl100 1930   7.652   4.436   4.559 -0.1546 -0.3613  0.0801
   16MOL   H101 1931   7.326   4.521   4.719 -0.0117 -0.9935 -0.0892
   16MOL   H102 1932   7.419   4.381   4.764  2.3623  0.3483  0.1565
   16MOL   H103 1933   7.430   4.387   4.533 -0.3460 -0.4982  0.3906
   16MOL   C104 1934   7.453   4.595   4.477  0.2307 -1.0070 -0.0740
   16MOL   C105 1935   7.319   4.602   4.395 -0.5655  0.1000 -0.7073
   16MOL  Cl106 1936   7.316   4.466   4.283 -0.0694 -0.0049  0.4997
   16MOL   H107 1937   7.527   4.594   4.397  0.2292 -1.1420 -0.0733
   16MOL   H108 1938   7.482   4.686   4.530 -0.2241 -1.1796  0.4779
   16MOL   H109 1939   7.243   4.592   4.473  1.7832  1.2971  1.8384
   16MOL   C110 1940   7.299   4.723   4.301  0.3140  0.5768 -0.4847
   16MOL   C111 1941   7.319   4.863   4.365  0.0107  0.0740 -0.2356
   16MOL  Cl112 1942   7.171   4.893   4.467  0.0526  0.5916 -0.2949
   16MOL   H113 1943   7.201   4.715   4.254 -0.9149  1.5238  1.8479
   16MOL   H114 1944   7.381   4.716   4.229  0.3123 -1.9083 -0.2690
   16MOL   H115 1945   7.403   4.868   4.434 -0.4095 -0.0775  0.2986
   16MOL   C116 1946   7.336   4.969   4.263  0.3766 -0.0663 -0.1679
   16MOL   C117 1947   7.209   5.003   4.188 -0.2887 -0.1905 -0.2406
   16MOL  Cl118 1948   7.204   4.912   4.033 -0.2199 -0.3933  0.3684
   16MOL   H119 1949   7.415   4.954   4.190  0.9632  1.1662  0.2078
   16MOL   H120 1950   7.369   5.056   4.320 -1.2972 -0.3282  1.2567
   16MOL   H121 1951   7.112   5.010   4.236 -0.4585  3.6459 -0.9541
   16MOL   H122 1952   7.210   5.106   4.152 -0.8481  0.7587  2.3740
   17MOL     C1 1953   4.420   8.082   2.231  0.5563 -0.7465  0.2505
   17MOL     C2 1954   4.332   8.085   2.355  0.0386 -0.3280  0.1355
   17MOL    Cl3 1955   4.440   8.077   2.499 -0.2935 -0.3670  0.0778
   17MOL     H4 1956   4.489   8.167   2.238 -2.0511  1.3533  1.3193
   17MOL     H5 1957   4.472   7.986   2.232 -1.5498 -1.9941 -2.6040
   17MOL     H6 1958   4.275   8.177   2.370  0.7327  0.2675 -0.8142
   17MOL     H7 1959   4.376   8.083   2.131 -0.1547  1.8056  0.5523
   17MOL     C8 1960   4.238   7.965   2.363 -0.2346 -0.1441 -0.0917
   17MOL     C9 1961   4.117   7.974   2.271  0.3925  0.5875 -0.2856
   17MOL   Cl10 1962   4.013   8.112   2.311  0.3303 -0.3700 -0.4427
   17MOL    H11 1963   4.198   7.961   2.464 -0.7366  1.2279 -0.2235
   17MOL    H12 1964   4.296   7.879   2.328  0.7997  1.7448 -3.2106
   17MOL    H13 1965   4.155   7.981   2.168 -1.3180  0.6368 -0.9208
   17MOL    C14 1966   4.027   7.852   2.280 -0.1142  0.4299  0.0964
   17MOL    C15 1967   4.065   7.728   2.192  0.3272  0.5957  0.8138
   17MOL   Cl16 1968   4.071   7.775   2.022 -0.0298 -0.1778 -0.0586
   17MOL    H17 1969   3.927   7.885   2.251 -0.5784 -0.8968  0.1505
   17MOL    H18 1970   4.008   7.822   2.383 -1.3748 -1.1309 -0.5620
   17MOL    H19 1971   4.166   7.704   2.223  1.1498  0.9057 -1.5334
   17MOL    C20 1972   3.968   7.600   2.208  0.5935  0.6427 -0.7176
   17MOL    C21 1973   3.943   7.537   2.347  0.7000  0.3829 -0.6100
   17MOL   Cl22 1974   3.827   7.635   2.437 -0.5678  0.1767  0.1676
   17MOL    H23 1975   4.015   7.526   2.143 -1.3885 -1.2982  0.0405
   17MOL    H24 1976   3.877   7.613   2.150  0.5518  1.0475 -0.5654
   17MOL    H25 1977   3.879   7.453   2.322  1.8351 -0.7540  0.2624
   17MOL    C26 1978   4.068   7.498   2.432  0.5951  0.2730 -0.1610
   17MOL    C27 1979   4.157   7.390   2.368  0.0268  0.5770  0.6409
   17MOL   Cl28 1980   4.058   7.248   2.323  0.3963 -0.5055  0.3904
   17MOL    H29 1981   4.039   7.476   2.534 -0.8990  2.1539 -0.1561
   17MOL    H30 1982   4.137   7.582   2.436 -0.7417  1.2885  2.0229
   17MOL    H31 1983   4.199   7.429   2.276 -0.5317  0.8437  0.4948
   17MOL    C32 1984   4.276   7.346   2.460  0.2952  0.1063  0.6298
   17MOL    C33 1985   4.389   7.443   2.486 -0.3449  0.7301  0.1970
   17MOL   Cl34 1986   4.351   7.585   2.587  0.3247  0.3171  0.3273
   17MOL    H35 1987   4.325   7.271   2.398  0.0536 -0.2814  0.9106
   17MOL    H36 1988   4.237   7.307   2.554  1.6763  0.3610  1.3142
   17MOL    H37 1989   4.465   7.385   2.539  0.1208  1.6168  0.5255
   17MOL    C38 1990   4.455   7.496   2.356 -0.3861  0.4380  0.1209
   17MOL    C39 1991   4.556   7.400   2.288 -0.7004  0.3914  0.2361
   17MOL   Cl40 1992   4.705   7.376   2.383  0.4499 -0.1213 -0.1750
   17MOL    H41 1993   4.511   7.585   2.383  1.5370 -1.3786  2.3388
   17MOL    H42 1994   4.378   7.529   2.286  3.4716 -0.4451 -4.7514
   17MOL    H43 1995   4.503   7.306   2.272  2.7521 -1.5593 -0.0174
   17MOL    C44 1996   4.610   7.443   2.149  0.1446 -0.0126  1.0043
   17MOL    C45 1997   4.502   7.446   2.038 -0.3785 -0.4327  0.2490
   17MOL   Cl46 1998   4.429   7.285   2.020  0.5266 -0.3291  0.0081
   17MOL    H47 1999   4.693   7.383   2.111 -0.2736  0.0846 -0.0921
   17MOL    H48 2000   4.646   7.545   2.157 -0.5565  0.2871  0.4046
   17MOL    H49 2001   4.413   7.506   2.058 -0.4621 -0.6361  0.4831
   17MOL    C50 2002   4.559   7.487   1.896  0.1017  0.5340  0.3967
   17MOL    C51 2003   4.597   7.641   1.891  0.3103  0.2964 -0.3548
   17MOL   Cl52 2004   4.472   7.742   1.962  0.0357  0.3842 -0.3118
   17MOL    H53 2005   4.496   7.455   1.813  2.5563 -2.0226 -0.5876
   17MOL    H54 2006   4.653   7.436   1.874 -0.8558 -0.9641 -0.3394
   17MOL    H55 2007   4.696   7.655   1.934 -0.6154  1.6030  1.4094
   17MOL    C56 2008   4.616   7.672   1.736  0.3849 -0.7131  0.0436
   17MOL    C57 2009   4.641   7.822   1.702 -0.0922 -0.5934 -0.0306
   17MOL   Cl58 2010   4.596   7.845   1.531 -0.3752  0.3335 -0.4286
   17MOL    H59 2011   4.521   7.638   1.692  0.4295 -2.7438  1.4569
   17MOL    H60 2012   4.693   7.604   1.701  0.7300 -0.3472  0.0944
   17MOL    H61 2013   4.584   7.891   1.766 -2.8208 -0.4138 -2.5491
   17MOL    C62 2014   4.795   7.847   1.712 -0.5171  0.9168 -0.1226
   17MOL    C63 2015   4.851   7.984   1.661 -0.7053 -0.4549 -0.2896
   17MOL   Cl64 2016   5.024   7.962   1.660  0.7525 -0.1959  0.2134
   17MOL    H65 2017   4.841   7.766   1.655 -3.3672 -0.7084 -0.1864
   17MOL    H66 2018   4.824   7.839   1.817  0.6380  1.8176 -0.3649
   17MOL    H67 2019   4.822   8.007   1.558  0.2049  0.2507 -0.3951
   17MOL    C68 2020   4.817   8.101   1.759  0.4137  0.1650 -0.1379
   17MOL    C69 2021   4.891   8.235   1.731 -0.0922  0.4276 -0.3320
   17MOL   Cl70 2022   4.892   8.346   1.862  0.1925 -0.0181  0.2549
   17MOL    H71 2023   4.855   8.074   1.858 -0.9332  2.4359  1.0443
   17MOL    H72 2024   4.709   8.100   1.776 -0.1021 -1.2581 -3.2796
   17MOL    H73 2025   4.992   8.205   1.705 -0.6783 -1.1538 -0.8232
   17MOL    C74 2026   4.849   8.310   1.597  0.0314 -0.4030  0.8099
   17MOL    C75 2027   4.948   8.410   1.539  0.1607  0.4436  0.1434
   17MOL   Cl76 2028   4.859   0.001   1.430  0.0325  0.0044 -0.1019
   17MOL    H77 2029   4.761   8.365   1.628 -0.4542 -0.4247 -0.5032
   17MOL    H78 2030   4.835   8.236   1.517  1.9265 -0.7666  0.7675
   17MOL    H79 2031   4.985   8.471   1.622 -1.4326  0.8334  0.5768
   17MOL    C80 2032   5.061   8.338   1.460  0.1035 -0.4726 -0.1716
   17MOL    C81 2033   5.191   8.297   1.532 -0.5287  0.1385  0.1173
   17MOL   Cl82 2034   5.248   8.456   1.594  0.3291 -0.3078  0.0540
   17MOL    H83 2035   5.089   8.420   1.394  0.9486  0.9868  1.9567
   17MOL    H84 2036   5.013   8.268   1.391 -4.4559  2.7185 -0.4426
   17MOL    H85 2037   5.180   8.236   1.621  1.1546  0.7158  0.7480
   17MOL    C86 2038   5.290   8.245   1.430 -0.2575  0.2867  0.2060
   17MOL    C87 2039   5.412   8.174   1.490 -0.1309  0.1142  0.0336
   17MOL   Cl88 2040   5.357   8.021   1.566  0.1734 -0.4184  0.3732
   17MOL    H89 2041   5.326   8.333   1.376 -1.0310  0.2965 -0.2913
   17MOL    H90 2042   5.239   8.182   1.357  2.6153 -1.6340 -0.2336
   17MOL    H91 2043   5.472   8.136   1.407  1.0057 -0.7049  1.2040
   17MOL    C92 2044   5.505   8.257   1.587 -0.1608  0.3724  0.5498
   17MOL    C93 2045   5.577   8.377   1.523 -0.5286  0.0902 -0.0095
   17MOL   Cl94 2046   5.683   8.304   1.401  0.3325  0.4475  0.1364
   17MOL    H95 2047   5.575   8.184   1.628 -0.7785 -1.4417 -1.4913
   17MOL    H96 2048   5.450   8.290   1.676  0.0009 -0.6458  1.0346
   17MOL    H97 2049   5.507   8.433   1.461  1.2505  1.1675 -1.1289
   17MOL    C98 2050   5.658   8.468   1.617  0.9289 -0.4907  0.3177
   17MOL    C99 2051   5.784   8.394   1.690  0.5129 -0.2803 -0.2530
   17MOL  Cl100 2052   5.727   8.312   1.832 -0.2368  0.3195 -0.2209
   17MOL   H101 2053   5.591   8.510   1.691  3.3695  2.2946  1.0653
   17MOL   H102 2054   5.700   0.017   1.549  3.5191 -0.7660  1.5809
   17MOL   H103 2055   5.824   8.329   1.612  0.7439 -0.0117 -0.3641
   17MOL   C104 2056   5.891   8.500   1.730  0.0494 -0.5470 -0.3945
   17MOL   C105 2057   5.977   0.057   1.626  0.0119 -0.5976 -0.5189
   17MOL  Cl106 2058   6.068   8.478   1.504 -0.2950  0.1872  0.1306
   17MOL   H107 2059   5.955   8.436   1.791 -2.7035 -3.3741 -0.2832
   17MOL   H108 2060   5.849   0.047   1.799  0.3662  2.2422 -3.0594
   17MOL   H109 2061   5.908   0.110   1.560 -0.7889 -0.2392  0.5908
   17MOL   C110 2062   6.067   0.170   1.695  0.3409 -0.5499  0.0959
   17MOL   C111 2063   6.091   0.291   1.600  0.1126  0.1818  1.0763
   17MOL  Cl112 2064   6.213   0.265   1.470  0.3498  0.4250  0.2659
   17MOL   H113 2065   6.156   0.113   1.723  2.4150  1.5833 -1.9506
   17MOL   H114 2066   6.023   0.201   1.789  0.8940  0.7827 -0.0723
   17MOL   H115 2067   5.998   0.317   1.550  0.6526 -0.2839 -0.1782
   17MOL   C116 2068   6.127   0.421   1.667 -0.4013  0.0680 -0.0211
   17MOL   C117 2069   6.274   0.411   1.732  0.4761 -0.1708 -0.2050
   17MOL  Cl118 2070   6.299   0.571   1.812 -0.0714  0.1904  0.3380
   17MOL   H119 2071   6.050   0.454   1.737 -1.1791  0.3623 -1.0058
   17MOL   H120 2072   6.131   0.503   1.594  1.5662 -0.5507 -0.6398
   17MOL   H121 2073   6.267   0.331   1.805  1.1178 -1.2517 -1.3187
   17MOL   H122 2074   6.344   0.369   1.660 -1.1553 -1.5709 -1.0282
   18MOL     C1 2075   7.255   4.443   7.770 -0.1798 -0.4979  0.3176
   18MOL     C2 2076   7.233   4.318   7.679 -0.0821  0.1449  0.5026
   18MOL    Cl3 2077   7.326   4.184   7.748 -0.0824  0.2499  0.0610
   18MOL     H4 2078   7.192   4.530   7.751 -0.9422 -1.0619  0.2196
   18MOL     H5 2079   7.237   4.404   7.870 -0.3904  0.9462  0.8608
   18MOL     H6 2080   7.130   4.283   7.685  0.0513 -0.0599  1.5706
   18MOL     H7 2081   7.358   4.479   7.771 -0.6468  1.1045 -3.5084
   18MOL     C8 2082   7.282   4.335   7.531  0.3069 -0.9184  1.0666
   18MOL     C9 2083   7.248   4.470   7.467 -0.4476  0.4335 -0.1733
   18MOL   Cl10 2084   7.068   4.482   7.465 -0.1781  0.1295  0.2543
   18MOL    H11 2085   7.234   4.252   7.479  0.5886 -0.7208  0.4779
   18MOL    H12 2086   7.390   4.328   7.537  0.3735 -1.2087 -0.3658
   18MOL    H13 2087   7.291   4.545   7.534  0.3031 -1.6427  1.7542
   18MOL    C14 2088   7.310   4.479   7.327 -0.0142  0.4553 -0.1505
   18MOL    C15 2089   7.289   4.617   7.248  0.1064  0.5439 -0.0488
   18MOL   Cl16 2090   7.194   4.582   7.099  0.1887  0.0625  0.2819
   18MOL    H17 2091   7.264   4.400   7.267  1.1987 -1.3050  1.2030
   18MOL    H18 2092   7.415   4.450   7.332  0.6503  2.5813 -0.9609
   18MOL    H19 2093   7.231   4.698   7.291  1.3386  1.0011  0.7789
   18MOL    C20 2094   7.429   4.666   7.195 -0.1073 -0.2529 -0.0874
   18MOL    C21 2095   7.530   4.701   7.306  0.3643 -1.0936 -0.1310
   18MOL   Cl22 2096   7.450   4.826   7.409  0.0111 -0.0716  0.1006
   18MOL    H23 2097   7.415   4.755   7.133  2.3756  1.2241  1.3602
   18MOL    H24 2098   7.486   4.595   7.136 -0.0393  0.5419 -0.9969
   18MOL    H25 2099   7.546   4.616   7.373  0.0456 -0.1147  1.2019
   18MOL    C26 2100   7.663   4.754   7.234 -0.1335 -0.5463 -0.3320
   18MOL    C27 2101   7.770   4.811   7.327  0.3317  0.1224 -0.6664
   18MOL   Cl28 2102   7.907   4.825   7.217 -0.1327 -0.1846  0.2038
   18MOL    H29 2103   7.642   4.824   7.152  0.5550 -2.0085 -1.7714
   18MOL    H30 2104   7.712   4.667   7.193 -2.5239 -1.5457 -1.1773
   18MOL    H31 2105   7.761   4.916   7.355  2.2389  0.1278  0.0201
   18MOL    C32 2106   7.796   4.733   7.461  0.2932 -0.3221 -0.1982
   18MOL    C33 2107   7.876   4.809   7.570  0.0920 -0.6677  0.3027
   18MOL   Cl34 2108   7.789   4.955   7.622 -0.3254  0.4128 -0.0980
   18MOL    H35 2109   7.847   4.642   7.427  1.5078  0.5868 -0.8369
   18MOL    H36 2110   7.700   4.704   7.504 -2.0890  2.4922 -3.3384
   18MOL    H37 2111   7.888   4.738   7.652 -1.1947  2.4122  3.2784
   18MOL    C38 2112   8.019   4.860   7.530  0.3915  0.3333 -0.2077
   18MOL    C39 2113   8.124   4.753   7.517 -0.2875  0.0950  0.1247
   18MOL   Cl40 2114   8.148   4.673   7.674  0.5483  0.2874 -0.1533
   18MOL    H41 2115   8.060   4.930   7.602  0.6958 -1.3877  1.3184
   18MOL    H42 2116   8.028   4.919   7.438 -0.3340  0.9882  0.1317
   18MOL    H43 2117   8.079   4.677   7.454 -1.4113  0.8538 -0.0140
   18MOL    C44 2118   8.262   4.784   7.445 -0.1803  0.1879 -0.7440
   18MOL    C45 2119   8.366   4.678   7.434 -0.1927  0.2895 -0.4836
   18MOL   Cl46 2120   8.507   4.742   7.347 -0.0994 -0.0212 -0.1554
   18MOL    H47 2121   8.313   4.868   7.493  2.2321 -1.6047 -0.0628
   18MOL    H48 2122   8.240   4.817   7.344  0.5886 -1.3621 -1.4234
   18MOL    H49 2123   8.399   4.663   7.537 -1.7353 -1.4871 -0.2374
   18MOL    C50 2124   8.315   4.553   7.378  0.3057 -0.4681 -0.0655
   18MOL    C51 2125   8.419   4.439   7.378 -0.3432 -0.4518 -0.0341
   18MOL   Cl52 2126   8.350   4.309   7.283 -0.6496  0.0445 -0.5536
   18MOL    H53 2127   8.273   4.569   7.278 -0.0098  1.1193  0.3076
   18MOL    H54 2128   8.226   4.520   7.433  1.0776  0.5683  1.8602
   18MOL    H55 2129   8.508   4.464   7.320 -2.4736 -0.9141 -3.6295
   18MOL    C56 2130   8.453   4.386   7.516  0.0925 -0.0286  0.2055
   18MOL    C57 2131   0.015   4.260   7.518 -0.0789 -0.1259  0.2655
   18MOL   Cl58 2132   0.035   4.223   7.689 -0.1002 -0.1914 -0.3067
   18MOL    H59 2133   8.364   4.371   7.577  1.2391 -1.9089  1.4539
   18MOL    H60 2134   8.491   4.467   7.578 -2.2651  1.2351  0.0860
   18MOL    H61 2135   8.503   4.165   7.479 -0.3180 -0.2003  0.6715
   18MOL    C62 2136   0.157   4.289   7.457  0.2592  0.1586  0.5859
   18MOL    C63 2137   0.264   4.181   7.477 -0.3071 -0.2406  0.4208
   18MOL   Cl64 2138   0.416   4.258   7.423  0.5573  0.5828 -0.0685
   18MOL    H65 2139   0.198   4.376   7.509  1.4162 -1.0712  1.7939
   18MOL    H66 2140   0.139   4.300   7.350 -0.1966  0.5830  0.7035
   18MOL    H67 2141   0.285   4.150   7.579 -0.8244 -1.2538  0.2197
   18MOL    C68 2142   0.247   4.064   7.388  0.0977 -0.5859 -0.1133
   18MOL    C69 2143   0.305   3.929   7.432 -0.5924 -0.2590  1.1884
   18MOL   Cl70 2144   0.484   3.929   7.427 -0.1818  0.0269  0.4832
   18MOL    H71 2145   0.282   4.099   7.291  0.8979 -1.1469 -0.0386
   18MOL    H72 2146   0.139   4.059   7.374  0.0726 -1.0992  0.2459
   18MOL    H73 2147   0.281   3.903   7.535 -0.8032 -1.4488  0.8579
   18MOL    C74 2148   0.266   3.804   7.355  0.1672 -0.0267 -1.0708
   18MOL    C75 2149   0.114   3.778   7.344  0.0150 -0.2159 -0.2596
   18MOL   Cl76 2150   0.022   3.808   7.494 -0.3223  0.3046  0.2491
   18MOL    H77 2151   0.306   3.715   7.406 -0.5036 -0.2541 -0.9308
   18MOL    H78 2152   0.320   3.800   7.261  0.6329 -0.9730 -0.7798
   18MOL    H79 2153   0.074   3.842   7.266 -0.2719  1.3026  1.1270
   18MOL    C80 2154   0.095   3.632   7.294 -0.4399  0.0259 -0.0422
   18MOL    C81 2155   8.478   3.565   7.264 -0.4805  0.0144 -0.1780
   18MOL   Cl82 2156   8.500   3.421   7.157  0.0792 -0.1701  0.4349
   18MOL    H83 2157   0.147   3.562   7.361  1.3618  2.6952  1.4418
   18MOL    H84 2158   0.155   3.637   7.203  2.0285  0.9084  1.5783
   18MOL    H85 2159   8.435   3.538   7.361 -0.9285 -1.3569 -0.7512
   18MOL    C86 2160   8.382   3.660   7.207  0.4090  0.4441 -0.1997
   18MOL    C87 2161   8.233   3.603   7.202 -0.0317  0.0406 -0.0223
   18MOL   Cl88 2162   8.128   3.695   7.092 -0.2377  0.3533  0.3008
   18MOL    H89 2163   8.411   3.697   7.108 -3.0498  1.3389 -0.9224
   18MOL    H90 2164   8.365   3.747   7.270 -3.5848 -1.3202  1.3335
   18MOL    H91 2165   8.231   3.502   7.161 -0.1347  0.0480 -0.0334
   18MOL    C92 2166   8.163   3.603   7.340  0.3353  0.3563 -0.5029
   18MOL    C93 2167   8.023   3.542   7.355 -0.5169  0.0106 -0.3145
   18MOL   Cl94 2168   7.990   3.542   7.529 -0.3666  0.4810  0.1681
   18MOL    H95 2169   8.145   3.706   7.370 -2.4523 -0.2942  0.1998
   18MOL    H96 2170   8.226   3.554   7.415  0.5078  1.5089  0.1115
   18MOL    H97 2171   7.953   3.611   7.307  0.0378  2.9075  2.8913
   18MOL    C98 2172   8.016   3.392   7.308 -0.3520 -0.0093 -0.9851
   18MOL    C99 2173   7.880   3.329   7.315  0.0836 -0.4172  0.3353
   18MOL  Cl100 2174   7.896   3.151   7.280  0.4084 -0.0868  0.1657
   18MOL   H101 2175   8.077   3.335   7.379 -0.7746 -1.1951 -1.5537
   18MOL   H102 2176   8.067   3.375   7.213 -1.6942 -1.2332 -1.5061
   18MOL   H103 2177   7.847   3.329   7.419  2.4145 -3.1118  1.1312
   18MOL   C104 2178   7.782   3.397   7.207 -0.3060 -0.2343 -0.6036
   18MOL   C105 2179   7.637   3.357   7.225 -0.2687 -0.2306 -0.7616
   18MOL  Cl106 2180   7.552   3.436   7.084 -0.0061  0.2630  0.2514
   18MOL   H107 2181   7.815   3.370   7.107  0.3637 -0.8897 -0.2092
   18MOL   H108 2182   7.778   3.505   7.210 -0.5655 -0.2596  0.2102
   18MOL   H109 2183   7.644   3.250   7.208 -1.8152 -0.8307  1.9826
   18MOL   C110 2184   7.580   3.424   7.356 -0.0531  0.1092 -0.5645
   18MOL   C111 2185   7.449   3.359   7.409 -0.3136 -0.2013 -0.0607
   18MOL  Cl112 2186   7.453   3.174   7.391 -0.0013 -0.2458 -0.2266
   18MOL   H113 2187   7.572   3.532   7.343  1.3576  0.4547  1.2437
   18MOL   H114 2188   7.656   3.422   7.434 -0.8216 -2.0931  0.1446
   18MOL   H115 2189   7.442   3.376   7.517 -1.3914 -1.8169  0.1514
   18MOL   C116 2190   7.323   3.416   7.343 -0.0440 -0.3794 -0.3867
   18MOL   C117 2191   7.196   3.381   7.429  0.1767  0.3042 -0.9112
   18MOL  Cl118 2192   7.189   3.480   7.575  0.2232 -0.3915 -0.3726
   18MOL   H119 2193   7.306   3.360   7.251 -0.8199 -1.6500  0.5244
   18MOL   H120 2194   7.333   3.518   7.306 -1.7398  0.3407  1.0852
   18MOL   H121 2195   7.102   3.404   7.380 -0.5082  0.4807  0.4512
   18MOL   H122 2196   7.193   3.275   7.456  0.5520  0.8603  1.4206
   19MOL     C1 2197   0.739   3.462   2.023 -0.9484 -0.5483  0.2417
   19MOL     C2 2198   0.817   3.434   2.147  0.3317  1.1441  0.5894
   19MOL    Cl3 2199   0.982   3.506   2.121  0.1415 -0.1151  0.1608
   19MOL     H4 2200   0.636   3.427   2.025 -1.0697 -0.1360  1.3195
   19MOL     H5 2201   0.733   3.570   2.010  1.4781 -0.5048 -0.9983
   19MOL     H6 2202   0.779   3.478   2.239 -0.9337  0.2672  0.4977
   19MOL     H7 2203   0.778   3.415   1.932 -2.0885 -0.7028 -0.1682
   19MOL     C8 2204   0.839   3.277   2.168  0.4176  0.1375 -0.8637
   19MOL     C9 2205   0.712   3.204   2.201 -0.1204  1.4109  0.6061
   19MOL   Cl10 2206   0.624   3.284   2.337 -0.0659 -0.1173 -0.1095
   19MOL    H11 2207   0.915   3.251   2.242 -1.7141 -0.4209  1.1982
   19MOL    H12 2208   0.888   3.239   2.079  1.6843  0.4829 -0.3326
   19MOL    H13 2209   0.658   3.211   2.106  0.8207 -0.6579 -0.1132
   19MOL    C14 2210   0.746   3.060   2.243 -0.5194  0.0119  0.3526
   19MOL    C15 2211   0.622   2.963   2.271 -0.4215 -0.0119 -0.6010
   19MOL   Cl16 2212   0.687   2.829   2.370  0.5808 -0.2120 -0.3249
   19MOL    H17 2213   0.813   3.066   2.329  0.6881  1.2201 -0.6593
   19MOL    H18 2214   0.803   3.011   2.164 -0.3411  0.5158  0.1671
   19MOL    H19 2215   0.544   3.020   2.321 -1.4797 -1.6440 -0.3505
   19MOL    C20 2216   0.561   2.911   2.146  0.3202  0.1263 -0.5386
   19MOL    C21 2217   0.417   2.854   2.152 -0.1124 -0.6953 -0.3314
   19MOL   Cl22 2218   0.369   2.750   2.011  0.3171 -0.0154 -0.4558
   19MOL    H23 2219   0.619   2.830   2.102 -0.4091  0.1684 -1.6246
   19MOL    H24 2220   0.563   2.987   2.068  0.6054  0.9192  0.2337
   19MOL    H25 2221   0.403   2.783   2.233 -1.5974  0.6107  0.5866
   19MOL    C26 2222   0.306   2.957   2.158 -0.3841 -0.2353 -0.1776
   19MOL    C27 2223   0.284   3.042   2.289 -0.4689  0.1728  0.0251
   19MOL   Cl28 2224   0.310   2.931   2.427  0.0365  0.1741 -0.0315
   19MOL    H29 2225   0.212   2.903   2.156 -0.1350 -1.0143  4.3696
   19MOL    H30 2226   0.314   3.028   2.075 -0.0775 -0.2758 -0.1832
   19MOL    H31 2227   0.366   3.113   2.301 -0.1489 -0.2246  0.2571
   19MOL    C32 2228   0.150   3.111   2.297 -0.1637  0.1777  0.0693
   19MOL    C33 2229   0.128   3.228   2.394  0.6129 -0.1700 -0.8058
   19MOL   Cl34 2230   0.132   3.164   2.565  0.2116  0.2308  0.0528
   19MOL    H35 2231   0.060   3.050   2.295  0.2181 -0.3729 -2.1318
   19MOL    H36 2232   0.143   3.172   2.207 -0.0681 -0.4567 -0.3685
   19MOL    H37 2233   0.219   3.288   2.389  0.7865 -0.0976  2.1404
   19MOL    C38 2234   8.523   3.310   2.363 -0.6804 -0.1198  0.1758
   19MOL    C39 2235   8.390   3.230   2.372 -0.0173 -0.1211  0.2163
   19MOL   Cl40 2236   8.268   3.349   2.319 -0.1033 -0.0718  0.1418
   19MOL    H41 2237   0.002   3.346   2.261 -1.9951 -2.8124 -0.8637
   19MOL    H42 2238   8.515   3.399   2.426  0.4045  1.4943 -1.9010
   19MOL    H43 2239   8.380   3.153   2.296 -1.3395 -1.4360  1.6887
   19MOL    C44 2240   8.350   3.171   2.506 -0.4557  0.6040  0.0022
   19MOL    C45 2241   8.204   3.124   2.536 -0.1451  0.4176 -0.0868
   19MOL   Cl46 2242   8.203   3.044   2.701  0.1169 -0.2401  0.0514
   19MOL    H47 2243   8.389   3.236   2.584 -0.0910  0.4230 -0.0305
   19MOL    H48 2244   8.410   3.081   2.520 -0.9170  0.1653 -0.8112
   19MOL    H49 2245   8.140   3.212   2.540  0.5701  0.9365  0.0319
   19MOL    C50 2246   8.137   3.025   2.434  0.1359 -0.8535  0.0772
   19MOL    C51 2247   8.196   2.884   2.416 -1.4191 -0.1527  0.4286
   19MOL   Cl52 2248   8.351   2.893   2.331 -0.4066  0.0390  0.1409
   19MOL    H53 2249   8.133   3.064   2.333  0.1926 -2.2755 -0.4822
   19MOL    H54 2250   8.030   3.025   2.457  0.0144  2.4535 -0.2791
   19MOL    H55 2251   8.215   2.834   2.511  1.6050  1.4280  0.7114
   19MOL    C56 2252   8.110   2.796   2.314 -0.5983  0.4242  1.0104
   19MOL    C57 2253   7.961   2.766   2.338 -0.1759 -0.4210  0.1697
   19MOL   Cl58 2254   7.932   2.722   2.513  0.0731 -0.1285 -0.1030
   19MOL    H59 2255   8.167   2.705   2.291 -0.9203  0.7209 -1.0206
   19MOL    H60 2256   8.114   2.843   2.216 -1.4015 -1.4269  0.0451
   19MOL    H61 2257   7.905   2.859   2.327  1.5379  0.4842 -1.2227
   19MOL    C62 2258   7.893   2.659   2.250  0.6265  0.2796 -0.7047
   19MOL    C63 2259   7.922   2.671   2.102  0.4373 -0.1481  0.2723
   19MOL   Cl64 2260   7.898   2.835   2.037 -0.3770 -0.3168 -0.3555
   19MOL    H65 2261   7.786   2.655   2.269  0.8782 -3.8107  0.4547
   19MOL    H66 2262   7.935   2.563   2.280 -0.7560 -0.9339 -2.5448
   19MOL    H67 2263   8.030   2.660   2.092  0.6005  1.5810  0.0217
   19MOL    C68 2264   7.845   2.576   2.009 -0.0892 -0.1539  0.0003
   19MOL    C69 2265   7.929   2.495   1.909  0.2202 -0.3950  0.1565
   19MOL   Cl70 2266   8.040   2.384   1.994 -0.1654 -0.0098 -0.4972
   19MOL    H71 2267   7.762   2.628   1.962 -1.4554 -0.2367  2.2124
   19MOL    H72 2268   7.787   2.504   2.068 -0.1951 -2.6163 -2.9753
   19MOL    H73 2269   7.872   2.421   1.853  1.9093 -1.5960 -0.0149
   19MOL    C74 2270   8.001   2.588   1.807 -0.0546  0.7843 -0.0691
   19MOL    C75 2271   8.105   2.524   1.716  0.2745  0.4199 -0.4917
   19MOL   Cl76 2272   8.210   2.647   1.662 -0.2349 -0.0192  0.3234
   19MOL    H77 2273   8.037   2.679   1.854 -2.1008  2.4010 -1.5327
   19MOL    H78 2274   7.915   2.623   1.749 -1.9062 -1.9181  0.9555
   19MOL    H79 2275   8.166   2.462   1.781  0.5242  0.4719 -0.6785
   19MOL    C80 2276   8.046   2.457   1.581 -0.9054  0.0456  0.3871
   19MOL    C81 2277   7.959   2.331   1.596  0.2212 -0.1348  0.6579
   19MOL   Cl82 2278   8.061   2.212   1.684 -0.0902  0.0194 -0.3418
   19MOL    H83 2279   8.130   2.432   1.515 -0.9978  2.3891 -0.6632
   19MOL    H84 2280   7.990   2.537   1.533 -1.8365  0.3368  1.9173
   19MOL    H85 2281   7.871   2.371   1.646 -0.6919 -0.8285 -0.3743
   19MOL    C86 2282   7.922   2.266   1.462  0.0640 -0.1476  0.3482
   19MOL    C87 2283   7.821   2.154   1.464  0.2432 -0.3128 -0.0112
   19MOL   Cl88 2284   7.788   2.104   1.295  0.3089 -0.2915  0.0475
   19MOL    H89 2285   8.016   2.231   1.418  0.2471  0.8235 -0.0399
   19MOL    H90 2286   7.888   2.333   1.383 -0.5383 -1.8967 -0.9025
   19MOL    H91 2287   7.868   2.069   1.514  0.3057 -0.4763 -0.3506
   19MOL    C92 2288   7.690   2.191   1.540  0.2710  0.3086 -0.1200
   19MOL    C93 2289   7.590   2.074   1.576 -0.7821  0.4686  0.2417
   19MOL   Cl94 2290   7.428   2.154   1.593 -0.3598  0.1318  0.2027
   19MOL    H95 2291   7.636   2.259   1.474  0.8144 -1.1185 -2.0961
   19MOL    H96 2292   7.711   2.242   1.634 -1.9304  1.9156 -0.4630
   19MOL    H97 2293   7.578   2.003   1.494 -1.3079 -1.3344  1.8497
   19MOL    C98 2294   7.619   2.003   1.706 -0.4133  0.7306 -0.1173
   19MOL    C99 2295   7.513   1.901   1.751  0.4952 -1.0878  0.1864
   19MOL  Cl100 2296   7.567   1.872   1.919  0.1213  0.5649  0.3949
   19MOL   H101 2297   7.613   2.086   1.777 -1.5658  1.4364 -1.0235
   19MOL   H102 2298   7.713   1.947   1.707 -1.2877 -0.7344  0.2287
   19MOL   H103 2299   7.411   1.937   1.755  1.2174  1.1326 -0.4530
   19MOL   C104 2300   7.535   1.768   1.675 -0.4294 -0.3486  0.0223
   19MOL   C105 2301   7.450   1.648   1.730  0.3589 -0.1278 -0.0278
   19MOL  Cl106 2302   7.480   1.498   1.642  0.0225  0.1426  0.0015
   19MOL   H107 2303   7.638   1.737   1.689 -1.1656 -2.3900  1.2714
   19MOL   H108 2304   7.527   1.770   1.567 -2.9594 -0.1160  0.1829
   19MOL   H109 2305   7.467   1.628   1.836  1.3682  0.2821 -0.1042
   19MOL   C110 2306   7.303   1.677   1.703 -0.1465  0.5617  0.4821
   19MOL   C111 2307   7.187   1.587   1.764 -0.7892 -0.4285 -0.0254
   19MOL  Cl112 2308   7.029   1.637   1.698  0.0588 -0.1219  0.0677
   19MOL   H113 2309   7.298   1.693   1.596 -0.0444  0.8183  0.5153
   19MOL   H114 2310   7.278   1.775   1.745 -0.9226 -0.1112  1.6119
   19MOL   H115 2311   7.199   1.482   1.736 -0.6862  0.1746 -2.3302
   19MOL   C116 2312   7.180   1.603   1.915  0.1154  0.4508  0.3916
   19MOL   C117 2313   7.085   1.497   1.976  0.2837  0.4788 -0.0527
   19MOL  Cl118 2314   7.121   1.453   2.143  0.0747  0.3653 -0.1427
   19MOL   H119 2315   7.146   1.705   1.930 -1.0314  0.0379  0.6177
   19MOL   H120 2316   7.274   1.585   1.967  0.6320 -1.2860 -1.0597
   19MOL   H121 2317   6.980   1.526   1.980  0.6345  1.6965  0.5208
   19MOL   H122 2318   7.097   1.401   1.926 -0.2291 -0.4882  1.6560
   20MOL     C1 2319   7.276   5.612   7.084 -0.6591 -0.0445  0.1679
   20MOL     C2 2320   7.411   5.685   7.073  0.4651  0.3987 -0.1941
   20MOL    Cl3 2321   7.550   5.583   7.041 -0.3752  0.3176 -0.1631
   20MOL     H4 2322   7.277   5.534   7.161  0.9967 -0.9743 -0.7568
   20MOL     H5 2323   7.194   5.682   7.096 -0.1546  0.1465  2.5918
   20MOL     H6 2324   7.403   5.732   6.975  0.9250 -2.0981 -1.4847
   20MOL     H7 2325   7.268   5.559   6.988  3.0358 -1.3834  0.5391
   20MOL     C8 2326   7.425   5.782   7.195 -0.0610  0.0929  0.1210
   20MOL     C9 2327   7.551   5.877   7.182 -0.3924  0.5029  0.3265
   20MOL   Cl10 2328   7.534   6.007   7.301  0.2063  0.2515  0.2149
   20MOL    H11 2329   7.445   5.719   7.282 -0.0237 -3.2366 -2.2017
   20MOL    H12 2330   7.338   5.836   7.232  1.0696  0.6493  2.0758
   20MOL    H13 2331   7.640   5.823   7.212 -1.8223 -0.9088  2.1722
   20MOL    C14 2332   7.564   5.947   7.047 -0.2253 -0.4108  0.0497
   20MOL    C15 2333   7.665   6.060   7.029  0.1420 -0.4424  0.3485
   20MOL   Cl16 2334   7.674   6.092   6.855  0.0980  0.7229  0.0965
   20MOL    H17 2335   7.467   5.987   7.017 -0.9057 -0.7074  1.7702
   20MOL    H18 2336   7.596   5.874   6.973 -1.5868 -0.8236 -0.1510
   20MOL    H19 2337   7.621   6.147   7.077 -2.5450 -1.7057  0.2764
   20MOL    C20 2338   7.810   6.025   7.071  0.3664  0.2264 -0.5806
   20MOL    C21 2339   7.902   6.150   7.105  0.1042 -0.3143  0.3060
   20MOL   Cl22 2340   8.061   6.080   7.127  0.1265  0.0042 -0.2466
   20MOL    H23 2341   7.854   5.945   7.011 -1.0668 -1.6269  0.7890
   20MOL    H24 2342   7.806   5.973   7.167 -1.0954  0.1021 -0.6855
   20MOL    H25 2343   7.914   6.216   7.019 -1.4857  1.1620  1.1926
   20MOL    C26 2344   7.860   6.210   7.244 -0.5500 -0.0592 -0.1066
   20MOL    C27 2345   7.928   6.344   7.288 -0.6970  0.1348  0.1264
   20MOL   Cl28 2346   7.824   6.409   7.412  0.0737 -0.3177  0.3127
   20MOL    H29 2347   7.862   6.143   7.330  1.9763 -0.6387 -0.5887
   20MOL    H30 2348   7.757   6.243   7.230 -0.1353  0.6947 -1.4913
   20MOL    H31 2349   8.022   6.323   7.339  0.5337  0.6127 -1.8823
   20MOL    C32 2350   7.954   6.441   7.171 -0.1243  0.0357  0.4080
   20MOL    C33 2351   7.994   6.582   7.217  0.4507  0.3497  0.1574
   20MOL   Cl34 2352   7.854   6.687   7.198 -0.2975  0.1187 -0.1737
   20MOL    H35 2353   7.866   6.452   7.108  2.1232  1.7615 -2.5486
   20MOL    H36 2354   8.022   6.388   7.105 -0.8327 -1.3159  0.7304
   20MOL    H37 2355   8.038   6.572   7.317 -0.4959  2.2805  0.7802
   20MOL    C38 2356   8.114   6.642   7.138  0.4862  0.2657  0.5465
   20MOL    C39 2357   8.137   6.796   7.164 -0.0270  0.5977  0.6210
   20MOL   Cl40 2358   8.280   6.838   7.048  0.3799 -0.0836 -0.3708
   20MOL    H41 2359   8.095   6.625   7.032 -0.7240 -1.4056  1.0282
   20MOL    H42 2360   8.206   6.587   7.157  0.2576 -0.3102 -0.0011
   20MOL    H43 2361   8.051   6.851   7.128 -0.1025 -0.3573 -0.7297
   20MOL    C44 2362   8.175   6.827   7.314  0.0615  0.0238  0.7297
   20MOL    C45 2363   8.173   6.976   7.356 -0.5568  0.2754  0.0389
   20MOL   Cl46 2364   8.256   6.989   7.509 -0.2171 -0.0646 -0.1673
   20MOL    H47 2365   8.276   6.783   7.313  0.3915  0.7846 -0.6831
   20MOL    H48 2366   8.119   6.769   7.387  1.5479  0.5039  2.2999
   20MOL    H49 2367   8.225   7.036   7.281  1.2413  0.3568  1.3102
   20MOL    C50 2368   8.035   7.036   7.370 -0.9266  0.1312  0.5756
   20MOL    C51 2369   8.026   7.182   7.407  0.0549 -0.2557  0.0147
   20MOL   Cl52 2370   7.857   7.206   7.470 -0.0772  0.3145  0.0112
   20MOL    H53 2371   7.980   6.974   7.442 -2.4081  0.6287 -0.0951
   20MOL    H54 2372   7.975   7.016   7.281  0.7848 -1.2894 -0.2926
   20MOL    H55 2373   8.093   7.197   7.492 -1.0714 -0.4167  0.9441
   20MOL    C56 2374   8.063   7.284   7.296  0.3002 -0.1889 -0.2693
   20MOL    C57 2375   7.990   7.275   7.157  0.8363 -0.0717  0.0828
   20MOL   Cl58 2376   8.045   7.126   7.072  0.0114 -0.5577  0.0199
   20MOL    H59 2377   8.171   7.276   7.282  0.8647  1.9082  2.4810
   20MOL    H60 2378   8.046   7.383   7.338  0.3917 -0.5404  0.6008
   20MOL    H61 2379   7.882   7.261   7.171  1.0442 -1.0770  0.7822
   20MOL    C62 2380   8.014   7.394   7.061  0.5096  0.3358  0.2039
   20MOL    C63 2381   7.927   7.414   6.938  0.0960 -0.2474  1.1444
   20MOL   Cl64 2382   8.035   7.423   6.796  0.3296  0.3381 -0.2736
   20MOL    H65 2383   8.121   7.411   7.043  0.9681 -2.5719 -0.0323
   20MOL    H66 2384   7.984   7.471   7.132  0.1650 -0.3744  0.8363
   20MOL    H67 2385   7.872   7.322   6.921 -2.0237  1.2311 -0.3896
   20MOL    C68 2386   7.823   7.531   6.943 -0.7405 -0.1938  0.3463
   20MOL    C69 2387   7.765   7.569   6.801 -1.2356  0.1210  0.2202
   20MOL   Cl70 2388   7.849   7.714   6.739 -0.1574 -0.3205  0.2525
   20MOL    H71 2389   7.864   7.618   6.996  1.0056  0.2248 -1.6513
   20MOL    H72 2390   7.738   7.507   7.008 -1.8528  3.4349  0.3571
   20MOL    H73 2391   7.787   7.493   6.726 -0.6496 -0.1124  0.6202
   20MOL    C74 2392   7.618   7.597   6.808  0.2888  0.3187 -0.4615
   20MOL    C75 2393   7.527   7.465   6.814  0.0417  0.1680 -0.4471
   20MOL   Cl76 2394   7.575   7.330   6.701 -0.2587  0.2861  0.0149
   20MOL    H77 2395   7.597   7.652   6.717 -0.6286 -0.4074 -0.6916
   20MOL    H78 2396   7.600   7.660   6.895 -1.7450 -1.6367  0.5733
   20MOL    H79 2397   7.539   7.432   6.918  0.3831  0.7431 -0.3000
   20MOL    C80 2398   7.382   7.507   6.787  0.1011  0.7720 -0.1132
   20MOL    C81 2399   7.274   7.403   6.797  0.5249  0.6431  0.1961
   20MOL   Cl82 2400   7.127   7.493   6.733 -0.0548  0.0576  0.1183
   20MOL    H83 2401   7.370   7.561   6.693  1.2458  0.3533 -0.5061
   20MOL    H84 2402   7.357   7.590   6.852  1.3469 -1.0198  2.7307
   20MOL    H85 2403   7.287   7.314   6.736  1.4291  1.8322 -1.3799
   20MOL    C86 2404   7.238   7.346   6.936 -0.8805 -0.3428 -0.2642
   20MOL    C87 2405   7.332   7.236   6.976 -0.4729 -0.2224 -0.3698
   20MOL   Cl88 2406   7.275   7.081   6.912  0.2127 -0.0202  0.3398
   20MOL    H89 2407   7.133   7.318   6.944 -0.6495 -0.6481  2.1036
   20MOL    H90 2408   7.242   7.437   6.996 -1.6645 -1.7820  2.0166
   20MOL    H91 2409   7.429   7.251   6.930  0.0352 -2.9732 -0.2859
   20MOL    C92 2410   7.354   7.229   7.129  0.1979  0.4359  0.1881
   20MOL    C93 2411   7.436   7.341   7.187 -0.1556  0.0412 -0.4711
   20MOL   Cl94 2412   7.612   7.307   7.164  0.1559 -0.1578 -0.4936
   20MOL    H95 2413   7.396   7.132   7.158  1.1976  0.7278 -0.2693
   20MOL    H96 2414   7.252   7.226   7.168 -0.1212 -3.2797 -0.7249
   20MOL    H97 2415   7.412   7.428   7.126  0.1747  0.9606  0.7011
   20MOL    C98 2416   7.396   7.362   7.335 -0.2602 -0.2083 -0.1350
   20MOL    C99 2417   7.437   7.492   7.404 -0.2635 -0.0596  0.0615
   20MOL  Cl100 2418   7.385   7.634   7.310  0.0804  0.7005  0.1497
   20MOL   H101 2419   7.429   7.279   7.398  0.8319 -0.7555 -1.4222
   20MOL   H102 2420   7.288   7.353   7.341 -0.3563  1.3924  0.8602
   20MOL   H103 2421   7.381   7.480   7.497 -0.9613 -0.3675 -0.3955
   20MOL   C104 2422   7.593   7.507   7.428  0.6695  0.1888  0.4954
   20MOL   C105 2423   7.634   7.599   7.539  0.1214 -0.0619  0.8049
   20MOL  Cl106 2424   7.811   7.627   7.509 -0.1615 -0.3385 -0.2584
   20MOL   H107 2425   7.627   7.533   7.328 -1.8844  1.2747 -0.1304
   20MOL   H108 2426   7.643   7.412   7.446  1.7276 -0.0025 -3.1057
   20MOL   H109 2427   7.593   7.698   7.516  4.1441  0.7617 -3.5489
   20MOL   C110 2428   7.604   7.544   7.681  0.2369 -0.1118 -0.4076
   20MOL   C111 2429   7.638   7.639   7.804 -0.2778  0.4352 -0.2314
   20MOL  Cl112 2430   7.813   7.646   7.855  0.2535  0.2802  0.1069
   20MOL   H113 2431   7.647   7.447   7.703 -0.4323 -0.3247 -0.0067
   20MOL   H114 2432   7.497   7.522   7.687  0.7352 -2.1539  2.1795
   20MOL   H115 2433   7.611   7.739   7.771 -1.4576 -0.2979 -1.5464
   20MOL   C116 2434   7.552   7.598   7.920  0.4581  0.5160  0.1873
   20MOL   C117 2435   7.534   7.706   8.030 -0.3612  0.3538 -0.1131
   20MOL  Cl118 2436   7.444   7.851   7.971 -0.2990 -0.2261 -0.1325
   20MOL   H119 2437   7.593   7.506   7.962 -2.8818 -1.1108  0.0341
   20MOL   H120 2438   7.455   7.558   7.890  0.4930 -1.7509  2.9091
   20MOL   H121 2439   7.477   7.670   8.116  3.1357 -2.3701  1.1965
   20MOL   H122 2440   7.630   7.733   8.073 -0.5077 -0.7388  0.9296
   21MOL     C1 2441   1.522   2.296   5.343 -0.1433  0.1200  0.5673
   21MOL     C2 2442   1.669   2.303   5.289 -0.9061 -0.1995 -0.5337
   21MOL    Cl3 2443   1.755   2.163   5.363  0.0021  0.1110 -0.1709
   21MOL     H4 2444   1.513   2.310   5.450 -0.4824  0.6941  0.4634
   21MOL     H5 2445   1.458   2.363   5.286 -0.5970 -0.7062  0.0941
   21MOL     H6 2446   1.666   2.277   5.184  0.6867  1.6850 -1.0660
   21MOL     H7 2447   1.474   2.203   5.313  2.3322 -1.5510  1.6236
   21MOL     C8 2448   1.748   2.431   5.313 -0.5845 -0.1362  0.3302
   21MOL     C9 2449   1.692   2.547   5.235  0.5551 -0.3551 -0.0719
   21MOL   Cl10 2450   1.667   2.498   5.061 -0.2609 -0.5141  0.3167
   21MOL    H11 2451   1.848   2.403   5.281 -0.8918 -0.8673  0.0111
   21MOL    H12 2452   1.760   2.450   5.420  2.4767  0.7748 -0.1359
   21MOL    H13 2453   1.597   2.570   5.284  0.0479 -1.0094 -0.7246
   21MOL    C14 2454   1.776   2.674   5.240 -0.1433  0.7022  0.3112
   21MOL    C15 2455   1.816   2.737   5.374 -0.2609  0.2844 -0.3135
   21MOL   Cl16 2456   1.665   2.794   5.445 -0.2680 -0.0551 -0.5089
   21MOL    H17 2457   1.721   2.752   5.187  0.6397 -0.2838 -2.0210
   21MOL    H18 2458   1.864   2.639   5.185 -0.8513 -0.8999  0.1831
   21MOL    H19 2459   1.864   2.660   5.435 -1.2499  0.2892  0.4838
   21MOL    C20 2460   1.905   2.863   5.354 -0.6453  0.6355 -0.5045
   21MOL    C21 2461   2.020   2.848   5.262  0.0537 -0.1031 -0.2583
   21MOL   Cl22 2462   2.126   2.712   5.317 -0.1526 -0.4628  0.3539
   21MOL    H23 2463   1.934   2.890   5.455 -4.0119 -1.2117  1.0623
   21MOL    H24 2464   1.838   2.942   5.322 -2.6562 -0.8150  0.0037
   21MOL    H25 2465   2.001   2.826   5.157  0.9986  0.7633 -0.6215
   21MOL    C26 2466   2.108   2.974   5.264  0.1414  0.4771 -0.2571
   21MOL    C27 2467   2.048   3.107   5.200  0.3425  0.3177  1.0735
   21MOL   Cl28 2468   1.963   3.071   5.042  0.1328 -0.0090  0.2526
   21MOL    H29 2469   2.189   2.946   5.197  1.1551 -0.6641  1.4281
   21MOL    H30 2470   2.150   2.995   5.362  0.1393  1.2706 -0.4199
   21MOL    H31 2471   1.971   3.142   5.269 -0.2672  0.8450  0.1321
   21MOL    C32 2472   2.176   3.199   5.192 -0.1968 -0.0350 -0.3255
   21MOL    C33 2473   2.146   3.350   5.180  0.3610  0.3360  0.1878
   21MOL   Cl34 2474   2.088   3.390   5.015 -0.1696  0.5530  0.0495
   21MOL    H35 2475   2.248   3.164   5.118  0.1600  1.2348 -0.5997
   21MOL    H36 2476   2.238   3.186   5.281  1.4735 -3.3246 -1.8478
   21MOL    H37 2477   2.066   3.369   5.252 -0.1576 -2.3409  0.3894
   21MOL    C38 2478   2.268   3.431   5.193 -0.2013  0.0957 -0.2090
   21MOL    C39 2479   2.352   3.417   5.317  0.0042 -0.2200  0.2835
   21MOL   Cl40 2480   2.248   3.461   5.450  0.2137 -0.0279 -0.2722
   21MOL    H41 2481   2.249   3.538   5.186 -0.8823  0.0399  0.6908
   21MOL    H42 2482   2.317   3.404   5.100 -0.0303  4.6899 -1.5425
   21MOL    H43 2483   2.386   3.314   5.330  0.1736 -0.3470 -1.0849
   21MOL    C44 2484   2.475   3.507   5.314 -0.2899  0.4682  0.4855
   21MOL    C45 2485   2.575   3.476   5.203  0.2494  0.5641  0.0900
   21MOL   Cl46 2486   2.636   3.308   5.224  0.2492 -0.1159 -0.1347
   21MOL    H47 2487   2.533   3.486   5.404 -0.2212  2.3135  0.8968
   21MOL    H48 2488   2.434   3.609   5.319 -0.0672  0.4813  2.4837
   21MOL    H49 2489   2.525   3.478   5.107  0.4916  2.4561 -0.0260
   21MOL    C50 2490   2.700   3.567   5.202 -0.5809  0.6678 -0.4141
   21MOL    C51 2491   2.678   3.709   5.150 -1.0465  0.0863  1.2647
   21MOL   Cl52 2492   2.687   3.709   4.974  0.1190 -0.1969  0.1540
   21MOL    H53 2493   2.776   3.522   5.138 -0.4664  1.7155 -1.0177
   21MOL    H54 2494   2.738   3.558   5.303 -2.7839  0.1376  0.3952
   21MOL    H55 2495   2.578   3.743   5.176 -0.4974  1.3472  1.7665
   21MOL    C56 2496   2.777   3.812   5.215  0.2346  0.2291 -0.2375
   21MOL    C57 2497   2.742   3.847   5.361  0.0713  0.0276 -0.1113
   21MOL   Cl58 2498   2.588   3.941   5.374 -0.0667 -0.0268 -0.1278
   21MOL    H59 2499   2.763   3.909   5.165 -1.5883  1.2109  2.0868
   21MOL    H60 2500   2.880   3.778   5.217  0.6335  1.4611  0.7308
   21MOL    H61 2501   2.727   3.766   5.433 -1.1640  0.8621  0.5620
   21MOL    C62 2502   2.844   3.950   5.417 -0.2924  0.5288 -0.3515
   21MOL    C63 2503   2.991   3.902   5.427 -0.2678  0.2437 -0.1198
   21MOL   Cl64 2504   2.983   3.775   5.557  0.4031  0.1268  0.1137
   21MOL    H65 2505   2.814   3.975   5.519  0.2547 -1.7343  0.3972
   21MOL    H66 2506   2.846   4.040   5.354  0.6538 -0.5666 -1.9405
   21MOL    H67 2507   3.020   3.862   5.330 -0.7591 -1.5384  0.4387
   21MOL    C68 2508   3.099   3.999   5.468 -0.2139 -0.1708  0.2289
   21MOL    C69 2509   3.115   4.121   5.375 -0.0099  0.3311  0.3794
   21MOL   Cl70 2510   3.119   4.061   5.209  0.0319  0.2849  0.3243
   21MOL    H71 2511   3.193   3.949   5.489 -0.5069 -0.7973  0.0675
   21MOL    H72 2512   3.064   4.028   5.567 -1.4081  0.4586 -0.3610
   21MOL    H73 2513   3.028   4.185   5.381  0.7663  1.5831 -1.3144
   21MOL    C74 2514   3.245   4.199   5.399 -0.3824  0.0772  0.2551
   21MOL    C75 2515   3.236   4.347   5.353  0.1057 -0.4596  0.5931
   21MOL   Cl76 2516   3.400   4.392   5.315 -0.0807 -0.6975  0.3296
   21MOL    H77 2517   3.332   4.154   5.351 -0.1537  1.0214 -0.2363
   21MOL    H78 2518   3.257   4.209   5.507  0.4341 -0.2229  0.1988
   21MOL    H79 2519   3.179   4.361   5.262  0.0714 -1.0709  0.5173
   21MOL    C80 2520   3.174   4.428   5.458 -0.1273 -0.9603  0.1015
   21MOL    C81 2521   3.167   4.579   5.413  0.1526  0.0799  0.2036
   21MOL   Cl82 2522   3.102   4.671   5.554  0.7350  0.1079  0.2495
   21MOL    H83 2523   3.232   4.420   5.551 -2.5883  0.4962  1.8290
   21MOL    H84 2524   3.078   4.385   5.486 -0.8933  0.4845 -0.2675
   21MOL    H85 2525   3.263   4.627   5.394  0.1540 -0.1069 -0.2645
   21MOL    C86 2526   3.073   4.609   5.299 -0.4739 -0.1372 -0.2255
   21MOL    C87 2527   2.920   4.592   5.309 -0.0242 -0.5699 -0.4766
   21MOL   Cl88 2528   2.875   4.423   5.350  0.0340  0.3757  0.1815
   21MOL    H89 2529   3.108   4.571   5.203  0.6455  1.6489 -0.5582
   21MOL    H90 2530   3.089   4.716   5.282 -0.8514 -0.2605 -1.3995
   21MOL    H91 2531   2.883   4.648   5.395  3.6261 -0.7754  1.3149
   21MOL    C92 2532   2.844   4.638   5.180 -0.0601  0.8455 -1.0910
   21MOL    C93 2533   2.829   4.791   5.150 -0.1276  0.7957  0.3621
   21MOL   Cl94 2534   2.708   4.853   5.272  0.1629  0.1231 -0.0352
   21MOL    H95 2535   2.748   4.587   5.173  2.7124 -5.0995  0.8536
   21MOL    H96 2536   2.901   4.604   5.093  2.6437  1.6578  0.3197
   21MOL    H97 2537   2.925   4.841   5.164 -0.4006  0.8601  2.1115
   21MOL    C98 2538   2.763   4.816   5.009  0.3516  0.6701 -0.4945
   21MOL    C99 2539   2.834   4.749   4.891 -0.5709  0.1284  0.2675
   21MOL  Cl100 2540   3.009   4.782   4.894  0.5510  0.4426  0.4272
   21MOL   H101 2541   2.761   4.924   5.002 -1.3271  0.8801  2.5768
   21MOL   H102 2542   2.660   4.779   5.012  0.5306  0.2295  0.3944
   21MOL   H103 2543   2.826   4.641   4.893  1.4590 -0.1112 -1.8053
   21MOL   C104 2544   2.779   4.806   4.753 -0.1725  0.4194 -0.2881
   21MOL   C105 2545   2.626   4.819   4.755  0.4781 -0.0060  0.0887
   21MOL  Cl106 2546   2.549   4.661   4.776  0.1587 -0.1317  0.0749
   21MOL   H107 2547   2.822   4.752   4.668  3.0612  1.2594  0.7135
   21MOL   H108 2548   2.812   4.907   4.728  0.3383 -0.2116 -2.2651
   21MOL   H109 2549   2.597   4.881   4.839  0.2397  1.2785 -0.9313
   21MOL   C110 2550   2.568   4.874   4.621 -0.0929  1.1517  0.5288
   21MOL   C111 2551   2.417   4.917   4.628 -0.1287  1.1388  0.5276
   21MOL  Cl112 2552   2.347   4.942   4.460 -0.1660  0.3800  0.4246
   21MOL   H113 2553   2.570   4.802   4.539 -1.2885  1.1889  0.4687
   21MOL   H114 2554   2.625   4.962   4.589  2.1140 -0.6665 -0.7375
   21MOL   H115 2555   2.362   4.830   4.666  0.6741  0.3887  0.0039
   21MOL   C116 2556   2.384   5.035   4.719 -0.1129 -0.6239 -0.4103
   21MOL   C117 2557   2.230   5.079   4.723 -0.2556 -0.0315  0.3237
   21MOL  Cl118 2558   2.132   4.951   4.782 -0.0761 -0.0558 -0.2703
   21MOL   H119 2559   2.432   5.124   4.679  0.1410  0.0140  1.2908
   21MOL   H120 2560   2.419   5.014   4.819 -1.8348 -2.9828 -0.2523
   21MOL   H121 2561   2.212   5.170   4.780  3.3544  1.3680 -0.6282
   21MOL   H122 2562   2.191   5.089   4.621 -1.2039 -1.0958  0.5642
   22MOL     C1 2563   5.438   5.216   0.925  0.6095  0.9909 -0.5359
   22MOL     C2 2564   5.357   5.345   0.965 -1.0309  0.1639  0.2027
   22MOL    Cl3 2565   5.346   5.468   0.839  0.0819  0.2893 -0.1033
   22MOL     H4 2566   5.442   5.135   0.998  0.1975  1.9418  0.5790
   22MOL     H5 2567   5.400   5.166   0.837  1.5161 -1.4653  0.4437
   22MOL     H6 2568   5.252   5.324   0.981 -0.5961 -0.8798  1.8451
   22MOL     H7 2569   5.543   5.243   0.913  0.3472  1.9205 -0.8004
   22MOL     C8 2570   5.393   5.418   1.100  0.0805  1.4393  0.3366
   22MOL     C9 2571   5.549   5.448   1.118 -0.3649  0.0509 -0.0324
   22MOL   Cl10 2572   5.635   5.291   1.123 -0.4086  0.0481 -0.3427
   22MOL    H11 2573   5.369   5.352   1.184  1.7187  0.8454  0.3561
   22MOL    H12 2574   5.326   5.502   1.118 -2.5525 -1.1624  3.3556
   22MOL    H13 2575   5.586   5.495   1.027 -2.1842 -1.7253 -1.7451
   22MOL    C14 2576   5.570   5.527   1.252 -0.1327 -0.2750 -1.3081
   22MOL    C15 2577   5.713   5.582   1.277  1.1709 -0.2845  0.4958
   22MOL   Cl16 2578   5.696   5.623   1.445  0.4954 -0.0297  0.0105
   22MOL    H17 2579   5.542   5.454   1.328  0.3166 -1.3803 -2.1891
   22MOL    H18 2580   5.507   5.616   1.244 -0.5374 -0.4376  0.0132
   22MOL    H19 2581   5.797   5.513   1.276  2.6763  1.5163  1.9204
   22MOL    C20 2582   5.758   5.710   1.193  0.0851 -0.2135 -0.2864
   22MOL    C21 2583   5.903   5.738   1.217 -0.4472  0.3901 -0.1459
   22MOL   Cl22 2584   5.935   5.913   1.221 -0.0378 -0.3456  0.0101
   22MOL    H23 2585   5.705   5.797   1.233  0.4214 -0.2296  0.1963
   22MOL    H24 2586   5.731   5.709   1.087 -1.1727  0.4076  0.0197
   22MOL    H25 2587   5.923   5.711   1.321 -1.9107  2.9229  0.8647
   22MOL    C26 2588   5.990   5.665   1.112 -0.0825  0.8013 -0.2064
   22MOL    C27 2589   6.134   5.649   1.151 -0.5181 -0.3410 -0.1756
   22MOL   Cl28 2590   6.236   5.610   1.013 -0.1302  0.2627 -0.1589
   22MOL    H29 2591   5.981   5.715   1.015 -0.1483  0.7565 -0.2234
   22MOL    H30 2592   5.952   5.566   1.089  1.6550  0.1199 -0.1821
   22MOL    H31 2593   6.182   5.743   1.179 -0.7069 -0.1253 -0.5656
   22MOL    C32 2594   6.149   5.547   1.272  0.1441  0.2147  0.5089
   22MOL    C33 2595   6.118   5.399   1.248 -0.0849 -0.1149 -0.5072
   22MOL   Cl34 2596   6.021   5.342   1.391 -0.6164 -0.1493 -0.0837
   22MOL    H35 2597   6.096   5.588   1.358 -0.4778  0.6548 -0.0803
   22MOL    H36 2598   6.249   5.562   1.314  0.2414 -0.0349  0.3698
   22MOL    H37 2599   6.049   5.381   1.166 -0.1946  0.5298 -0.5614
   22MOL    C38 2600   6.250   5.319   1.225  0.4031 -0.3532  0.4734
   22MOL    C39 2601   6.252   5.176   1.165 -0.2798 -0.2052  0.4554
   22MOL   Cl40 2602   6.410   5.103   1.209 -0.1701 -0.1492  0.0253
   22MOL    H41 2603   6.306   5.318   1.319  1.8240 -0.7801 -0.3708
   22MOL    H42 2604   6.303   5.382   1.154 -1.2385  0.2940 -0.1917
   22MOL    H43 2605   6.172   5.122   1.215  0.5657 -0.1435  1.9182
   22MOL    C44 2606   6.248   5.166   1.012  0.0785  0.2320  0.0074
   22MOL    C45 2607   6.115   5.213   0.949 -0.7254 -0.1753  0.1734
   22MOL   Cl46 2608   5.984   5.110   1.019 -0.2518  0.3096  0.4917
   22MOL    H47 2609   6.264   5.065   0.975 -2.7006  0.0655 -0.8676
   22MOL    H48 2610   6.330   5.230   0.978  0.2252 -0.0452 -0.1603
   22MOL    H49 2611   6.084   5.314   0.976  1.7030  0.2389  1.5940
   22MOL    C50 2612   6.128   5.194   0.795 -0.3181 -0.0116  0.5372
   22MOL    C51 2613   6.003   5.233   0.703  0.0708 -0.1186  1.0045
   22MOL   Cl52 2614   6.011   5.152   0.541 -0.2465 -0.5452  0.2839
   22MOL    H53 2615   6.144   5.087   0.781 -1.1483 -0.3011  1.7055
   22MOL    H54 2616   6.215   5.241   0.749  0.0441 -1.4117 -0.2396
   22MOL    H55 2617   5.909   5.203   0.751  0.0332 -3.0887 -0.7699
   22MOL    C56 2618   6.001   5.384   0.676  0.5752  0.3951 -0.0182
   22MOL    C57 2619   5.869   5.457   0.701  0.0293 -0.2698  0.6183
   22MOL   Cl58 2620   5.835   5.435   0.869 -0.1789  0.0159  0.0960
   22MOL    H59 2621   6.041   5.402   0.577 -0.9031 -0.5252 -0.7903
   22MOL    H60 2622   6.069   5.434   0.746  1.2852 -0.3719 -0.1488
   22MOL    H61 2623   5.871   5.566   0.688 -1.0017 -0.3658 -0.4749
   22MOL    C62 2624   5.748   5.393   0.620 -0.1248  0.2729 -0.5505
   22MOL    C63 2625   5.759   5.414   0.471 -0.1569 -0.4373 -0.5133
   22MOL   Cl64 2626   5.768   5.583   0.432 -0.7512 -0.1516 -0.0864
   22MOL    H65 2627   5.664   5.445   0.667 -0.2919 -1.2637  0.9235
   22MOL    H66 2628   5.735   5.286   0.639 -0.0444  0.3474 -0.0783
   22MOL    H67 2629   5.857   5.368   0.454 -0.2023 -0.3991 -0.8905
   22MOL    C68 2630   5.645   5.355   0.397  0.0113 -0.2334  0.1464
   22MOL    C69 2631   5.661   5.340   0.249 -0.7794  0.4034 -0.1987
   22MOL   Cl70 2632   5.495   5.316   0.179 -0.2702  0.2706 -0.2176
   22MOL    H71 2633   5.552   5.412   0.408 -0.4869 -0.6711 -1.6412
   22MOL    H72 2634   5.632   5.254   0.435  1.4502 -0.4749  0.0158
   22MOL    H73 2635   5.711   5.432   0.219  0.0153 -0.0302 -0.2397
   22MOL    C74 2636   5.753   5.227   0.203  0.5387  0.5936  0.3781
   22MOL    C75 2637   5.787   5.247   0.051  0.4745  0.1535 -0.7621
   22MOL   Cl76 2638   5.837   5.089   8.496 -0.4209 -0.1745  0.1512
   22MOL    H77 2639   5.709   5.129   0.223  1.4633  0.5388  2.2396
   22MOL    H78 2640   5.842   5.227   0.266  1.6500  1.7044 -1.1360
   22MOL    H79 2641   5.693   5.273   0.001 -1.8812 -2.2765  2.1607
   22MOL    C80 2642   5.888   5.356   0.030 -0.6614 -0.2231 -0.3980
   22MOL    C81 2643   5.919   5.394   8.413  0.0401  0.9281  0.5085
   22MOL   Cl82 2644   6.076   5.465   8.423 -0.0404 -0.4606  0.0242
   22MOL    H83 2645   5.977   5.323   0.085 -1.3653  0.2072  1.0265
   22MOL    H84 2646   5.855   5.445   0.082 -0.3313 -0.9640  1.1156
   22MOL    H85 2647   5.932   5.308   8.348 -0.7104 -0.0978  1.6964
   22MOL    C86 2648   5.807   5.498   8.358  0.0151  0.5427 -0.2464
   22MOL    C87 2649   5.834   5.550   8.215  0.2004 -0.1322  0.0640
   22MOL   Cl88 2650   5.740   5.695   8.183 -0.3724  0.0622 -0.3738
   22MOL    H89 2651   5.802   5.580   8.430  0.7363  2.3164 -2.1708
   22MOL    H90 2652   5.706   5.455   8.361 -0.9059  2.6887  1.0428
   22MOL    H91 2653   5.941   5.569   8.204 -0.1800  2.3972  0.3558
   22MOL    C92 2654   5.793   5.454   8.095 -0.3668 -0.9049 -0.2561
   22MOL    C93 2655   5.869   5.319   8.068 -0.4929 -0.2351  0.4143
   22MOL   Cl94 2656   6.047   5.360   8.054  0.2656 -0.2726  0.1088
   22MOL    H95 2657   5.800   5.522   8.010  2.9362  0.9094  1.3408
   22MOL    H96 2658   5.687   5.430   8.096 -1.3921  3.1410 -2.0630
   22MOL    H97 2659   5.862   5.253   8.155 -1.1021  2.2549  2.3327
   22MOL    C98 2660   5.816   5.255   7.943 -0.0532  0.2469 -0.5595
   22MOL    C99 2661   5.836   5.099   7.933 -0.4228 -0.3691  0.0456
   22MOL  Cl100 2662   5.858   5.057   7.764  0.2400  0.6287  0.0315
   22MOL   H101 2663   5.854   5.310   7.857  0.2529  0.5900 -0.2048
   22MOL   H102 2664   5.709   5.276   7.940 -0.3467 -0.7952  1.8304
   22MOL   H103 2665   5.930   5.075   7.981  0.3652 -1.3795 -1.9527
   22MOL   C104 2666   5.734   5.014   7.998 -0.2102 -0.4883 -0.0920
   22MOL   C105 2667   5.769   4.866   8.024 -0.3388 -0.1785  0.6949
   22MOL  Cl106 2668   5.750   4.772   7.879  0.2572 -0.0984  0.2575
   22MOL   H107 2669   5.646   5.009   7.934 -2.0331  1.5094  2.1672
   22MOL   H108 2670   5.701   5.054   8.094  1.1283 -2.4866  1.2374
   22MOL   H109 2671   5.875   4.848   8.044 -0.0874  2.5883  2.1349
   22MOL   C110 2672   5.684   4.790   8.129 -0.6455  0.6145 -0.2762
   22MOL   C111 2673   5.723   4.817   8.276 -0.2084  0.1953 -1.2384
   22MOL  Cl112 2674   5.890   4.756   8.297  0.0506 -0.2703  0.1309
   22MOL   H113 2675   5.695   4.685   8.103 -1.2006  1.0392 -2.3010
   22MOL   H114 2676   5.582   4.823   8.112 -0.4403  1.2585 -0.2786
   22MOL   H115 2677   5.724   4.922   8.303  2.6723 -0.2455  0.5771
   22MOL   C116 2678   5.627   4.745   8.376  0.6524  0.4155  0.6154
   22MOL   C117 2679   5.649   4.785   8.522 -0.1372 -0.1043  0.0095
   22MOL  Cl118 2680   5.550   4.670   0.086  0.0381 -0.0425 -0.0744
   22MOL   H119 2681   5.628   4.637   8.362 -1.1185  0.4718  0.0046
   22MOL   H120 2682   5.521   4.758   8.355  0.2078 -1.5682  1.5381
   22MOL   H121 2683   5.754   4.768   0.021 -0.3404 -0.3937  0.7013
   22MOL   H122 2684   5.622   4.886   0.027  0.1302  0.1351 -0.5417
   23MOL     C1 2685   5.675   5.424   7.533 -0.0564  0.1060 -0.3776
   23MOL     C2 2686   5.795   5.349   7.464 -0.1452 -0.1232  0.3641
   23MOL    Cl3 2687   5.949   5.395   7.550  0.0204 -0.0257 -0.1029
   23MOL     H4 2688   5.586   5.365   7.514 -0.1165  0.0500  0.0533
   23MOL     H5 2689   5.675   5.418   7.642  2.0752  0.9252 -0.3043
   23MOL     H6 2690   5.780   5.245   7.492 -0.9556 -0.4455 -1.2270
   23MOL     H7 2691   5.664   5.526   7.495  0.3364  0.3119  0.0524
   23MOL     C8 2692   5.812   5.367   7.308  0.1649 -0.2125  0.4506
   23MOL     C9 2693   5.693   5.311   7.220 -0.0260  0.1943 -0.1007
   23MOL   Cl10 2694   5.684   5.131   7.227 -0.4343  0.3663 -0.1764
   23MOL    H11 2695   5.903   5.322   7.268  1.5983  1.8277  1.3418
   23MOL    H12 2696   5.829   5.473   7.288  0.0637 -0.0161  1.3753
   23MOL    H13 2697   5.602   5.337   7.274  0.2780 -0.5261  0.7711
   23MOL    C14 2698   5.693   5.351   7.077 -0.6897 -0.1972  0.9668
   23MOL    C15 2699   5.669   5.492   7.040  0.1694 -0.1028  0.5952
   23MOL   Cl16 2700   5.520   5.559   7.118 -0.3317  0.0849  0.1906
   23MOL    H17 2701   5.608   5.299   7.033 -1.2717 -1.0964  3.1043
   23MOL    H18 2702   5.778   5.309   7.023 -1.4183  2.1129 -2.1320
   23MOL    H19 2703   5.743   5.557   7.088 -0.1313  0.6562  0.0430
   23MOL    C20 2704   5.669   5.528   6.885 -0.0757 -0.6416  0.0632
   23MOL    C21 2705   5.557   5.452   6.812 -0.8658  0.3446 -0.1960
   23MOL   Cl22 2706   5.598   5.282   6.782  0.0300 -0.0860  0.1411
   23MOL    H23 2707   5.768   5.523   6.840 -0.1266  0.3034 -0.1596
   23MOL    H24 2708   5.645   5.634   6.889  0.1283 -0.6633  2.6847
   23MOL    H25 2709   5.472   5.461   6.879 -1.4825 -1.0790 -0.7792
   23MOL    C26 2710   5.530   5.510   6.679  0.1764 -0.2311 -0.4662
   23MOL    C27 2711   5.388   5.477   6.630 -0.3439 -0.1385 -0.2494
   23MOL   Cl28 2712   5.371   5.310   6.575 -0.1744  0.3815 -0.1766
   23MOL    H29 2713   5.615   5.491   6.613  0.7726  1.0374 -0.0852
   23MOL    H30 2714   5.534   5.619   6.679 -0.5493 -0.2077 -0.9197
   23MOL    H31 2715   5.317   5.481   6.713 -0.7303 -0.3936 -0.5643
   23MOL    C32 2716   5.335   5.566   6.526  0.4316 -0.2840  0.3184
   23MOL    C33 2717   5.405   5.563   6.389 -0.2363  0.9650  0.1753
   23MOL   Cl34 2718   5.554   5.661   6.392 -0.0677 -0.3231 -0.4877
   23MOL    H35 2719   5.333   5.670   6.556  2.7201 -0.0293 -0.3059
   23MOL    H36 2720   5.232   5.532   6.514 -0.0999  1.2434  0.4478
   23MOL    H37 2721   5.442   5.465   6.361 -2.1367 -0.2306  1.7261
   23MOL    C38 2722   5.305   5.615   6.281 -0.1958  0.0727 -0.1730
   23MOL    C39 2723   5.357   5.607   6.131 -0.1446 -0.1159  0.4247
   23MOL   Cl40 2724   5.236   5.694   6.034  0.4849 -0.0445 -0.2229
   23MOL    H41 2725   5.281   5.717   6.313  0.4212  0.2948 -0.4009
   23MOL    H42 2726   5.208   5.569   6.298 -0.8867  1.2859 -0.7854
   23MOL    H43 2727   5.453   5.658   6.128 -0.5737  0.8636  2.4124
   23MOL    C44 2728   5.385   5.465   6.076 -0.1713  0.8747 -0.2016
   23MOL    C45 2729   5.265   5.375   6.040  0.0729 -0.2484 -0.3428
   23MOL   Cl46 2730   5.205   5.302   6.186  0.5283 -0.3319 -0.6001
   23MOL    H47 2731   5.456   5.406   6.133 -1.0053 -0.8840 -0.9109
   23MOL    H48 2732   5.439   5.503   5.989 -0.3495  0.5905 -0.4384
   23MOL    H49 2733   5.178   5.433   6.010 -2.8586 -2.4313  3.4958
   23MOL    C50 2734   5.304   5.262   5.943 -0.7485 -0.0284 -0.1194
   23MOL    C51 2735   5.204   5.156   5.902  0.3963  0.2753  0.2277
   23MOL   Cl52 2736   5.274   5.033   5.791  0.1066  0.1993 -0.4196
   23MOL    H53 2737   5.369   5.199   6.003  0.1082  0.4052 -0.5768
   23MOL    H54 2738   5.370   5.295   5.862 -0.2175  1.0060  0.7193
   23MOL    H55 2739   5.158   5.098   5.981 -2.1289 -1.2810 -2.3012
   23MOL    C56 2740   5.085   5.216   5.822 -0.1674 -0.1383 -0.5488
   23MOL    C57 2741   4.978   5.122   5.767 -0.9334 -0.4585  0.6679
   23MOL   Cl58 2742   4.897   5.231   5.645 -0.4342 -0.1329  0.2507
   23MOL    H59 2743   5.126   5.289   5.753  1.3171  0.0217  0.4636
   23MOL    H60 2744   5.023   5.275   5.890 -0.2875  0.1450 -0.9045
   23MOL    H61 2745   5.031   5.045   5.712 -0.5252 -1.2477  2.1253
   23MOL    C62 2746   4.879   5.060   5.865  0.3252 -0.4786  0.0475
   23MOL    C63 2747   4.821   4.923   5.822  0.6403 -0.2545 -0.1275
   23MOL   Cl64 2748   4.730   4.940   5.669 -0.0111 -0.2117  0.0298
   23MOL    H65 2749   4.801   5.132   5.891 -1.1859 -2.3595  0.8579
   23MOL    H66 2750   4.922   5.040   5.963  3.2537 -0.7431 -1.2301
   23MOL    H67 2751   4.898   4.848   5.805  0.1663 -0.7642 -0.0476
   23MOL    C68 2752   4.732   4.876   5.943 -0.0545 -0.4045 -0.4286
   23MOL    C69 2753   4.669   4.738   5.911  0.1456 -0.3585 -0.3799
   23MOL   Cl70 2754   4.549   4.716   6.048 -0.3648  0.1476  0.0805
   23MOL    H71 2755   4.662   4.957   5.961 -0.1844 -0.5423 -0.3094
   23MOL    H72 2756   4.791   4.867   6.034  0.5334  3.6187 -0.3325
   23MOL    H73 2757   4.604   4.741   5.824  0.2937  1.9286 -0.4469
   23MOL    C74 2758   4.765   4.619   5.903  0.0455  0.6793  0.1819
   23MOL    C75 2759   4.714   4.475   5.868 -0.8400  0.3600  0.1289
   23MOL   Cl76 2760   4.871   4.384   5.882 -0.0956 -0.1568  0.1126
   23MOL    H77 2761   4.808   4.623   6.003  1.1541  0.2254 -0.2642
   23MOL    H78 2762   4.849   4.635   5.835  1.6385 -2.9260  1.1519
   23MOL    H79 2763   4.649   4.439   5.948 -0.2526 -0.6206  0.1675
   23MOL    C80 2764   4.670   4.449   5.725  0.1487 -0.3254  0.2859
   23MOL    C81 2765   4.523   4.486   5.714  0.6647  0.3440  0.2386
   23MOL   Cl82 2766   4.419   4.353   5.767  0.1339 -0.4257 -0.0426
   23MOL    H83 2767   4.675   4.343   5.702  1.0642 -0.1619 -0.2715
   23MOL    H84 2768   4.737   4.509   5.664 -2.6408  1.6968 -0.9397
   23MOL    H85 2769   4.502   4.572   5.778  0.0493  0.1187  0.3467
   23MOL    C86 2770   4.494   4.520   5.566 -0.7359 -0.2817 -0.7161
   23MOL    C87 2771   4.351   4.528   5.521  0.1082  0.1224 -0.2530
   23MOL   Cl88 2772   4.347   4.552   5.345  0.1694  0.4259 -0.2545
   23MOL    H89 2773   4.526   4.427   5.518  0.2786 -0.1172 -0.3823
   23MOL    H90 2774   4.553   4.606   5.535  1.3385 -0.4533  2.4177
   23MOL    H91 2775   4.293   4.437   5.538 -0.5514  0.7188  0.7518
   23MOL    C92 2776   4.254   4.636   5.580  0.2205  0.4333  0.2535
   23MOL    C93 2777   4.182   4.587   5.708 -0.6578 -0.0641 -0.5129
   23MOL   Cl94 2778   4.090   4.435   5.684 -0.1231 -0.1998 -0.1175
   23MOL    H95 2779   4.172   4.653   5.510 -0.1105 -3.0387 -0.2955
   23MOL    H96 2780   4.304   4.732   5.588 -2.1776  1.6332  1.4779
   23MOL    H97 2781   4.258   4.575   5.785 -0.6749  0.3210 -0.4355
   23MOL    C98 2782   4.089   4.692   5.765  0.4679 -0.1510 -0.2854
   23MOL    C99 2783   4.149   4.835   5.781  0.3485 -0.1704 -0.1095
   23MOL  Cl100 2784   4.291   4.834   5.888  0.0018  0.3019 -0.3268
   23MOL   H101 2785   4.044   4.645   5.853 -0.7510 -1.0608 -1.3948
   23MOL   H102 2786   4.006   4.701   5.696 -0.6387 -1.4024  0.8546
   23MOL   H103 2787   4.180   4.873   5.684  0.8637  1.5401  0.7007
   23MOL   C104 2788   4.038   4.929   5.831 -0.1297 -0.2359  0.6467
   23MOL   C105 2789   4.071   5.079   5.823  0.7400 -0.7614  0.0021
   23MOL  Cl106 2790   4.171   5.117   5.963 -0.4448  0.3427  0.4162
   23MOL   H107 2791   4.015   4.898   5.933  2.5057  1.1834  1.7172
   23MOL   H108 2792   3.950   4.921   5.768  0.8678 -0.3315 -0.7520
   23MOL   H109 2793   4.134   5.093   5.735  4.0542 -2.4571  2.0044
   23MOL   C110 2794   3.942   5.168   5.832 -0.0548  0.4244  0.4487
   23MOL   C111 2795   3.970   5.317   5.834  0.8510  0.3110  0.0452
   23MOL  Cl112 2796   3.827   5.405   5.885  0.2427 -0.4670 -0.4959
   23MOL   H113 2797   3.894   5.155   5.929 -0.4442  0.3743  0.2482
   23MOL   H114 2798   3.879   5.147   5.746  0.7966 -1.7211  0.3155
   23MOL   H115 2799   4.043   5.333   5.914  2.7822  0.2999 -1.6498
   23MOL   C116 2800   4.035   5.366   5.703  0.1867 -0.5382 -0.0479
   23MOL   C117 2801   4.065   5.516   5.700 -0.2128 -0.2512  0.2025
   23MOL  Cl118 2802   4.166   5.550   5.557 -0.2898  0.0105  0.2858
   23MOL   H119 2803   3.969   5.348   5.618 -0.5500 -0.8595  0.5815
   23MOL   H120 2804   4.125   5.308   5.679  0.2018 -0.1441 -0.9712
   23MOL   H121 2805   3.976   5.579   5.693  0.9361  1.3647 -0.1974
   23MOL   H122 2806   4.122   5.545   5.788 -1.1141  0.1043  0.6754
   24MOL     C1 2807   5.774   5.853   2.912 -0.9515 -0.4657 -0.3318
   24MOL     C2 2808   5.882   5.761   2.978  0.2652  0.2196 -0.6971
   24MOL    Cl3 2809   5.881   5.774   3.163  0.2952  0.1966 -0.1350
   24MOL     H4 2810   5.793   5.954   2.950 -0.8192 -0.6362  0.0563
   24MOL     H5 2811   5.776   5.853   2.803 -0.8044  0.7403 -0.3386
   24MOL     H6 2812   5.847   5.662   2.949 -1.7432  1.2640 -1.9754
   24MOL     H7 2813   5.677   5.816   2.943 -0.7278 -0.8560 -0.0966
   24MOL     C8 2814   6.020   5.791   2.927 -0.0679  0.6799 -0.5643
   24MOL     C9 2815   6.116   5.672   2.927 -0.7134 -0.1531 -0.2021
   24MOL   Cl10 2816   6.050   5.535   2.831  0.1233 -0.0197 -0.2008
   24MOL    H11 2817   6.059   5.881   2.974  2.3189 -0.4757 -0.2653
   24MOL    H12 2818   6.009   5.822   2.823 -0.7739  0.3565 -0.5824
   24MOL    H13 2819   6.201   5.715   2.873 -1.3425  0.4432 -0.7379
   24MOL    C14 2820   6.158   5.621   3.063 -0.4221  0.1355 -0.2791
   24MOL    C15 2821   6.229   5.719   3.157  0.0139  0.3837  0.3230
   24MOL   Cl16 2822   6.346   5.823   3.061  0.1086  0.0719  0.3328
   24MOL    H17 2823   6.210   5.526   3.050  1.8006  0.8325  2.9018
   24MOL    H18 2824   6.071   5.586   3.117 -0.8634  1.4492 -0.1375
   24MOL    H19 2825   6.163   5.793   3.203 -1.0166 -0.2469 -0.1318
   24MOL    C20 2826   6.300   5.647   3.274  0.6665  0.3008  0.3406
   24MOL    C21 2827   6.209   5.561   3.366 -0.5323 -0.2351  0.6332
   24MOL   Cl22 2828   6.173   5.665   3.505 -0.1854 -0.3005 -0.0598
   24MOL    H23 2829   6.353   5.716   3.339  3.4260 -0.7693 -0.6785
   24MOL    H24 2830   6.378   5.584   3.232 -0.6541  0.4650 -2.4940
   24MOL    H25 2831   6.112   5.538   3.322  0.5031 -1.0616 -1.2803
   24MOL    C26 2832   6.275   5.429   3.419  0.3971  0.1076  0.2292
   24MOL    C27 2833   6.296   5.316   3.319  0.0133 -1.0941 -0.5744
   24MOL   Cl28 2834   6.137   5.290   3.236  0.3918  0.0251 -0.1363
   24MOL    H29 2835   6.213   5.396   3.502 -0.3097  1.4086  0.2332
   24MOL    H30 2836   6.369   5.456   3.467 -0.4014 -2.5983  3.5076
   24MOL    H31 2837   6.370   5.340   3.243 -0.7752 -0.4810 -1.1545
   24MOL    C32 2838   6.338   5.179   3.382 -0.1943  0.5623 -0.0138
   24MOL    C33 2839   6.462   5.168   3.484  0.5178 -0.2586 -0.2331
   24MOL   Cl34 2840   6.601   5.220   3.387  0.5006 -0.1262  0.3225
   24MOL    H35 2841   6.358   5.111   3.299 -0.1330  0.1646  0.3266
   24MOL    H36 2842   6.253   5.139   3.437  1.2572  0.1296  1.9439
   24MOL    H37 2843   6.457   5.231   3.573 -1.0786  0.8658 -1.0676
   24MOL    C38 2844   6.486   5.020   3.521  0.4017 -0.2681 -0.1062
   24MOL    C39 2845   6.379   4.953   3.617  0.5650 -0.7244 -0.2472
   24MOL   Cl40 2846   6.362   5.040   3.770 -0.1827  0.0411  0.5098
   24MOL    H41 2847   6.580   5.014   3.574  0.8767 -2.5126 -1.1726
   24MOL    H42 2848   6.497   4.961   3.430  0.8727  1.3440 -1.1157
   24MOL    H43 2849   6.279   4.950   3.573  0.3510  2.3349 -0.0330
   24MOL    C44 2850   6.423   4.805   3.650 -0.2527  1.0503  0.3278
   24MOL    C45 2851   6.351   4.690   3.575  0.0098 -0.5687 -0.5192
   24MOL   Cl46 2852   6.403   4.538   3.658 -0.2081 -0.2559  0.1205
   24MOL    H47 2853   6.397   4.778   3.752  0.5242 -2.4657 -0.3394
   24MOL    H48 2854   6.531   4.800   3.639 -0.5627 -1.1987 -2.5633
   24MOL    H49 2855   6.247   4.708   3.601  0.6583 -1.0487  2.6335
   24MOL    C50 2856   6.379   4.668   3.430 -0.5650  0.6000  0.2851
   24MOL    C51 2857   6.290   4.563   3.359  0.2673 -0.1311  0.1459
   24MOL   Cl52 2858   6.360   4.570   3.198 -0.3651 -0.5815  0.0720
   24MOL    H53 2859   6.486   4.655   3.410 -0.5536  0.4190  0.4624
   24MOL    H54 2860   6.356   4.761   3.379 -0.1816  0.9282  0.7087
   24MOL    H55 2861   6.303   4.462   3.398  1.6522 -0.7867 -1.8861
   24MOL    C56 2862   6.141   4.601   3.345  0.3859 -0.4997 -0.6091
   24MOL    C57 2863   6.054   4.522   3.251 -0.3584 -0.4383 -0.7655
   24MOL   Cl58 2864   5.916   4.624   3.208 -0.6499 -0.2297  0.5651
   24MOL    H59 2865   6.145   4.704   3.309 -1.2130 -0.3676 -0.4398
   24MOL    H60 2866   6.109   4.611   3.449  1.2531  0.2782 -0.4134
   24MOL    H61 2867   6.102   4.503   3.155 -0.9815 -0.6635 -1.0367
   24MOL    C62 2868   6.001   4.386   3.304  0.6140  0.1692  0.2678
   24MOL    C63 2869   6.103   4.266   3.297  0.2543  0.7471  0.0004
   24MOL   Cl64 2870   6.123   4.221   3.124  0.0656  0.2164 -0.0950
   24MOL    H65 2871   5.902   4.365   3.265  0.4182 -0.0424  0.8790
   24MOL    H66 2872   5.980   4.415   3.407 -0.7804  0.8093 -0.1872
   24MOL    H67 2873   6.205   4.283   3.332 -0.0578  3.8590 -0.4750
   24MOL    C68 2874   6.052   4.140   3.379  0.7110  0.0743 -0.3259
   24MOL    C69 2875   6.017   4.174   3.524  0.3854 -0.3783 -0.0426
   24MOL   Cl70 2876   6.156   4.262   3.596  0.3810  0.5078  0.6121
   24MOL    H71 2877   6.135   4.069   3.386  1.2218  0.4633 -1.9820
   24MOL    H72 2878   5.967   4.098   3.324  1.6718 -2.5691  0.1341
   24MOL    H73 2879   5.940   4.250   3.527  3.1053  2.4485  1.2384
   24MOL    C74 2880   5.995   4.042   3.606 -0.3113 -0.5419  0.5908
   24MOL    C75 2881   5.860   3.973   3.585 -0.0607 -0.2843  0.2992
   24MOL   Cl76 2882   5.728   4.091   3.581  0.0472 -0.1431 -0.1753
   24MOL    H77 2883   6.013   4.068   3.711 -1.6797  1.7939  0.3007
   24MOL    H78 2884   6.078   3.976   3.582 -1.8700 -1.8374 -1.4085
   24MOL    H79 2885   5.866   3.925   3.487  2.4202 -1.2697  0.9062
   24MOL    C80 2886   5.820   3.870   3.686 -0.1423  0.2497 -0.7345
   24MOL    C81 2887   5.919   3.753   3.695 -0.3837 -0.0621 -0.2768
   24MOL   Cl82 2888   5.959   3.689   3.533  0.0415 -0.4101  0.3542
   24MOL    H83 2889   5.720   3.838   3.656 -1.3984  1.0163  2.3903
   24MOL    H84 2890   5.794   3.922   3.778 -1.4952  0.4828 -1.2399
   24MOL    H85 2891   6.013   3.794   3.730 -1.2918  1.4711  0.4593
   24MOL    C86 2892   5.852   3.647   3.774 -0.7700 -0.2066  0.3819
   24MOL    C87 2893   5.943   3.520   3.785 -0.9464 -0.4555 -0.0604
   24MOL   Cl88 2894   5.849   3.393   3.866 -0.0135  0.0684 -0.0479
   24MOL    H89 2895   5.769   3.615   3.711  0.6110 -2.4550 -0.3578
   24MOL    H90 2896   5.822   3.680   3.873  1.5883 -0.9058  1.3595
   24MOL    H91 2897   5.964   3.485   3.684 -3.7333 -2.5929  0.0495
   24MOL    C92 2898   6.081   3.540   3.854  0.8417  0.3286  0.3990
   24MOL    C93 2899   6.174   3.411   3.855 -0.5164  0.0677  0.1902
   24MOL   Cl94 2900   6.286   3.425   3.996 -0.2424 -0.0050  0.2017
   24MOL    H95 2901   6.065   3.554   3.961 -2.1299  0.1862  0.0179
   24MOL    H96 2902   6.133   3.624   3.808  1.1193 -1.0911 -1.9295
   24MOL    H97 2903   6.125   3.319   3.887 -0.8357 -0.3309 -1.3739
   24MOL    C98 2904   6.256   3.399   3.725 -0.0463  1.3859  0.3847
   24MOL    C99 2905   6.322   3.264   3.698 -0.6822  0.3663 -0.1592
   24MOL  Cl100 2906   6.436   3.289   3.561 -0.3621  0.1504 -0.2142
   24MOL   H101 2907   6.332   3.477   3.718 -0.8674  2.1008 -0.8399
   24MOL   H102 2908   6.192   3.414   3.638  0.6496  0.1904 -0.3505
   24MOL   H103 2909   6.404   3.240   3.766  0.1447  0.8012 -0.9870
   24MOL   C104 2910   6.230   3.139   3.672 -0.3800 -0.2934  0.2718
   24MOL   C105 2911   6.162   3.063   3.789  0.6663  0.7829 -0.9120
   24MOL  Cl106 2912   6.270   3.047   3.930 -0.0936  0.3311 -0.0094
   24MOL   H107 2913   6.284   3.055   3.629  1.6531 -0.1861  2.4816
   24MOL   H108 2914   6.164   3.177   3.594  0.1002  2.8062  1.3196
   24MOL   H109 2915   6.075   3.122   3.819  1.0701 -0.2374  2.3727
   24MOL   C110 2916   6.100   2.926   3.757  0.1685 -0.6481 -0.3566
   24MOL   C111 2917   5.998   2.914   3.641  0.0055  0.2282  0.5285
   24MOL  Cl112 2918   5.887   3.051   3.635 -0.1247  0.2776 -0.7027
   24MOL   H113 2919   6.041   2.907   3.847  1.3742 -0.3392  0.4975
   24MOL   H114 2920   6.168   2.842   3.744 -0.5748 -1.0050 -2.1510
   24MOL   H115 2921   6.044   2.927   3.543 -0.1527 -0.5521  0.3451
   24MOL   C116 2922   5.922   2.786   3.651  0.3040 -0.3731  0.8236
   24MOL   C117 2923   5.822   2.774   3.538  0.1518  1.1336  0.1264
   24MOL  Cl118 2924   5.752   2.604   3.546 -0.0477  0.2787 -0.0356
   24MOL   H119 2925   5.870   2.765   3.744 -0.7698 -2.5811 -0.2444
   24MOL   H120 2926   5.993   2.703   3.645  1.6528  0.8901 -1.3184
   24MOL   H121 2927   5.738   2.842   3.545 -0.1372  0.7993 -0.0603
   24MOL   H122 2928   5.867   2.788   3.439  1.4760 -2.1268  0.2009
   25MOL     C1 2929   3.774   0.886   0.324  0.0567  0.6340 -0.1206
   25MOL     C2 2930   3.848   0.867   0.196  0.2345  0.2104  0.7503
   25MOL    Cl3 2931   3.940   1.015   0.172  0.0835  0.1265 -0.4465
   25MOL     H4 2932   3.724   0.792   0.348 -0.9930  0.6636 -2.0564
   25MOL     H5 2933   3.842   0.903   0.408  0.8156 -2.3571 -0.0569
   25MOL     H6 2934   3.922   0.788   0.206  0.7398  0.5954  0.0914
   25MOL     H7 2935   3.700   0.966   0.320  0.3839  0.8468 -2.5060
   25MOL     C8 2936   3.754   0.852   0.070 -0.4796 -0.4354 -0.3953
   25MOL     C9 2937   3.682   0.719   0.053 -0.2382  0.6152  0.8884
   25MOL   Cl10 2938   3.801   0.590   0.006  0.1921 -0.1619  0.1705
   25MOL    H11 2939   3.815   0.877   8.509  0.5039  1.4871  0.8205
   25MOL    H12 2940   3.682   0.933   0.075 -1.3375 -1.2246  0.1283
   25MOL    H13 2941   3.644   0.687   0.150  2.2485  1.9733  2.3635
   25MOL    C14 2942   3.576   0.727   8.472  0.3018 -0.1395  0.3787
   25MOL    C15 2943   3.461   0.825   8.511  0.2437  0.8766  0.8986
   25MOL   Cl16 2944   3.417   0.814   0.156 -0.1386 -0.2549  0.2032
   25MOL    H17 2945   3.549   0.626   8.444 -3.1576  1.1520 -1.2529
   25MOL    H18 2946   3.629   0.771   8.388  0.9345 -1.9872 -0.2148
   25MOL    H19 2947   3.498   0.927   8.494  1.2891  0.5368  1.1197
   25MOL    C20 2948   3.325   0.800   8.441  0.1108 -0.2576  0.2308
   25MOL    C21 2949   3.327   0.823   8.292  0.5653 -0.5852 -0.3813
   25MOL   Cl22 2950   3.383   0.990   8.265 -0.1915  0.4214  0.2110
   25MOL    H23 2951   3.249   0.868   8.478  1.0006  1.3540 -0.8378
   25MOL    H24 2952   3.291   0.697   8.451 -3.1228  0.5974 -1.6795
   25MOL    H25 2953   3.395   0.762   8.233  0.3862  1.1217 -2.3857
   25MOL    C26 2954   3.186   0.811   8.233  0.4633  0.1178  0.1635
   25MOL    C27 2955   3.138   0.668   8.196 -0.0589 -0.1847  0.2459
   25MOL   Cl28 2956   3.251   0.581   8.085  0.0283  0.2545  0.2230
   25MOL    H29 2957   3.197   0.869   8.141  0.1180 -1.2757 -0.7637
   25MOL    H30 2958   3.115   0.869   8.291 -2.5549 -3.2248 -0.0110
   25MOL    H31 2959   3.123   0.600   8.280  1.4371  0.7890  1.3312
   25MOL    C32 2960   2.999   0.686   8.126 -1.1847 -0.1507 -0.1391
   25MOL    C33 2961   2.868   0.685   8.213  0.0531  0.1817  0.4900
   25MOL   Cl34 2962   2.841   0.522   8.270 -0.4883 -0.2011 -0.3129
   25MOL    H35 2963   2.984   0.602   8.058  0.6361 -1.7725  1.3857
   25MOL    H36 2964   2.997   0.768   8.055 -1.4686  1.2619  1.4594
   25MOL    H37 2965   2.890   0.738   8.305 -0.7634 -0.6939  1.2014
   25MOL    C38 2966   2.741   0.748   8.145 -0.3633  0.5331 -0.0777
   25MOL    C39 2967   2.675   0.672   8.023  0.4814 -0.5650 -0.0948
   25MOL   Cl40 2968   2.765   0.686   7.871  0.2069 -0.0974 -0.1067
   25MOL    H41 2969   2.755   0.853   8.123  0.7241  0.4014 -0.0090
   25MOL    H42 2970   2.663   0.756   8.221 -0.5073  2.7886 -0.4316
   25MOL    H43 2971   2.659   0.567   8.044  0.5362 -1.2038 -3.1054
   25MOL    C44 2972   2.534   0.738   7.998 -0.5332  0.9796 -0.3915
   25MOL    C45 2973   2.435   0.722   8.112  0.4331  0.2793  0.0892
   25MOL   Cl46 2974   2.409   0.547   8.120  0.3096  0.6683  0.3738
   25MOL    H47 2975   2.502   0.675   7.915  1.3873 -1.2008  0.4714
   25MOL    H48 2976   2.536   0.841   7.962  1.0852  1.0163 -0.2382
   25MOL    H49 2977   2.465   0.757   8.211  0.5618 -0.6385  0.3898
   25MOL    C50 2978   2.308   0.791   8.066 -1.2302  1.1552  0.1336
   25MOL    C51 2979   2.182   0.776   8.150 -0.2281  0.8144  0.8315
   25MOL   Cl52 2980   2.048   0.861   8.076 -0.1068  0.6564 -0.0757
   25MOL    H53 2981   2.287   0.779   7.960 -1.6520 -0.8218  0.4213
   25MOL    H54 2982   2.324   0.899   8.060  0.5283  0.9325  0.5943
   25MOL    H55 2983   2.149   0.675   8.127  1.7266  0.4564 -0.4948
   25MOL    C56 2984   2.184   0.795   8.303  0.6010  0.2580 -0.0751
   25MOL    C57 2985   2.181   0.935   8.356  0.4996 -0.4316 -0.7349
   25MOL   Cl58 2986   2.340   1.000   8.326  0.3661  0.1185 -0.2590
   25MOL    H59 2987   2.267   0.749   8.356 -0.6028 -0.0814  1.5695
   25MOL    H60 2988   2.095   0.748   8.346  1.0640 -0.3048  0.2757
   25MOL    H61 2989   2.101   0.998   8.316  0.5883 -0.0279 -0.2760
   25MOL    C62 2990   2.144   0.943   8.508  0.1212 -0.6484 -0.1955
   25MOL    C63 2991   2.111   1.079   0.052  0.1191  0.0741  0.6043
   25MOL   Cl64 2992   2.253   1.187   0.067 -0.0450 -0.1024 -0.3654
   25MOL    H65 2993   2.220   0.896   0.044  0.4364  0.7888  0.5457
   25MOL    H66 2994   2.063   0.871   8.521 -0.7232  0.2762 -0.2640
   25MOL    H67 2995   2.037   1.120   8.508 -0.4313 -1.4587  0.2746
   25MOL    C68 2996   2.050   1.064   0.196  0.3333  0.4485 -0.8957
   25MOL    C69 2997   1.983   1.201   0.248 -0.1190  0.7765 -0.1902
   25MOL   Cl70 2998   1.970   1.182   0.424  0.1520  0.0506  0.5229
   25MOL    H71 2999   2.127   1.019   0.259 -0.4959 -2.1822 -1.6957
   25MOL    H72 3000   1.984   0.978   0.192  0.2668  0.4254  0.4220
   25MOL    H73 3001   2.041   1.286   0.213  1.0882  0.1614  0.2856
   25MOL    C74 3002   1.841   1.225   0.191  0.3529 -0.0498  0.3392
   25MOL    C75 3003   1.751   1.320   0.269  0.2163 -0.0597 -0.1627
   25MOL   Cl76 3004   1.602   1.321   0.181 -0.0303  0.0500  0.9749
   25MOL    H77 3005   1.791   1.129   0.199 -1.7777  1.0639  0.7215
   25MOL    H78 3006   1.837   1.253   0.086 -0.0404 -0.4466  0.2454
   25MOL    H79 3007   1.711   1.290   0.366 -2.1786  0.1973 -1.0244
   25MOL    C80 3008   1.807   1.462   0.266  1.0599 -0.2022 -0.0163
   25MOL    C81 3009   1.707   1.558   0.330 -0.0430 -0.3164 -0.0404
   25MOL   Cl82 3010   1.748   1.723   0.300 -0.4744 -0.0037 -0.0599
   25MOL    H83 3011   1.825   1.491   0.162 -1.9206 -0.4263 -0.6308
   25MOL    H84 3012   1.896   1.461   0.328  0.5811 -0.9402  0.6729
   25MOL    H85 3013   1.615   1.552   0.272  0.6161  0.9394 -1.2454
   25MOL    C86 3014   1.691   1.535   0.482  0.3630 -0.8669 -0.3115
   25MOL    C87 3015   1.592   1.637   0.557 -0.4370  0.2342  0.0586
   25MOL   Cl88 3016   1.614   1.597   0.731  0.2207 -0.4898  0.0645
   25MOL    H89 3017   1.794   1.546   0.517 -0.1820  0.4998  0.9064
   25MOL    H90 3018   1.664   1.432   0.506  0.6340 -1.2110 -1.4932
   25MOL    H91 3019   1.616   1.742   0.542 -1.5404  0.6034  0.8042
   25MOL    C92 3020   1.447   1.615   0.511 -0.0594  0.3010  0.3646
   25MOL    C93 3021   1.350   1.702   0.589 -0.1763 -0.0008  0.7633
   25MOL   Cl94 3022   1.187   1.655   0.537 -0.3561 -0.4093 -0.0042
   25MOL    H95 3023   1.419   1.513   0.538  3.7566 -0.6220  1.1579
   25MOL    H96 3024   1.432   1.628   0.404 -0.1632  0.9913  0.4621
   25MOL    H97 3025   1.356   1.670   0.693  2.0742 -0.9110  0.3854
   25MOL    C98 3026   1.359   1.858   0.564  0.3572 -0.2377  0.3849
   25MOL    C99 3027   1.260   1.949   0.637 -0.2916  0.7855 -0.2687
   25MOL  Cl100 3028   1.292   2.112   0.583 -0.1453 -0.0377  0.3708
   25MOL   H101 3029   1.365   1.877   0.457  0.7962  1.0500  0.6298
   25MOL   H102 3030   1.455   1.895   0.600  0.6178 -0.7457  0.2157
   25MOL   H103 3031   1.162   1.914   0.604  0.1541 -0.8945  0.1314
   25MOL   C104 3032   1.274   1.927   0.789 -0.8575  0.0074  0.7638
   25MOL   C105 3033   1.176   2.016   0.870  0.7492  0.5437 -0.4586
   25MOL  Cl106 3034   1.255   2.040   1.033  0.1850  0.0156 -0.1180
   25MOL   H107 3035   1.373   1.966   0.813 -0.5528 -0.5862  0.4863
   25MOL   H108 3036   1.267   1.821   0.817  0.0430  0.0016  0.9879
   25MOL   H109 3037   1.164   2.112   0.820 -1.5429 -0.4583 -1.8921
   25MOL   C110 3038   1.044   1.946   0.888  0.0847  0.4580 -0.1406
   25MOL   C111 3039   0.929   2.014   0.972 -0.3817  0.0965  0.4127
   25MOL  Cl112 3040   0.791   1.898   0.990  0.1835 -0.2440 -0.3932
   25MOL   H113 3041   1.059   1.845   0.923  2.8259  1.4380  1.6828
   25MOL   H114 3042   1.009   1.938   0.785  1.5692 -0.0930 -0.6070
   25MOL   H115 3043   0.976   2.032   1.069  0.1781  1.8343 -0.1544
   25MOL   C116 3044   0.879   2.153   0.924  0.0061 -0.0106 -1.2555
   25MOL   C117 3045   0.787   2.222   1.025 -0.2626  0.6207 -0.6606
   25MOL  Cl118 3046   0.885   2.254   1.180 -0.6702 -0.1860 -0.3706
   25MOL   H119 3047   0.829   2.144   0.828 -2.4674  1.5355 -0.1781
   25MOL   H120 3048   0.966   2.215   0.903  0.9620 -1.4681 -1.6812
   25MOL   H121 3049   0.762   2.324   0.996  0.0452  0.3322 -2.0169
   25MOL   H122 3050   0.697   2.166   1.048  0.9123 -1.2742 -0.5170
   26MOL     C1 3051   5.567   7.525   1.052  0.7395 -0.0210  0.1606
   26MOL     C2 3052   5.439   7.453   0.996  0.4647  0.0927 -0.2412
   26MOL    Cl3 3053   5.466   7.412   0.833 -0.0654  0.6674  0.1894
   26MOL     H4 3054   5.579   7.618   0.997 -3.7474  0.1128 -0.8160
   26MOL     H5 3055   5.569   7.558   1.155 -0.1300  0.0507  0.1599
   26MOL     H6 3056   5.430   7.358   1.050  0.8775 -0.3661 -0.9677
   26MOL     H7 3057   5.656   7.463   1.040  1.6524  1.0261  1.4803
   26MOL     C8 3058   5.321   7.544   1.018 -0.3959  0.5034 -0.2035
   26MOL     C9 3059   5.274   7.553   1.168 -0.3896  0.1752  0.0766
   26MOL   Cl10 3060   5.249   7.388   1.242  0.1552 -0.0678  0.2034
   26MOL    H11 3061   5.242   7.508   0.951 -0.7949  1.0613 -0.0350
   26MOL    H12 3062   5.337   7.647   0.984 -0.6311  1.4395  2.4030
   26MOL    H13 3063   5.346   7.599   1.236 -0.3268  0.5997 -0.2717
   26MOL    C14 3064   5.151   7.640   1.187  0.3626  0.1921  0.3715
   26MOL    C15 3065   5.026   7.572   1.125  0.5132  0.9021  0.4056
   26MOL   Cl16 3066   4.986   7.675   0.979 -0.0591 -0.0614 -0.4078
   26MOL    H17 3067   5.169   7.733   1.132 -3.1137 -0.6488 -2.3013
   26MOL    H18 3068   5.138   7.665   1.292 -0.1102 -0.0099  0.3570
   26MOL    H19 3069   5.055   7.480   1.073  2.0233  0.2265  2.3403
   26MOL    C20 3070   4.902   7.556   1.212 -0.0152 -0.0727  0.7715
   26MOL    C21 3071   4.907   7.446   1.316 -0.0848  0.4120 -0.3400
   26MOL   Cl22 3072   4.907   7.287   1.235 -0.3124  0.3542 -0.0914
   26MOL    H23 3073   4.823   7.536   1.139 -1.3056  0.9951  1.8551
   26MOL    H24 3074   4.873   7.654   1.251 -0.3665 -0.3679  1.2528
   26MOL    H25 3075   5.000   7.457   1.371 -1.7725  1.7150  2.3499
   26MOL    C26 3076   4.791   7.444   1.414  0.3662  0.1585 -0.0389
   26MOL    C27 3077   4.811   7.351   1.535  0.7808 -0.1645 -0.2405
   26MOL   Cl28 3078   4.668   7.304   1.621 -0.0630  0.0637  0.0410
   26MOL    H29 3079   4.698   7.421   1.363 -1.0393  2.3806  1.4230
   26MOL    H30 3080   4.784   7.548   1.449  2.6389  0.4434 -0.3524
   26MOL    H31 3081   4.844   7.253   1.501  2.3583 -0.1484  1.1819
   26MOL    C32 3082   4.914   7.390   1.641 -0.1446  0.3607 -0.3853
   26MOL    C33 3083   4.988   7.269   1.699 -0.6226 -0.0459 -0.8729
   26MOL   Cl34 3084   5.026   7.309   1.862  0.2349  0.4489  0.2042
   26MOL    H35 3085   4.856   7.438   1.721 -1.8105 -1.3025 -0.5517
   26MOL    H36 3086   4.993   7.453   1.600  0.3427 -0.3496 -0.5552
   26MOL    H37 3087   4.916   7.188   1.711 -1.1547  0.8368  2.4400
   26MOL    C38 3088   5.114   7.225   1.620  0.7113 -0.3945 -0.5520
   26MOL    C39 3089   5.192   7.109   1.690 -0.1982  0.2476  0.6849
   26MOL   Cl40 3090   5.345   7.075   1.597  0.0835 -0.0175 -0.0850
   26MOL    H41 3091   5.181   7.310   1.608 -0.1858  0.1858 -1.5244
   26MOL    H42 3092   5.088   7.197   1.518 -1.5613  1.1484 -0.4381
   26MOL    H43 3093   5.217   7.141   1.791 -0.5008  1.5812  0.3368
   26MOL    C44 3094   5.100   6.983   1.698  0.0328 -0.0284 -0.4869
   26MOL    C45 3095   5.065   6.932   1.558  0.6864  0.2837  0.3466
   26MOL   Cl46 3096   4.909   6.999   1.513  0.3293  0.0303 -0.1503
   26MOL    H47 3097   5.020   7.003   1.769  0.5413  0.7876 -0.1255
   26MOL    H48 3098   5.154   6.909   1.758  2.5259  0.4520 -2.0636
   26MOL    H49 3099   5.140   6.944   1.480  0.9563 -0.8631  0.4147
   26MOL    C50 3100   5.044   6.781   1.569  0.2273 -0.0710 -0.0692
   26MOL    C51 3101   5.174   6.698   1.576  0.4092 -0.3551  0.6588
   26MOL   Cl52 3102   5.248   6.697   1.416 -0.2322  0.3395 -0.3037
   26MOL    H53 3103   4.991   6.747   1.479  0.6139  1.7340 -0.9873
   26MOL    H54 3104   4.969   6.753   1.643 -0.5492 -0.3078 -0.9287
   26MOL    H55 3105   5.254   6.750   1.629  1.7878 -1.9764  0.2102
   26MOL    C56 3106   5.153   6.553   1.614  0.2957 -0.0528 -0.3803
   26MOL    C57 3107   5.281   6.462   1.623 -0.2002  0.2282 -0.2901
   26MOL   Cl58 3108   5.216   6.299   1.658  0.1658  0.1213 -0.3018
   26MOL    H59 3109   5.092   6.518   1.530  0.9302  2.1071 -1.7909
   26MOL    H60 3110   5.094   6.543   1.705  1.1114 -0.1210  0.1451
   26MOL    H61 3111   5.327   6.454   1.525 -1.5525  2.2125 -1.1153
   26MOL    C62 3112   5.381   6.510   1.733 -0.7729 -0.6396 -0.3160
   26MOL    C63 3113   5.522   6.460   1.706  0.4874 -0.1281 -0.4418
   26MOL   Cl64 3114   5.535   6.286   1.741  0.1013  0.2431  0.0649
   26MOL    H65 3115   5.344   6.499   1.835  0.8335 -1.3033  0.2095
   26MOL    H66 3116   5.390   6.617   1.717 -1.2394 -0.3579  1.2011
   26MOL    H67 3117   5.555   6.475   1.603 -1.6732  0.5324 -1.0772
   26MOL    C68 3118   5.620   6.533   1.800 -0.6585  0.3913  0.0562
   26MOL    C69 3119   5.769   6.505   1.774  0.2346 -0.0670  0.3049
   26MOL   Cl70 3120   5.871   6.588   1.899  0.2512  0.1131 -0.1881
   26MOL    H71 3121   5.589   6.519   1.904 -1.8794  0.7128 -0.2539
   26MOL    H72 3122   5.597   6.636   1.773 -0.1505 -0.1043 -2.3116
   26MOL    H73 3123   5.793   6.400   1.788 -2.3388 -0.4225  2.3224
   26MOL    C74 3124   5.819   6.532   1.625 -0.5631 -0.1244  0.1996
   26MOL    C75 3125   5.836   6.407   1.535  0.5102 -0.8426  0.2178
   26MOL   Cl76 3126   5.972   6.297   1.596 -0.3924  0.0802 -0.0479
   26MOL    H77 3127   5.914   6.586   1.628  0.3536 -1.6728 -0.6599
   26MOL    H78 3128   5.751   6.607   1.584  1.0520  1.4889  0.4211
   26MOL    H79 3129   5.749   6.344   1.557 -0.7422  0.8498  0.2398
   26MOL    C80 3130   5.868   6.447   1.388  0.6001 -0.0943 -0.3629
   26MOL    C81 3131   5.883   6.315   1.299  0.4788 -0.4756 -0.6434
   26MOL   Cl82 3132   5.920   6.375   1.132  0.0656  0.0586 -0.5053
   26MOL    H83 3133   5.961   6.504   1.395  0.7335 -0.0164 -2.3739
   26MOL    H84 3134   5.798   6.517   1.344  2.0021  0.3979 -1.8431
   26MOL    H85 3135   5.971   6.258   1.329 -0.1258 -2.0276 -1.7328
   26MOL    C86 3136   5.750   6.234   1.295 -0.2513 -0.4408  0.0298
   26MOL    C87 3137   5.632   6.299   1.223  0.3173  0.0651 -0.0408
   26MOL   Cl88 3138   5.535   6.387   1.342 -0.1487 -0.4716 -0.2464
   26MOL    H89 3139   5.722   6.202   1.395  1.0160 -0.8023  0.2829
   26MOL    H90 3140   5.768   6.142   1.240 -1.8370 -0.4438 -0.5053
   26MOL    H91 3141   5.673   6.371   1.153  1.8266  0.0839  0.8415
   26MOL    C92 3142   5.543   6.200   1.144  0.2764 -0.5808 -0.2837
   26MOL    C93 3143   5.614   6.129   1.024  0.1117  0.6917 -0.5393
   26MOL   Cl94 3144   5.579   6.222   0.876 -0.0205  0.3126 -0.2502
   26MOL    H95 3145   5.448   6.247   1.116  0.8575  1.2865  0.7737
   26MOL    H96 3146   5.511   6.120   1.211  1.2118 -0.9087 -0.2261
   26MOL    H97 3147   5.722   6.130   1.040  0.2961 -0.0863 -1.7073
   26MOL    C98 3148   5.572   5.987   0.996  0.3599  0.3422  0.2064
   26MOL    C99 3149   5.625   5.924   0.858 -0.0061  0.7386 -0.3189
   26MOL  Cl100 3150   5.572   5.761   0.850  0.0231 -0.5068 -0.0254
   26MOL   H101 3151   5.464   5.982   1.000  0.3491  0.2250 -0.2328
   26MOL   H102 3152   5.589   5.918   1.079 -2.2795  0.5851  0.9865
   26MOL   H103 3153   5.593   5.967   0.764  2.4925  2.2875 -0.5243
   26MOL   C104 3154   5.778   5.910   0.852 -0.1585  0.2674 -0.0120
   26MOL   C105 3155   5.841   5.897   0.711  0.6659 -0.2027  0.6422
   26MOL  Cl106 3156   6.018   5.862   0.726  0.0454  0.0233  0.1887
   26MOL   H107 3157   5.832   5.850   0.925  0.4404  0.0557 -0.6362
   26MOL   H108 3158   5.820   6.007   0.881  1.4796 -1.4448  3.6063
   26MOL   H109 3159   5.795   5.814   0.659  0.7002  0.7904 -0.9941
   26MOL   C110 3160   5.820   6.024   0.622 -0.0881  0.3731 -0.6192
   26MOL   C111 3161   5.715   6.017   0.514 -0.1613 -0.2919  0.2778
   26MOL  Cl112 3162   5.805   5.980   0.364  0.0913  0.3051 -0.6802
   26MOL   H113 3163   5.914   6.072   0.594  0.9037  0.3284  2.4567
   26MOL   H114 3164   5.797   6.109   0.686  1.5555 -0.2600  0.8310
   26MOL   H115 3165   5.641   5.939   0.536 -1.0552  0.9326  1.7305
   26MOL   C116 3166   5.645   6.150   0.493  0.0720  0.6523 -0.3086
   26MOL   C117 3167   5.540   6.153   0.380  0.1727 -0.0488 -0.4842
   26MOL  Cl118 3168   5.463   6.314   0.381  0.1046 -0.4256  0.0358
   26MOL   H119 3169   5.711   6.237   0.487  3.4632 -1.8319 -0.8218
   26MOL   H120 3170   5.597   6.164   0.589 -1.1598 -3.1341 -0.2864
   26MOL   H121 3171   5.578   6.126   0.281  1.3348 -0.5395  0.0758
   26MOL   H122 3172   5.459   6.083   0.399  0.1980  0.2454  0.7060
   27MOL     C1 3173   7.174   1.786   0.745 -0.5220  0.4014  0.4485
   27MOL     C2 3174   7.213   1.827   0.891 -0.4600 -0.7873 -0.3243
   27MOL    Cl3 3175   7.255   1.666   0.954  0.0749 -0.0822  0.0223
   27MOL     H4 3176   7.233   1.699   0.719 -0.1524  0.0173  2.4457
   27MOL     H5 3177   7.067   1.768   0.738 -0.0811 -1.4800 -1.6820
   27MOL     H6 3178   7.307   1.881   0.903 -0.7407 -0.3510 -0.0763
   27MOL     H7 3179   7.197   1.869   0.678  1.2199 -0.2681  0.1882
   27MOL     C8 3180   7.099   1.874   0.978  0.4188 -0.2097  0.1132
   27MOL     C9 3181   7.084   2.021   0.977 -0.2262 -0.1183 -0.2717
   27MOL   Cl10 3182   7.228   2.086   1.064  0.3894 -0.0654 -0.4539
   27MOL    H11 3183   7.128   1.846   1.080  0.5089  2.0654  0.7469
   27MOL    H12 3184   7.008   1.827   0.941  0.6857 -0.3078 -0.4246
   27MOL    H13 3185   7.067   2.063   0.878 -1.6121  1.0260  0.4311
   27MOL    C14 3186   6.960   2.071   1.052  0.4648 -0.0361  0.0415
   27MOL    C15 3187   6.924   2.223   1.038 -0.0923 -0.0459 -0.2056
   27MOL   Cl16 3188   6.761   2.257   1.112 -0.0471 -0.4585  0.0818
   27MOL    H17 3189   6.974   2.039   1.155  3.1606  1.8633  0.3187
   27MOL    H18 3190   6.875   2.013   1.015  0.5340  0.1299 -0.3778
   27MOL    H19 3191   6.990   2.283   1.102 -3.0160  2.0159  0.9701
   27MOL    C20 3192   6.927   2.272   0.893 -0.0225  0.0138 -0.0982
   27MOL    C21 3193   6.866   2.418   0.879  0.0533 -0.9425  0.1071
   27MOL   Cl22 3194   6.897   2.472   0.714  0.0498 -0.0050  0.3456
   27MOL    H23 3195   6.861   2.211   0.831  1.1103 -0.4928 -0.8126
   27MOL    H24 3196   7.025   2.264   0.847 -0.1927 -0.8552 -0.3239
   27MOL    H25 3197   6.757   2.407   0.879 -0.2293  1.6456  1.7166
   27MOL    C26 3198   6.904   2.514   0.995 -0.5683 -0.7013  0.2384
   27MOL    C27 3199   7.031   2.596   0.981 -0.4056 -0.1208 -0.0581
   27MOL   Cl28 3200   7.187   2.500   0.989  0.2150 -0.0004 -0.3228
   27MOL    H29 3201   6.889   2.482   1.098 -1.4027 -0.1867  0.2771
   27MOL    H30 3202   6.822   2.586   0.993  0.1377  0.3146  3.4916
   27MOL    H31 3203   7.033   2.638   0.880  1.2752 -2.6351 -1.1165
   27MOL    C32 3204   7.048   2.709   1.084  0.4229 -0.0277  0.4791
   27MOL    C33 3205   7.123   2.835   1.040 -0.3748  0.0581  0.6736
   27MOL   Cl34 3206   7.056   2.910   0.894 -0.4459 -0.2151 -0.4254
   27MOL    H35 3207   7.103   2.670   1.170  1.2562  0.4028  0.1511
   27MOL    H36 3208   6.949   2.735   1.121  0.2074 -0.7168  0.3888
   27MOL    H37 3209   7.110   2.912   1.116  0.9752  1.0284 -0.0633
   27MOL    C38 3210   7.278   2.808   1.015 -0.1831 -1.0274  0.3648
   27MOL    C39 3211   7.359   2.780   1.142 -0.3407  0.8787  0.0512
   27MOL   Cl40 3212   7.333   2.916   1.257 -0.2814 -0.1772  0.6180
   27MOL    H41 3213   7.326   2.893   0.968  1.7901 -1.9486  0.6835
   27MOL    H42 3214   7.302   2.723   0.953  0.9342 -0.0683 -0.5387
   27MOL    H43 3215   7.319   2.685   1.177 -0.9343  0.7789 -0.8742
   27MOL    C44 3216   7.516   2.765   1.120 -0.1283  0.1674  0.2818
   27MOL    C45 3217   7.573   2.688   1.245 -0.0214  0.7387  0.2460
   27MOL   Cl46 3218   7.738   2.749   1.268 -0.1475  0.1911 -0.0014
   27MOL    H47 3219   7.552   2.867   1.106  0.5407  0.0670  1.2372
   27MOL    H48 3220   7.543   2.709   1.030  0.3167 -0.8825  1.0585
   27MOL    H49 3221   7.509   2.715   1.328 -1.5106 -0.5377 -0.4726
   27MOL    C50 3222   7.600   2.537   1.218  0.3329 -0.2808 -0.5854
   27MOL    C51 3223   7.477   2.448   1.191 -0.7557 -0.1209  0.1246
   27MOL   Cl52 3224   7.390   2.453   1.337  0.0845  0.2787 -0.2648
   27MOL    H53 3225   7.650   2.507   1.310 -1.1830 -1.7770 -0.2385
   27MOL    H54 3226   7.673   2.519   1.139 -2.9809 -0.2493 -3.7737
   27MOL    H55 3227   7.432   2.498   1.105 -0.3463 -0.8449 -0.5110
   27MOL    C56 3228   7.530   2.299   1.156  0.2494 -0.1917  0.0641
   27MOL    C57 3229   7.495   2.254   1.010 -0.1891 -0.2717 -0.1572
   27MOL   Cl58 3230   7.542   2.081   0.993  0.4898 -0.0512  0.1133
   27MOL    H59 3231   7.472   2.235   1.222  0.1586  0.5478  0.7050
   27MOL    H60 3232   7.636   2.283   1.174  0.1434 -0.6154  0.3174
   27MOL    H61 3233   7.389   2.269   0.990 -0.1509  1.8997  1.0553
   27MOL    C62 3234   7.577   2.352   0.907 -0.4419  0.2656 -0.1481
   27MOL    C63 3235   7.583   2.292   0.760 -0.2547 -0.4177 -0.6921
   27MOL   Cl64 3236   7.664   2.418   0.663  0.1184 -0.0822  0.1243
   27MOL    H65 3237   7.681   2.371   0.935 -0.1820 -2.9644  1.3275
   27MOL    H66 3238   7.521   2.445   0.903 -1.9307 -0.6479 -1.3620
   27MOL    H67 3239   7.644   2.202   0.760 -0.7396 -0.8295  3.1398
   27MOL    C68 3240   7.448   2.257   0.698 -0.2945  0.2301  0.0314
   27MOL    C69 3241   7.445   2.149   0.597 -0.1172  0.2509  0.2642
   27MOL   Cl70 3242   7.452   2.000   0.684 -0.1460  0.3620 -0.0024
   27MOL    H71 3243   7.407   2.354   0.669 -1.2320 -0.3664 -0.6956
   27MOL    H72 3244   7.372   2.228   0.771  0.6198  0.5866  1.1266
   27MOL    H73 3245   7.351   2.142   0.542 -0.2494  0.9617  0.3917
   27MOL    C74 3246   7.536   2.150   0.474  0.0173  0.1408 -0.1525
   27MOL    C75 3247   7.495   2.080   0.341 -0.6494  0.5369  1.0534
   27MOL   Cl76 3248   7.623   2.121   0.229  0.4821 -0.1994  0.0765
   27MOL    H77 3249   7.636   2.114   0.499 -1.0075 -1.1806  2.2480
   27MOL    H78 3250   7.548   2.257   0.455 -1.6101  0.3057 -0.3146
   27MOL    H79 3251   7.488   1.972   0.356  0.1037 -0.0202 -2.1809
   27MOL    C80 3252   7.355   2.125   0.286 -0.2138  0.5032  0.1130
   27MOL    C81 3253   7.239   2.027   0.317 -0.4317 -0.1280  0.6028
   27MOL   Cl82 3254   7.257   1.875   0.219 -0.2519 -0.0038 -0.0644
   27MOL    H83 3255   7.360   2.142   0.179  0.4045  0.3111  0.1102
   27MOL    H84 3256   7.338   2.219   0.338  2.0336  0.1017  1.6731
   27MOL    H85 3257   7.240   1.994   0.421  0.3184  0.9618  0.9536
   27MOL    C86 3258   7.095   2.079   0.292  0.5994  0.0629  0.8933
   27MOL    C87 3259   6.981   2.032   0.392 -0.3082  0.5179 -0.1039
   27MOL   Cl88 3260   7.007   2.106   0.551  0.2514 -0.1082 -0.0978
   27MOL    H89 3261   7.058   2.053   0.193 -1.8133  0.4184  1.6886
   27MOL    H90 3262   7.097   2.188   0.290 -0.7931  0.0695 -0.2803
   27MOL    H91 3263   6.887   2.073   0.354 -0.7352  0.8095  1.2488
   27MOL    C92 3264   6.957   1.881   0.403 -0.0948  0.3446  0.1613
   27MOL    C93 3265   6.915   1.809   0.275 -0.2287 -0.4512 -0.7249
   27MOL   Cl94 3266   6.753   1.875   0.246 -0.1656 -0.1930 -0.1052
   27MOL    H95 3267   6.879   1.857   0.476 -0.6102  3.9005  0.8489
   27MOL    H96 3268   7.040   1.833   0.455 -0.7712 -1.6872 -0.5854
   27MOL    H97 3269   6.982   1.823   0.190  1.5641 -0.3931  0.6612
   27MOL    C98 3270   6.877   1.666   0.309 -0.0379 -0.3038  0.6180
   27MOL    C99 3271   6.992   1.568   0.341  0.5089 -0.0932 -0.4295
   27MOL  Cl100 3272   7.075   1.548   0.184  0.4227 -0.0505  0.0564
   27MOL   H101 3273   6.832   1.620   0.222  2.6170 -0.0212 -0.9561
   27MOL   H102 3274   6.806   1.669   0.392 -0.5022  0.3040  0.2087
   27MOL   H103 3275   7.061   1.612   0.413 -0.2623 -0.2699  0.4236
   27MOL   C104 3276   6.948   1.429   0.401  0.1809 -0.3388  0.2293
   27MOL   C105 3277   6.902   1.415   0.546  0.2310 -0.3598 -0.0834
   27MOL  Cl106 3278   7.027   1.485   0.654  0.4836  0.1556 -0.4108
   27MOL   H107 3279   7.034   1.366   0.378 -0.7907 -0.9728 -1.7773
   27MOL   H108 3280   6.872   1.398   0.329 -1.2078  2.1997  0.5399
   27MOL   H109 3281   6.812   1.474   0.565  1.6186  1.3250  1.4826
   27MOL   C110 3282   6.881   1.268   0.584 -0.9111  0.0956 -0.1320
   27MOL   C111 3283   6.783   1.200   0.480 -0.1250  0.0917  0.2476
   27MOL  Cl112 3284   6.624   1.285   0.479 -0.0338  0.3031  0.1130
   27MOL   H113 3285   6.844   1.246   0.684  1.2314 -2.9279  0.0366
   27MOL   H114 3286   6.977   1.217   0.587 -2.4705 -2.8890  2.6012
   27MOL   H115 3287   6.818   1.208   0.377 -0.2170 -2.9972 -0.0659
   27MOL   C116 3288   6.759   1.049   0.502 -0.6297  0.0593 -0.2296
   27MOL   C117 3289   6.705   0.977   0.377 -0.0030 -0.4461  0.3525
   27MOL  Cl118 3290   6.714   0.800   0.388 -0.4144  0.0936  0.2337
   27MOL   H119 3291   6.705   1.039   0.597  0.1901  1.3762  0.3868
   27MOL   H120 3292   6.855   1.012   0.537 -1.4132 -1.1152  0.7568
   27MOL   H121 3293   6.605   1.021   0.369 -0.1617 -0.6950  0.9169
   27MOL   H122 3294   6.768   1.006   0.293  0.8370  0.6458  1.3421
   28MOL     C1 3295   2.476   4.592   7.935 -0.0112  0.0789 -0.1491
   28MOL     C2 3296   2.559   4.702   7.872 -0.0590  0.4861  0.1698
   28MOL    Cl3 3297   2.527   4.850   7.971 -0.0951 -0.3941 -0.2029
   28MOL     H4 3298   2.489   4.575   8.042  0.9750 -0.5203 -0.3547
   28MOL     H5 3299   2.370   4.613   7.924  0.3496  1.9606 -0.1001
   28MOL     H6 3300   2.666   4.681   7.876  0.1466  1.7646  2.3557
   28MOL     H7 3301   2.493   4.495   7.888  1.3550  1.4261 -2.5194
   28MOL     C8 3302   2.523   4.732   7.728 -0.3016 -0.1449 -0.5391
   28MOL     C9 3303   2.574   4.627   7.616 -0.0104  0.5611 -0.2554
   28MOL   Cl10 3304   2.753   4.618   7.588  0.0741  0.2141 -0.3855
   28MOL    H11 3305   2.547   4.834   7.701 -2.7087  0.2143 -1.4287
   28MOL    H12 3306   2.414   4.731   7.732 -0.3653  0.7750 -1.7947
   28MOL    H13 3307   2.537   4.531   7.651 -1.3669  1.0546 -0.2853
   28MOL    C14 3308   2.515   4.656   7.482 -0.5327  0.2610 -0.0516
   28MOL    C15 3309   2.359   4.665   7.459  1.0135  0.6093 -0.6737
   28MOL   Cl16 3310   2.303   4.499   7.504  0.0057 -0.2895 -0.2778
   28MOL    H17 3311   2.552   4.590   7.403 -0.4294  3.6960 -2.9986
   28MOL    H18 3312   2.557   4.751   7.449 -0.9827  0.3032 -0.5036
   28MOL    H19 3313   2.319   4.728   7.538  0.6491  0.7094 -0.9409
   28MOL    C20 3314   2.306   4.704   7.326  0.1655  0.0307  0.4739
   28MOL    C21 3315   2.323   4.862   7.299 -0.8963  0.8562 -0.0202
   28MOL   Cl22 3316   2.216   4.950   7.415 -0.0284  0.0209  0.1091
   28MOL    H23 3317   2.202   4.670   7.323  0.4783 -0.8256 -1.0734
   28MOL    H24 3318   2.366   4.647   7.255 -0.3147  0.0898  0.0122
   28MOL    H25 3319   2.420   4.894   7.336 -0.6606  1.3714 -1.0716
   28MOL    C26 3320   2.297   4.922   7.155  0.1067  0.1578  0.0049
   28MOL    C27 3321   2.394   4.865   7.048 -0.4893  0.3643 -0.5868
   28MOL   Cl28 3322   2.568   4.904   7.068  0.2673 -0.2942 -0.1199
   28MOL    H29 3323   2.312   5.030   7.165 -1.9964  0.5358 -0.6370
   28MOL    H30 3324   2.193   4.903   7.129 -0.1074 -0.4416  1.2828
   28MOL    H31 3325   2.394   4.757   7.054 -0.1696  0.3813 -0.2263
   28MOL    C32 3326   2.353   4.905   6.907 -0.2144 -0.6402  0.1626
   28MOL    C33 3327   2.232   4.820   6.866  0.2689  0.6763 -0.1373
   28MOL   Cl34 3328   2.278   4.690   6.751 -0.0793  0.7345  0.0031
   28MOL    H35 3329   2.436   4.871   6.845 -0.6048 -1.4888  0.0895
   28MOL    H36 3330   2.340   5.010   6.885  1.3221  0.0316  2.3046
   28MOL    H37 3331   2.200   4.767   6.955 -1.2054 -1.0065 -1.6375
   28MOL    C38 3332   2.113   4.894   6.800  0.3368  0.0651  0.2775
   28MOL    C39 3333   2.028   4.974   6.904 -0.4875 -0.0507 -0.2246
   28MOL   Cl40 3334   1.937   4.857   6.995 -0.1531  0.1624 -0.0823
   28MOL    H41 3335   2.038   4.826   6.760 -1.2890  2.5719 -1.0736
   28MOL    H42 3336   2.150   4.957   6.720 -0.6578 -1.3931 -1.3552
   28MOL    H43 3337   2.097   5.023   6.973  0.0133 -2.4371  1.0390
   28MOL    C44 3338   1.916   5.060   6.839 -0.0848  0.0454  0.1803
   28MOL    C45 3339   1.978   5.188   6.772  0.3860 -0.3219 -0.5073
   28MOL   Cl46 3340   2.047   5.292   6.901  0.1601 -0.2066 -0.8128
   28MOL    H47 3341   1.838   5.091   6.908 -0.1582 -1.5102  0.8217
   28MOL    H48 3342   1.872   4.993   6.765  3.2752 -1.1728 -0.8273
   28MOL    H49 3343   2.059   5.170   6.703 -0.1929  0.0857 -1.3035
   28MOL    C50 3344   1.871   5.263   6.695 -0.6864 -0.2868 -0.1087
   28MOL    C51 3345   1.809   5.202   6.572  0.0413  1.2064  0.6976
   28MOL   Cl52 3346   1.935   5.122   6.469  0.1259 -0.2253 -0.3241
   28MOL    H53 3347   1.926   5.349   6.657 -1.3508 -0.0175 -0.4644
   28MOL    H54 3348   1.801   5.307   6.765 -1.2801  2.0954 -2.1278
   28MOL    H55 3349   1.740   5.122   6.596 -1.7334  1.2747 -3.6890
   28MOL    C56 3350   1.728   5.284   6.486  0.3906 -0.1129  0.5995
   28MOL    C57 3351   1.607   5.352   6.554 -0.0659  0.1525  0.3675
   28MOL   Cl58 3352   1.494   5.237   6.626 -0.1465 -0.0802  0.2692
   28MOL    H59 3353   1.694   5.221   6.404 -1.2448 -1.4232  2.2352
   28MOL    H60 3354   1.794   5.360   6.444  0.9412 -0.7887  0.2455
   28MOL    H61 3355   1.648   5.409   6.638  0.3336 -0.8899  0.8894
   28MOL    C62 3356   1.531   5.446   6.460  0.2278  0.0620  0.2997
   28MOL    C63 3357   1.595   5.586   6.450  0.4908 -0.3972  0.5927
   28MOL   Cl64 3358   1.591   5.668   6.610 -0.4756  0.1691 -0.2709
   28MOL    H65 3359   1.424   5.459   6.476  0.1325  0.7527 -0.8758
   28MOL    H66 3360   1.541   5.405   6.359  1.8158  0.2417  0.3752
   28MOL    H67 3361   1.699   5.573   6.420  0.6016  1.5809  0.0427
   28MOL    C68 3362   1.522   5.684   6.354  0.2132  0.8223  0.2214
   28MOL    C69 3363   1.564   5.835   6.360 -0.3839 -0.1489 -0.1552
   28MOL   Cl70 3364   1.464   5.939   6.254 -0.2081  0.1936 -0.4188
   28MOL    H71 3365   1.415   5.684   6.376  0.6416  0.1434  2.4790
   28MOL    H72 3366   1.541   5.656   6.251 -0.2372 -1.0743  0.6409
   28MOL    H73 3367   1.545   5.871   6.461 -3.1112  1.1146 -1.0518
   28MOL    C74 3368   1.699   5.858   6.305  0.1796 -0.3142  0.6043
   28MOL    C75 3369   1.807   5.837   6.411  0.0453 -0.4388  0.3351
   28MOL   Cl76 3370   1.804   5.974   6.532  0.0285 -0.1464 -0.1493
   28MOL    H77 3371   1.709   5.959   6.266 -1.0696 -0.2570  0.3966
   28MOL    H78 3372   1.719   5.792   6.221  0.3112 -2.0782  1.9886
   28MOL    H79 3373   1.788   5.743   6.462 -0.4621 -1.6395 -2.0102
   28MOL    C80 3374   1.952   5.836   6.360 -0.4815  0.5916  0.7355
   28MOL    C81 3375   1.996   5.710   6.277 -0.1091  0.1478  0.3149
   28MOL   Cl82 3376   1.971   5.560   6.373  0.3346 -0.2770  0.3841
   28MOL    H83 3377   2.018   5.832   6.446 -0.3411 -1.9524  0.5340
   28MOL    H84 3378   1.982   5.926   6.306 -1.3950 -0.5283 -1.7065
   28MOL    H85 3379   1.929   5.708   6.191  1.5286 -1.2895 -0.9749
   28MOL    C86 3380   2.153   5.699   6.241 -0.2005 -1.1040 -0.3337
   28MOL    C87 3381   2.208   5.832   6.181 -0.5666 -0.6027 -0.5258
   28MOL   Cl88 3382   2.126   5.896   6.032  0.4038 -0.0307 -0.0861
   28MOL    H89 3383   2.179   5.614   6.179 -0.0008 -1.2385 -0.0665
   28MOL    H90 3384   2.198   5.679   6.338 -1.0990 -0.1546  0.2950
   28MOL    H91 3385   2.199   5.912   6.254 -0.5118 -0.9862 -0.1042
   28MOL    C92 3386   2.356   5.806   6.155 -0.4001 -0.0141  0.5914
   28MOL    C93 3387   2.442   5.938   6.154  1.0084  0.3186 -0.0243
   28MOL   Cl94 3388   2.603   5.901   6.089 -0.3050 -0.4777  0.2468
   28MOL    H95 3389   2.368   5.748   6.064 -1.4376  1.2278 -0.3462
   28MOL    H96 3390   2.410   5.741   6.224  0.9184 -0.0492 -0.4570
   28MOL    H97 3391   2.401   6.007   6.080  1.7042 -0.4346 -1.1249
   28MOL    C98 3392   2.461   5.993   6.296  0.3583 -0.5122  0.1206
   28MOL    C99 3393   2.391   6.131   6.335 -0.4381  0.5645  0.3910
   28MOL  Cl100 3394   2.492   6.260   6.264 -0.1906  0.1534 -0.1991
   28MOL   H101 3395   2.564   5.995   6.331  1.2921 -0.9486 -2.5193
   28MOL   H102 3396   2.418   5.917   6.362  0.7674 -3.0880 -2.4837
   28MOL   H103 3397   2.292   6.137   6.288 -0.2336 -0.8810 -0.2406
   28MOL   C104 3398   2.377   6.162   6.490 -0.2331  1.1648 -0.0860
   28MOL   C105 3399   2.280   6.062   6.559  0.3596 -0.4129 -0.2242
   28MOL  Cl106 3400   2.116   6.115   6.512  0.0187  0.2195  0.6747
   28MOL   H107 3401   2.338   6.262   6.505  0.7202  1.9664 -2.6275
   28MOL   H108 3402   2.471   6.149   6.544 -1.6225 -0.6794  2.0026
   28MOL   H109 3403   2.301   5.959   6.531  1.5445  0.1187 -1.3459
   28MOL   C110 3404   2.290   6.060   6.713  1.2270  0.5868 -0.4247
   28MOL   C111 3405   2.175   6.001   6.792  0.4473  0.7853  0.1765
   28MOL  Cl112 3406   2.221   6.025   6.968  0.4966  0.1424 -0.2069
   28MOL   H113 3407   2.291   6.163   6.746 -2.7610  0.1892  1.1820
   28MOL   H114 3408   2.380   6.008   6.748  0.4707  1.2566  2.5687
   28MOL   H115 3409   2.083   6.056   6.771  0.8455  0.7323 -1.8280
   28MOL   C116 3410   2.162   5.851   6.757  0.3513 -0.5590 -0.3713
   28MOL   C117 3411   2.062   5.780   6.845 -0.4531  0.0464  0.4631
   28MOL  Cl118 3412   2.035   5.620   6.764 -0.1488  0.2726  0.0918
   28MOL   H119 3413   2.255   5.794   6.764 -0.8619 -2.6706 -1.0705
   28MOL   H120 3414   2.129   5.853   6.653 -3.9889  0.3426  0.9320
   28MOL   H121 3415   2.086   5.762   6.950  1.1011 -1.0213 -0.0570
   28MOL   H122 3416   1.972   5.841   6.841 -0.9898 -0.6060  2.2216
   29MOL     C1 3417   3.518   6.450   1.740  0.1307  1.1834  0.3778
   29MOL     C2 3418   3.626   6.396   1.832  0.4762  0.2455 -0.8056
   29MOL    Cl3 3419   3.570   6.246   1.898  0.0187  0.0159 -0.1069
   29MOL     H4 3420   3.431   6.465   1.804  0.6976 -2.5466  2.1954
   29MOL     H5 3421   3.549   6.543   1.694  2.1411  1.0020  1.3269
   29MOL     H6 3422   3.712   6.378   1.768 -0.2047 -4.6596 -0.4778
   29MOL     H7 3423   3.503   6.387   1.653 -0.8654 -0.8605  1.9786
   29MOL     C8 3424   3.660   6.487   1.956  0.4775 -0.3224 -0.0201
   29MOL     C9 3425   3.694   6.632   1.919  0.3915  0.0467 -1.0855
   29MOL   Cl10 3426   3.824   6.627   1.792 -0.0868 -0.0866 -0.3478
   29MOL    H11 3427   3.743   6.441   2.009  1.3898 -0.7702 -1.7844
   29MOL    H12 3428   3.571   6.490   2.019 -0.6527 -0.2920 -1.5851
   29MOL    H13 3429   3.612   6.683   1.867 -0.1302 -1.5087 -1.8314
   29MOL    C14 3430   3.744   6.717   2.036 -1.0365  0.7079  0.3973
   29MOL    C15 3431   3.637   6.757   2.134  0.1632  0.3652  0.0371
   29MOL   Cl16 3432   3.512   6.855   2.061 -0.0249  0.0830  0.2622
   29MOL    H17 3433   3.787   6.811   2.003  1.2360 -0.6505 -0.6698
   29MOL    H18 3434   3.823   6.671   2.095 -1.0158  1.0078  0.6002
   29MOL    H19 3435   3.576   6.671   2.163  1.4766 -0.2548  1.0191
   29MOL    C20 3436   3.681   6.833   2.262 -0.8106  0.2506  0.1228
   29MOL    C21 3437   3.780   6.753   2.358  0.1570 -0.2636 -0.0854
   29MOL   Cl22 3438   3.698   6.600   2.425 -0.0738 -0.4640  0.0858
   29MOL    H23 3439   3.594   6.876   2.311 -0.4592  1.7036 -0.5150
   29MOL    H24 3440   3.732   6.926   2.239 -0.0421  0.2833  1.8782
   29MOL    H25 3441   3.872   6.719   2.311  0.2403 -1.3980  0.8867
   29MOL    C26 3442   3.816   6.838   2.485  0.2391 -0.2219  0.6356
   29MOL    C27 3443   3.919   6.958   2.472  0.6103 -0.1364 -0.1675
   29MOL   Cl28 3444   4.061   6.898   2.391 -0.2959  0.2613  0.1944
   29MOL    H29 3445   3.844   6.766   2.561  1.1008 -0.7054 -0.1190
   29MOL    H30 3446   3.724   6.881   2.525  0.5029  1.6335 -0.6358
   29MOL    H31 3447   3.875   7.043   2.421  0.3615 -1.2156 -1.7694
   29MOL    C32 3448   3.959   7.005   2.619 -0.1506 -0.3190  0.2021
   29MOL    C33 3449   3.859   7.088   2.698  0.3377  0.4869 -0.4861
   29MOL   Cl34 3450   3.868   7.265   2.655  0.0648  0.1215  0.1426
   29MOL    H35 3451   4.046   7.069   2.608  0.3737 -1.0842 -0.0743
   29MOL    H36 3452   3.992   6.917   2.674 -1.0677 -0.0805  1.1428
   29MOL    H37 3453   3.759   7.053   2.671  0.5082 -3.3064  3.3252
   29MOL    C38 3454   3.883   7.076   2.845 -0.3635  0.3814  0.7030
   29MOL    C39 3455   3.831   6.937   2.898 -0.5813  0.0318 -0.1745
   29MOL   Cl40 3456   3.658   6.926   2.863  0.1938  0.0247  0.0228
   29MOL    H41 3457   3.827   7.148   2.904 -0.9895 -0.9086  1.7181
   29MOL    H42 3458   3.988   7.100   2.864  0.4461 -1.0557 -1.7845
   29MOL    H43 3459   3.870   6.850   2.845 -0.4941 -0.5059  0.7568
   29MOL    C44 3460   3.871   6.913   3.046 -0.7434  0.1749 -0.2246
   29MOL    C45 3461   3.868   6.771   3.093  0.0157  0.2143 -0.6417
   29MOL   Cl46 3462   3.711   6.689   3.093 -0.2062  0.4633  0.1972
   29MOL    H47 3463   3.816   6.983   3.109 -0.2851  0.4592 -0.1364
   29MOL    H48 3464   3.972   6.951   3.060 -0.2520 -0.5071 -1.8552
   29MOL    H49 3465   3.923   6.721   3.014 -0.7569 -0.5779 -0.6968
   29MOL    C50 3466   3.941   6.756   3.230  0.0796 -0.3490  0.3052
   29MOL    C51 3467   3.940   6.606   3.276 -0.0555 -0.6461  0.3906
   29MOL   Cl52 3468   3.958   6.583   3.449  0.2615  0.0503 -0.2184
   29MOL    H53 3469   3.888   6.810   3.309  0.5814 -0.1012  0.4779
   29MOL    H54 3470   4.037   6.807   3.236 -0.0123 -0.1938  0.4464
   29MOL    H55 3471   3.843   6.561   3.252 -1.2976  1.7969  0.6648
   29MOL    C56 3472   4.043   6.514   3.208 -0.1063 -0.0722  0.4167
   29MOL    C57 3473   4.193   6.539   3.231  0.4509 -0.1659 -0.1849
   29MOL   Cl58 3474   4.249   6.646   3.099 -0.0136  0.0363  0.0901
   29MOL    H59 3475   4.034   6.510   3.099 -2.4193 -3.5887  0.6709
   29MOL    H60 3476   4.007   6.412   3.222  0.2451  0.0450  2.2732
   29MOL    H61 3477   4.209   6.596   3.323  1.6936 -1.0338  0.1648
   29MOL    C62 3478   4.271   6.415   3.226 -0.8402 -0.1697 -0.1594
   29MOL    C63 3479   4.234   6.306   3.326 -0.3716 -0.4222 -0.3911
   29MOL   Cl64 3480   4.270   6.379   3.495  0.0850  0.3034  0.0969
   29MOL    H65 3481   4.378   6.435   3.230 -0.7867 -0.4087 -0.3714
   29MOL    H66 3482   4.256   6.375   3.126 -0.3745 -1.0944  0.1339
   29MOL    H67 3483   4.127   6.287   3.324 -0.4549  0.1593 -2.3116
   29MOL    C68 3484   4.306   6.167   3.323  0.3902 -0.8587 -0.3725
   29MOL    C69 3485   4.235   6.064   3.233  0.3627  0.2869 -0.0600
   29MOL   Cl70 3486   4.087   6.007   3.314  0.1580  0.5400  0.1157
   29MOL    H71 3487   4.302   6.131   3.426 -0.8396 -1.0114 -0.4717
   29MOL    H72 3488   4.410   6.189   3.298 -0.0269 -0.3384 -1.6644
   29MOL    H73 3489   4.202   6.113   3.141 -2.1449  0.3211  0.8364
   29MOL    C74 3490   4.330   5.938   3.184 -0.7133 -0.2594 -0.4911
   29MOL    C75 3491   4.263   5.829   3.098 -0.2384  0.6388 -0.5915
   29MOL   Cl76 3492   4.372   5.685   3.083  0.2287  0.0364 -0.1600
   29MOL    H77 3493   4.365   5.889   3.274  0.7752  0.2902 -0.7624
   29MOL    H78 3494   4.417   5.979   3.133  1.0214 -3.1010  0.1031
   29MOL    H79 3495   4.186   5.802   3.171  0.3178 -0.7149 -0.5019
   29MOL    C80 3496   4.214   5.877   2.951 -0.0474  0.2199 -1.0770
   29MOL    C81 3497   4.109   5.778   2.885 -0.3897 -0.2478 -0.0611
   29MOL   Cl82 3498   4.106   5.811   2.709 -0.3106  0.2638 -0.0565
   29MOL    H83 3499   4.298   5.885   2.883 -0.7106  0.4787 -1.8674
   29MOL    H84 3500   4.176   5.979   2.950  1.1379  0.6683 -1.9982
   29MOL    H85 3501   4.148   5.678   2.901 -0.2742 -0.0882  0.6953
   29MOL    C86 3502   3.970   5.801   2.953 -0.3671  0.1692  0.5989
   29MOL    C87 3503   3.860   5.721   2.870  0.4558  0.4137 -0.0761
   29MOL   Cl88 3504   3.794   5.823   2.742  0.5659  0.4669  0.4392
   29MOL    H89 3505   3.941   5.906   2.963 -0.7198 -0.0354  1.7653
   29MOL    H90 3506   3.973   5.758   3.053 -0.7428 -2.7782 -0.6053
   29MOL    H91 3507   3.906   5.635   2.822 -0.5051 -0.8723  1.3070
   29MOL    C92 3508   3.740   5.664   2.961  0.1545 -0.2035  0.3222
   29MOL    C93 3509   3.623   5.606   2.878  0.0613  0.1049  0.2521
   29MOL   Cl94 3510   3.485   5.566   2.980  0.3093 -0.1569 -0.0355
   29MOL    H95 3511   3.699   5.740   3.028  0.0369 -0.6391  0.7461
   29MOL    H96 3512   3.794   5.596   3.027  2.4996  0.8414 -0.4559
   29MOL    H97 3513   3.586   5.684   2.811  1.4189  2.8125  2.5540
   29MOL    C98 3514   3.658   5.488   2.797 -0.7223 -0.6646 -0.6353
   29MOL    C99 3515   3.656   5.508   2.644 -0.0577  0.0131 -0.1318
   29MOL  Cl100 3516   3.494   5.567   2.586 -0.0042 -0.1981  0.2949
   29MOL   H101 3517   3.587   5.410   2.826 -0.5456 -1.2143 -1.6489
   29MOL   H102 3518   3.756   5.448   2.822 -1.0204 -0.5377  0.7650
   29MOL   H103 3519   3.731   5.584   2.621 -0.0920 -0.0838 -0.5741
   29MOL   C104 3520   3.691   5.375   2.578  0.0569  0.0664 -0.6139
   29MOL   C105 3521   3.709   5.399   2.428 -0.1854 -0.5113  0.5938
   29MOL  Cl106 3522   3.715   5.254   2.328  0.0271 -0.3226  0.2814
   29MOL   H107 3523   3.611   5.303   2.598  1.4022 -1.2992 -0.0699
   29MOL   H108 3524   3.787   5.344   2.618  0.0684  0.3128 -0.4467
   29MOL   H109 3525   3.618   5.443   2.386  0.4597  0.2467 -0.0321
   29MOL   C110 3526   3.834   5.485   2.382  0.1156  0.2329  0.1428
   29MOL   C111 3527   3.973   5.438   2.445 -0.4401 -0.2702  0.1634
   29MOL  Cl112 3528   3.989   5.517   2.606  0.1421  0.1315 -0.5108
   29MOL   H113 3529   3.818   5.593   2.377 -1.3114  0.1036  1.5498
   29MOL   H114 3530   3.833   5.465   2.275 -1.0706  1.5476 -0.1023
   29MOL   H115 3531   3.982   5.330   2.446 -2.7461 -0.4967  1.0648
   29MOL   C116 3532   4.083   5.496   2.353 -0.3717 -0.8522  0.4616
   29MOL   C117 3533   4.222   5.443   2.388 -0.6861  0.1169  0.5788
   29MOL  Cl118 3534   4.240   5.270   2.355 -0.1825 -0.3741 -0.0566
   29MOL   H119 3535   4.075   5.603   2.336  0.3005 -1.1866 -2.0436
   29MOL   H120 3536   4.057   5.467   2.252  1.8462  2.1119 -1.0161
   29MOL   H121 3537   4.291   5.500   2.326  0.3968  2.0746  3.4638
   29MOL   H122 3538   4.243   5.458   2.494 -0.0780 -2.1234  0.7791
   30MOL     C1 3539   4.086   3.412   1.818 -0.2506 -0.1622 -0.2594
   30MOL     C2 3540   4.102   3.513   1.925  0.1620 -0.2065 -0.0293
   30MOL    Cl3 3541   3.992   3.473   2.053 -0.7501  0.4576 -0.1379
   30MOL     H4 3542   3.984   3.416   1.779 -0.8178  2.9122  1.4230
   30MOL     H5 3543   4.153   3.431   1.734  0.5288 -0.7438  0.2218
   30MOL     H6 3544   4.209   3.510   1.948  0.5205  0.2744 -1.5826
   30MOL     H7 3545   4.115   3.315   1.859  0.5468 -0.2577 -1.0328
   30MOL     C8 3546   4.063   3.659   1.885 -0.2230 -0.7357  0.6587
   30MOL     C9 3547   4.162   3.739   1.799 -0.1500 -0.8623 -0.2289
   30MOL   Cl10 3548   4.169   3.675   1.633  0.2788 -0.2808 -0.2442
   30MOL    H11 3549   4.046   3.716   1.976 -2.3631  0.4049 -0.4044
   30MOL    H12 3550   3.968   3.662   1.831 -1.2071 -1.7539  2.3135
   30MOL    H13 3551   4.111   3.835   1.797  1.2106 -0.1516 -2.4901
   30MOL    C14 3552   4.314   3.757   1.851  0.0675  0.0745  0.2516
   30MOL    C15 3553   4.321   3.851   1.969 -0.3102 -0.0365  0.1423
   30MOL   Cl16 3554   4.287   4.023   1.921  0.3579 -0.0692  0.4130
   30MOL    H17 3555   4.378   3.785   1.767  0.5062  2.2405  1.2852
   30MOL    H18 3556   4.349   3.658   1.880  1.8774  0.1678 -1.4712
   30MOL    H19 3557   4.238   3.834   2.038  0.1665 -2.2929  0.1903
   30MOL    C20 3558   4.459   3.845   2.048  0.0847  0.3902  0.2578
   30MOL    C21 3559   4.576   3.880   1.956  0.6050 -0.2467 -0.1116
   30MOL   Cl22 3560   4.628   3.746   1.849  0.1771  0.1884 -0.2270
   30MOL    H23 3561   4.471   3.742   2.081 -1.2835  0.3216  0.5459
   30MOL    H24 3562   4.446   3.924   2.122  0.0638  2.5573 -1.9841
   30MOL    H25 3563   4.552   3.972   1.903 -0.1506 -0.2633  0.1849
   30MOL    C26 3564   4.694   3.921   2.049 -0.2525 -0.6033  1.0088
   30MOL    C27 3565   4.826   3.965   1.980  0.6453  0.1279 -0.2537
   30MOL   Cl28 3566   4.941   4.022   2.106  0.2090 -0.0992 -0.0762
   30MOL    H29 3567   4.706   3.835   2.114 -0.2656 -0.5973  1.0194
   30MOL    H30 3568   4.663   4.005   2.111  1.8465 -1.3116  3.0667
   30MOL    H31 3569   4.869   3.879   1.930  2.4936  0.9595 -0.1597
   30MOL    C32 3570   4.816   4.065   1.858  0.7312 -0.4783  0.0488
   30MOL    C33 3571   4.938   4.075   1.759  0.3598  0.1633  0.0018
   30MOL   Cl34 3572   4.948   3.912   1.681 -0.7672 -0.3344 -0.1589
   30MOL    H35 3573   4.810   4.163   1.906  0.4446 -0.7844  0.6506
   30MOL    H36 3574   4.727   4.042   1.799 -0.1511 -1.1851  1.6277
   30MOL    H37 3575   4.911   4.140   1.676 -1.1659  0.5853  0.8058
   30MOL    C38 3576   5.066   4.134   1.816 -0.1369  0.3289  0.8113
   30MOL    C39 3577   5.190   4.141   1.718  0.2762  0.5795  0.1953
   30MOL   Cl40 3578   5.147   4.237   1.567 -0.2249 -0.0551  0.0715
   30MOL    H41 3579   5.102   4.061   1.888  2.5821  1.7058  0.9364
   30MOL    H42 3580   5.062   4.235   1.858 -1.1227 -0.2230  2.0457
   30MOL    H43 3581   5.262   4.201   1.774  1.7210 -0.9724  0.0377
   30MOL    C44 3582   5.260   4.010   1.681 -0.0638 -0.2572 -0.2743
   30MOL    C45 3583   5.385   4.028   1.589 -0.7119  0.3955  0.1074
   30MOL   Cl46 3584   5.435   3.868   1.530 -0.2332 -0.1257 -0.0952
   30MOL    H47 3585   5.194   3.937   1.634  0.4431  0.3692 -2.0234
   30MOL    H48 3586   5.295   3.976   1.778  0.8674  0.5914 -0.3070
   30MOL    H49 3587   5.351   4.082   1.501  1.6028 -1.2633 -1.8624
   30MOL    C50 3588   5.501   4.100   1.643  0.3914 -0.0776 -0.3411
   30MOL    C51 3589   5.612   4.121   1.538 -0.8848 -0.2930  0.4795
   30MOL   Cl52 3590   5.754   4.168   1.639  0.3577  0.4906  0.2735
   30MOL    H53 3591   5.538   4.045   1.730  1.2463  2.0064  0.6556
   30MOL    H54 3592   5.470   4.189   1.697 -0.8292 -0.0757 -1.0362
   30MOL    H55 3593   5.650   4.035   1.483 -0.5006  0.9571 -1.2609
   30MOL    C56 3594   5.575   4.235   1.449  0.0717 -0.3735 -0.3473
   30MOL    C57 3595   5.688   4.300   1.361  0.1534  0.1881 -0.6496
   30MOL   Cl58 3596   5.609   4.418   1.250 -0.1581 -0.3595  0.1230
   30MOL    H59 3597   5.552   4.320   1.514  1.6374  0.2499 -0.5642
   30MOL    H60 3598   5.489   4.205   1.390  0.2237  0.0293 -0.7780
   30MOL    H61 3599   5.761   4.345   1.428  2.0703 -0.6488 -2.1101
   30MOL    C62 3600   5.768   4.196   1.279  0.1773  0.6506 -0.1009
   30MOL    C63 3601   5.859   4.250   1.165 -0.1665 -0.3709 -0.1092
   30MOL   Cl64 3602   5.928   4.098   1.093  0.0176 -0.2332 -0.4549
   30MOL    H65 3603   5.696   4.132   1.228  1.7527 -1.6401  0.4676
   30MOL    H66 3604   5.824   4.128   1.342  2.3277 -0.1914 -2.8660
   30MOL    H67 3605   5.791   4.292   1.091  0.0238  0.0542 -0.0406
   30MOL    C68 3606   5.969   4.347   1.219 -0.0424  0.0404  0.3110
   30MOL    C69 3607   6.054   4.410   1.110  0.5407  0.7019 -0.0777
   30MOL   Cl70 3608   6.177   4.509   1.193  0.3796  0.5309  0.0844
   30MOL    H71 3609   6.026   4.290   1.292  0.1299  1.0030  0.9334
   30MOL    H72 3610   5.927   4.431   1.274  1.3501  0.3198  0.9474
   30MOL    H73 3611   6.105   4.327   1.063 -0.7369 -1.3260  2.0048
   30MOL    C74 3612   5.976   4.507   1.009  0.0054 -0.1802  0.2763
   30MOL    C75 3613   6.055   4.566   0.891 -0.7085  0.3123  0.7398
   30MOL   Cl76 3614   5.944   4.689   0.815  0.0949 -0.2060 -0.0106
   30MOL    H77 3615   5.932   4.589   1.065  0.1237  2.0273 -2.7177
   30MOL    H78 3616   5.887   4.453   0.977 -0.1260  0.4274 -0.3998
   30MOL    H79 3617   6.135   4.625   0.936 -1.8407  1.1452  1.6993
   30MOL    C80 3618   6.097   4.457   0.788  0.5115 -0.1530  0.3068
   30MOL    C81 3619   6.240   4.457   0.729  0.2099  0.1369 -0.4782
   30MOL   Cl82 3620   6.255   4.586   0.604  0.0045 -0.2049  0.1669
   30MOL    H83 3621   6.025   4.453   0.707  2.0019 -0.3911 -1.0511
   30MOL    H84 3622   6.091   4.360   0.837  0.2632 -0.5559 -0.5098
   30MOL    H85 3623   6.301   4.485   0.815 -1.1253 -1.5888  1.0776
   30MOL    C86 3624   6.284   4.331   0.655 -0.3159  0.5475  0.3180
   30MOL    C87 3625   6.308   4.206   0.735  0.2587 -0.1062 -0.6195
   30MOL   Cl88 3626   6.445   4.224   0.852  0.4688  0.5327  0.0311
   30MOL    H89 3627   6.361   4.352   0.582 -1.2183 -2.7035 -1.6556
   30MOL    H90 3628   6.212   4.301   0.579  0.8304  2.3486 -1.5010
   30MOL    H91 3629   6.221   4.176   0.794 -0.6936  0.2798 -1.8208
   30MOL    C92 3630   6.346   4.095   0.637 -0.1677  0.4671  0.5402
   30MOL    C93 3631   6.345   3.947   0.692  0.9388 -0.2025  0.5571
   30MOL   Cl94 3632   6.438   3.848   0.574  0.1885  0.3985  0.0283
   30MOL    H95 3633   6.446   4.112   0.596  0.4176  0.4191  1.9245
   30MOL    H96 3634   6.274   4.094   0.555  0.8838 -3.3778 -0.4606
   30MOL    H97 3635   6.391   3.946   0.791  0.3721 -0.9643  0.8141
   30MOL    C98 3636   6.203   3.884   0.701  0.6088 -0.7095 -0.2786
   30MOL    C99 3637   6.196   3.736   0.751  0.3956 -0.5308 -0.7462
   30MOL  Cl100 3638   6.028   3.688   0.705  0.1728 -0.3931  0.1650
   30MOL   H101 3639   6.147   3.877   0.608  0.5147  1.0796 -0.3733
   30MOL   H102 3640   6.149   3.952   0.766 -0.4282 -1.0366 -0.7824
   30MOL   H103 3641   6.265   3.671   0.697  1.9099 -0.0176  0.5681
   30MOL   C104 3642   6.224   3.733   0.899  0.0111 -0.5895  0.4742
   30MOL   C105 3643   6.169   3.607   0.972 -0.5416 -0.3995 -0.2447
   30MOL  Cl106 3644   6.219   3.596   1.145  0.4684 -0.3702  0.2984
   30MOL   H107 3645   6.175   3.814   0.954  0.3721  1.7168 -2.4749
   30MOL   H108 3646   6.332   3.744   0.908 -0.0916  1.9190 -0.8323
   30MOL   H109 3647   6.060   3.604   0.970 -0.5163 -2.4094 -2.2565
   30MOL   C110 3648   6.218   3.476   0.901 -0.7431 -0.6390 -0.3494
   30MOL   C111 3649   6.181   3.345   0.968 -0.8380 -0.9499 -0.2537
   30MOL  Cl112 3650   6.245   3.210   0.875 -0.2473 -0.3244  0.1181
   30MOL   H113 3651   6.326   3.482   0.888 -0.7999  0.1233 -0.5238
   30MOL   H114 3652   6.190   3.484   0.796  0.8618  0.6857 -0.6934
   30MOL   H115 3653   6.225   3.347   1.068 -1.0017 -3.1231 -0.1152
   30MOL   C116 3654   6.026   3.322   0.984 -0.5369  0.0683 -0.2549
   30MOL   C117 3655   5.935   3.305   0.858 -0.0306 -0.2490  0.4491
   30MOL  Cl118 3656   5.773   3.237   0.904 -0.3412 -0.0601  0.0330
   30MOL   H119 3657   5.982   3.403   1.043 -1.0220 -0.0219 -0.4861
   30MOL   H120 3658   6.002   3.234   1.043  0.3760 -0.8784 -1.2964
   30MOL   H121 3659   5.908   3.403   0.819  2.6929  0.8036  1.0699
   30MOL   H122 3660   5.980   3.251   0.774 -0.4069  1.3868 -0.8102
   31MOL     C1 3661   7.441   3.971   1.580 -0.3454  0.1384 -0.1778
   31MOL     C2 3662   7.526   4.072   1.516 -0.6551 -0.5262  0.1299
   31MOL    Cl3 3663   7.665   3.972   1.457  0.3207 -0.0826  0.1455
   31MOL     H4 3664   7.490   3.904   1.650 -1.1938 -1.1525 -0.7952
   31MOL     H5 3665   7.355   4.013   1.631 -0.8914  1.4948 -2.1467
   31MOL     H6 3666   7.492   4.113   1.421 -0.7944 -1.7281 -0.3586
   31MOL     H7 3667   7.411   3.899   1.504 -1.3919  0.5230 -0.1399
   31MOL     C8 3668   7.577   4.181   1.616 -0.7185  0.1518 -0.0346
   31MOL     C9 3669   7.606   4.322   1.547  0.3806  0.0833 -0.3017
   31MOL   Cl10 3670   7.452   4.370   1.469  0.2066  0.0488  0.2367
   31MOL    H11 3671   7.665   4.133   1.659 -0.8590 -0.1303 -0.0580
   31MOL    H12 3672   7.498   4.203   1.688 -0.5676  1.1670 -0.1785
   31MOL    H13 3673   7.629   4.398   1.621  4.2235 -0.8486 -0.4341
   31MOL    C14 3674   7.716   4.320   1.445 -0.7477 -0.4773  0.2115
   31MOL    C15 3675   7.854   4.289   1.507  1.0092 -0.3765  0.3485
   31MOL   Cl16 3676   7.912   4.432   1.590 -0.1036  0.2036 -0.0922
   31MOL    H17 3677   7.712   4.408   1.380 -0.8840 -0.8391 -0.2715
   31MOL    H18 3678   7.696   4.237   1.377  2.7926 -0.1136 -1.3969
   31MOL    H19 3679   7.849   4.213   1.585 -3.5918 -0.8637 -0.2456
   31MOL    C20 3680   7.955   4.233   1.400 -0.3072 -0.6484  0.3872
   31MOL    C21 3681   8.065   4.135   1.443  0.0752  0.3036 -0.8678
   31MOL   Cl22 3682   8.180   4.127   1.305  0.2376 -0.2651  0.2199
   31MOL    H23 3683   8.005   4.320   1.359  0.5978 -0.5838  1.6262
   31MOL    H24 3684   7.894   4.170   1.334  1.1362 -1.6075 -0.0608
   31MOL    H25 3685   8.121   4.186   1.522  2.2349 -1.4821 -1.1839
   31MOL    C26 3686   8.006   3.997   1.479 -0.6079 -0.0055 -0.8236
   31MOL    C27 3687   8.111   3.890   1.510  0.0396  0.4301 -0.6103
   31MOL   Cl28 3688   8.023   3.734   1.509 -0.2964  0.1616 -0.1338
   31MOL    H29 3689   7.968   3.945   1.391 -0.2670  0.1035 -1.0336
   31MOL    H30 3690   7.926   4.003   1.553  1.3237  1.0446  1.2676
   31MOL    H31 3691   8.195   3.883   1.441  1.9102 -0.4437  1.6689
   31MOL    C32 3692   8.174   3.899   1.650  0.0479  0.6534  0.7309
   31MOL    C33 3693   8.075   3.880   1.771 -0.0089 -1.1482  0.0151
   31MOL   Cl34 3694   8.008   4.045   1.803  0.2191  0.2248 -0.2061
   31MOL    H35 3695   8.236   3.988   1.663  0.4652  0.3540  0.7857
   31MOL    H36 3696   8.251   3.823   1.661  0.7842  1.3794  0.7182
   31MOL    H37 3697   7.991   3.813   1.753  0.8114 -2.1173 -0.3106
   31MOL    C38 3698   8.146   3.839   1.909  0.1115  0.1094  0.9354
   31MOL    C39 3699   8.216   3.697   1.913  0.3558 -0.7865 -0.6529
   31MOL   Cl40 3700   8.102   3.567   1.868  0.0036 -0.1151  0.3147
   31MOL    H41 3701   8.069   3.832   1.986 -1.0399 -2.1628 -0.3477
   31MOL    H42 3702   8.219   3.916   1.929 -0.8213  0.9497  1.1491
   31MOL    H43 3703   8.305   3.696   1.849  0.2800 -1.3108 -0.7480
   31MOL    C44 3704   8.263   3.659   2.057 -0.1031  0.9062 -0.3426
   31MOL    C45 3705   8.390   3.720   2.118  0.0101 -0.1898 -0.1934
   31MOL   Cl46 3706   0.004   3.711   2.002 -0.2875 -0.0131 -0.0796
   31MOL    H47 3707   8.276   3.551   2.056  0.9452  0.9480  2.7259
   31MOL    H48 3708   8.181   3.684   2.125 -0.7675 -3.2566  0.5108
   31MOL    H49 3709   8.380   3.827   2.131 -2.1198 -0.4145  0.0608
   31MOL    C50 3710   8.423   3.665   2.259  0.1773 -0.6131  0.1511
   31MOL    C51 3711   0.003   3.753   2.328  0.2116  0.0819  0.1421
   31MOL   Cl52 3712   0.041   3.688   2.488  0.0109 -0.2827  0.4327
   31MOL    H53 3713   8.462   3.566   2.238  1.3741  0.0620 -0.8633
   31MOL    H54 3714   8.344   3.649   2.332  2.3264 -0.7890  2.4986
   31MOL    H55 3715   0.094   3.748   2.269 -0.2734 -1.7991 -0.4841
   31MOL    C56 3716   8.507   3.909   2.350 -0.4479  0.9290  0.2075
   31MOL    C57 3717   8.381   3.965   2.423  0.3475 -0.3408 -0.2100
   31MOL   Cl58 3718   8.234   3.902   2.343  0.0488  0.0287 -0.1922
   31MOL    H59 3719   8.508   3.946   2.248 -2.0597 -1.0369 -0.5626
   31MOL    H60 3720   0.074   3.940   2.399  0.1767  0.8014 -0.8781
   31MOL    H61 3721   8.366   3.941   2.528  0.3361  0.7965  0.0545
   31MOL    C62 3722   8.381   4.120   2.414 -0.4195 -0.1823 -0.4726
   31MOL    C63 3723   8.462   4.200   2.516 -0.1211 -0.9971  0.1541
   31MOL   Cl64 3724   8.371   4.196   2.667 -0.2154  0.0333  0.2506
   31MOL    H65 3725   8.274   4.139   2.422 -0.6064 -1.2593 -0.3267
   31MOL    H66 3726   8.402   4.146   2.311  0.8796  2.2788  0.3708
   31MOL    H67 3727   0.036   4.158   2.531  0.7413 -0.1726 -2.9518
   31MOL    C68 3728   8.475   4.352   2.484 -0.3330  0.1958  0.0394
   31MOL    C69 3729   0.066   4.383   2.384  0.8079  0.3037 -0.0064
   31MOL   Cl70 3730   0.215   4.373   2.479 -0.1338  0.0409  0.1344
   31MOL    H71 3731   8.500   4.404   2.576  0.7834  1.1542 -0.7980
   31MOL    H72 3732   8.383   4.393   2.441 -0.0016  1.3536  0.4302
   31MOL    H73 3733   0.076   4.308   2.306 -0.6315 -0.1054  0.1794
   31MOL    C74 3734   0.069   4.520   2.307  0.2497 -0.2686 -0.3377
   31MOL    C75 3735   8.467   4.537   2.222 -0.0390  0.5396 -0.8027
   31MOL   Cl76 3736   8.449   4.390   2.121 -0.0231  0.2587 -0.2222
   31MOL    H77 3737   0.167   4.530   2.260 -0.0747 -1.6497 -1.3615
   31MOL    H78 3738   0.068   4.590   2.391 -0.2883 -1.0673  0.3271
   31MOL    H79 3739   8.388   4.541   2.297  1.0386 -0.0890  0.3876
   31MOL    C80 3740   8.469   4.663   2.136 -0.6539 -0.0320  0.3404
   31MOL    C81 3741   8.471   4.794   2.211  0.2843 -0.7206  0.3031
   31MOL   Cl82 3742   8.373   4.788   2.355 -0.3558  0.1936  0.4657
   31MOL    H83 3743   8.374   4.649   2.083 -0.5607 -2.8459  0.8032
   31MOL    H84 3744   0.023   4.665   2.062 -1.2093  1.6436 -0.2220
   31MOL    H85 3745   0.046   4.815   2.247  0.3811  1.2119 -1.0463
   31MOL    C86 3746   8.413   4.903   2.114 -1.0650 -0.3949 -0.3450
   31MOL    C87 3747   8.428   5.047   2.157 -0.0835 -0.0293 -0.1357
   31MOL   Cl88 3748   8.331   5.153   2.048 -0.1727 -0.1508 -0.0353
   31MOL    H89 3749   8.310   4.873   2.096 -1.0227 -0.0089 -1.2538
   31MOL    H90 3750   8.456   4.906   2.014  1.0001 -2.7190  0.4038
   31MOL    H91 3751   8.374   5.058   2.251  0.1314 -0.1904  0.0074
   31MOL    C92 3752   0.051   5.101   2.171  0.6484  0.1583  1.0210
   31MOL    C93 3753   0.135   5.097   2.043 -0.1007  0.2042  0.9798
   31MOL   Cl94 3754   0.201   4.939   1.997 -0.0933  0.0671 -0.0034
   31MOL    H95 3755   0.103   5.039   2.244 -0.5000 -0.3182  1.4484
   31MOL    H96 3756   0.045   5.203   2.207  0.1233  0.6147 -0.3124
   31MOL    H97 3757   0.077   5.132   1.958  0.4677 -0.6103  0.2480
   31MOL    C98 3758   0.267   5.179   2.059 -0.6968  0.6483  0.5698
   31MOL    C99 3759   0.250   5.336   2.067  0.1854 -0.2459 -0.0662
   31MOL  Cl100 3760   0.188   5.404   1.919 -0.5963  0.1506 -0.1753
   31MOL   H101 3761   0.324   5.161   1.968 -2.3202  1.6221 -0.6692
   31MOL   H102 3762   0.304   5.142   2.155 -1.0018 -2.1922 -0.3690
   31MOL   H103 3763   0.172   5.352   2.140 -1.3053 -1.7072 -1.3089
   31MOL   C104 3764   0.370   5.412   2.110 -0.4783 -0.2269 -0.9427
   31MOL   C105 3765   0.336   5.543   2.191 -0.6101  0.3881  0.2418
   31MOL  Cl106 3766   0.497   5.633   2.207 -0.1822 -0.0210 -0.5501
   31MOL   H107 3767   0.421   5.439   2.017  1.2292 -2.3069 -0.6502
   31MOL   H108 3768   0.437   5.347   2.167 -0.2691 -0.7071 -1.7189
   31MOL   H109 3769   0.274   5.604   2.125  0.7198  0.0131 -1.3780
   31MOL   C110 3770   0.280   5.526   2.333 -0.4978  0.4080  0.6183
   31MOL   C111 3771   0.365   5.449   2.436  0.1853  0.0659 -0.1693
   31MOL  Cl112 3772   0.345   5.274   2.416 -0.0191  0.3102  0.2763
   31MOL   H113 3773   0.182   5.479   2.325 -0.7555  0.7021  1.8675
   31MOL   H114 3774   0.263   5.627   2.371 -2.8590 -0.1848  1.1948
   31MOL   H115 3775   0.473   5.463   2.422  0.1837 -1.3554 -1.7417
   31MOL   C116 3776   0.331   5.495   2.577  0.5308  0.1092 -0.2579
   31MOL   C117 3777   0.427   5.432   2.681 -0.2203 -0.0951 -0.0793
   31MOL  Cl118 3778   0.589   5.519   2.677 -0.0522 -0.0250  0.4893
   31MOL   H119 3779   0.226   5.465   2.583  0.1677  0.8658 -2.5473
   31MOL   H120 3780   0.331   5.601   2.601  2.5115 -0.5193  2.7461
   31MOL   H121 3781   0.394   5.444   2.785  0.5818 -0.3758  0.2178
   31MOL   H122 3782   0.438   5.325   2.663 -1.6970 -0.0312 -1.3923
   32MOL     C1 3783   8.473   6.302   6.028 -0.1245  0.5758 -0.3305
   32MOL     C2 3784   8.360   6.330   6.130 -0.1993  0.1071 -0.6144
   32MOL    Cl3 3785   8.249   6.464   6.080 -0.1098 -0.3258  0.2488
   32MOL     H4 3786   0.001   6.395   6.010  0.6204  0.0683 -0.7555
   32MOL     H5 3787   0.015   6.220   6.056  1.6448  1.4908 -1.8253
   32MOL     H6 3788   8.300   6.239   6.142  1.7360 -0.8798  2.1880
   32MOL     H7 3789   8.435   6.270   5.931  1.7777 -0.2913 -0.8177
   32MOL     C8 3790   8.416   6.367   6.274  0.1037  0.4073  0.6488
   32MOL     C9 3791   8.449   6.236   6.359 -0.5956  0.1680 -0.9646
   32MOL   Cl10 3792   8.296   6.170   6.411 -0.2673 -0.3076  0.1314
   32MOL    H11 3793   8.353   6.432   6.334 -0.3216  0.7097 -0.1129
   32MOL    H12 3794   8.507   6.425   6.258  0.8586 -0.9574 -0.1687
   32MOL    H13 3795   8.500   6.171   6.289  0.5820 -0.9329  0.8726
   32MOL    C14 3796   0.019   6.241   6.477  0.8784 -0.6720  0.8636
   32MOL    C15 3797   0.165   6.284   6.441 -0.4282  0.4996 -0.4208
   32MOL   Cl16 3798   0.247   6.158   6.353  0.3839 -0.1232 -0.0933
   32MOL    H17 3799   0.033   6.140   6.516 -2.1178 -1.4269  0.0671
   32MOL    H18 3800   8.497   6.303   6.553  1.9046 -0.4639  1.3360
   32MOL    H19 3801   0.163   6.370   6.375 -0.1103  0.3267 -0.6538
   32MOL    C20 3802   0.250   6.327   6.563 -0.0011 -0.2276 -0.9273
   32MOL    C21 3803   0.281   6.221   6.677  0.4243  0.0025 -0.1627
   32MOL   Cl22 3804   0.142   6.219   6.793 -0.3317  0.2869 -0.1044
   32MOL    H23 3805   0.206   6.413   6.614 -1.6181 -1.2735 -0.5124
   32MOL    H24 3806   0.350   6.359   6.534  1.0797 -1.5745  1.2234
   32MOL    H25 3807   0.280   6.121   6.636 -1.2012  0.0216 -0.2151
   32MOL    C26 3808   0.408   6.242   6.763  0.1475  0.2381  0.2525
   32MOL    C27 3809   0.421   6.368   6.839  0.1132  0.0231  0.5737
   32MOL   Cl28 3810   0.505   6.494   6.738  0.2982  0.1226  0.0997
   32MOL    H29 3811   0.494   6.241   6.696 -0.0289  2.0568 -0.0479
   32MOL    H30 3812   0.412   6.161   6.836  2.6820 -0.0765 -0.1875
   32MOL    H31 3813   0.321   6.408   6.859 -0.7046 -1.0116 -1.2792
   32MOL    C32 3814   0.512   6.355   6.971  0.1469  0.2416  0.1149
   32MOL    C33 3815   0.645   6.288   6.951  0.1717 -0.2345 -0.4154
   32MOL   Cl34 3816   0.620   6.111   6.998  0.4453  0.3376 -0.4414
   32MOL    H35 3817   0.454   6.313   7.053 -0.5763 -1.3466 -1.2019
   32MOL    H36 3818   0.534   6.457   7.003  1.7392 -0.8522  2.7722
   32MOL    H37 3819   0.672   6.288   6.846 -1.1604 -2.5387 -0.7981
   32MOL    C38 3820   0.765   6.348   7.031  0.1056 -0.2209 -0.2967
   32MOL    C39 3821   0.887   6.261   7.036  0.2279 -0.6610 -0.2417
   32MOL   Cl40 3822   1.008   6.357   7.132 -0.1723  0.1410  0.2058
   32MOL    H41 3823   0.730   6.365   7.132  0.1329  0.4864 -0.4071
   32MOL    H42 3824   0.796   6.445   6.993 -0.4297  0.4492  0.9738
   32MOL    H43 3825   0.869   6.174   7.100  0.5256 -2.4900 -2.5922
   32MOL    C44 3826   0.936   6.205   6.900  0.1183 -0.2124  0.8904
   32MOL    C45 3827   1.010   6.300   6.803 -0.1705 -0.6332 -1.0963
   32MOL   Cl46 3828   0.909   6.433   6.758  0.1326 -0.2643 -0.1041
   32MOL    H47 3829   0.853   6.164   6.843  0.8214  1.4612 -1.4459
   32MOL    H48 3830   1.000   6.118   6.915  0.6735 -0.3772 -2.1363
   32MOL    H49 3831   1.098   6.344   6.849 -1.7016  1.0472  0.3216
   32MOL    C50 3832   1.052   6.218   6.674 -0.2227 -0.1027 -0.2874
   32MOL    C51 3833   1.088   6.290   6.542 -0.1278  0.0998  0.1277
   32MOL   Cl52 3834   1.158   6.155   6.444 -0.1327  0.2592 -0.3235
   32MOL    H53 3835   0.978   6.141   6.655  0.8336 -0.7919 -1.6842
   32MOL    H54 3836   1.130   6.149   6.707 -0.9281 -0.3208  0.9466
   32MOL    H55 3837   0.996   6.330   6.499 -0.3886 -1.6153 -0.9833
   32MOL    C56 3838   1.208   6.390   6.561  0.3966  0.0523  0.3527
   32MOL    C57 3839   1.257   6.441   6.424  0.0179 -0.1311 -0.0183
   32MOL   Cl58 3840   1.405   6.550   6.460 -0.3707 -0.1755 -0.0707
   32MOL    H59 3841   1.298   6.340   6.599  0.4490  0.5977  0.9615
   32MOL    H60 3842   1.199   6.473   6.632  0.3950  0.3186  0.0425
   32MOL    H61 3843   1.294   6.358   6.364  0.5569  1.3071 -1.7145
   32MOL    C62 3844   1.145   6.508   6.343 -0.4744 -0.3838  0.5332
   32MOL    C63 3845   1.185   6.581   6.208 -0.4054 -0.3130  0.2444
   32MOL   Cl64 3846   1.035   6.659   6.148 -0.1194 -0.0613 -0.3065
   32MOL    H65 3847   1.091   6.574   6.411 -1.2260 -1.3361  0.8628
   32MOL    H66 3848   1.073   6.432   6.314 -2.1674  0.5815  2.0856
   32MOL    H67 3849   1.256   6.662   6.225  0.1782 -0.6783 -0.4431
   32MOL    C68 3850   1.236   6.482   6.106  0.0492 -0.3349 -0.6408
   32MOL    C69 3851   1.387   6.467   6.106  0.6202 -0.2006  0.4645
   32MOL   Cl70 3852   1.452   6.623   6.028  0.1613  0.3330  0.2893
   32MOL    H71 3853   1.210   6.516   6.006  1.1892  2.2296 -0.1199
   32MOL    H72 3854   1.196   6.381   6.117 -0.9793  0.0935 -0.4569
   32MOL    H73 3855   1.435   6.459   6.203  0.6168 -0.5265  0.4387
   32MOL    C74 3856   1.437   6.348   6.020  0.0440  0.9008  0.4215
   32MOL    C75 3857   1.589   6.347   6.006  0.4501  0.0877  0.1223
   32MOL   Cl76 3858   1.626   6.227   5.885  0.0407  0.0999 -0.1004
   32MOL    H77 3859   1.390   6.358   5.922  0.3713  0.9337  0.2661
   32MOL    H78 3860   1.421   6.248   6.061 -0.2665  0.2915 -1.1240
   32MOL    H79 3861   1.632   6.437   5.961  1.4334 -1.3990 -1.9768
   32MOL    C80 3862   1.650   6.312   6.149 -0.2050  0.2704  0.4352
   32MOL    C81 3863   1.788   6.240   6.133  0.6034  0.1105 -0.5604
   32MOL   Cl82 3864   1.844   6.202   6.293  0.4268  0.2017 -0.2044
   32MOL    H83 3865   1.589   6.235   6.197 -3.0481  2.0284 -0.2110
   32MOL    H84 3866   1.662   6.398   6.215 -1.6600  1.7771 -1.2180
   32MOL    H85 3867   1.780   6.147   6.077 -1.9559 -1.1160  1.7041
   32MOL    C86 3868   1.903   6.332   6.061  0.6210  0.1656 -0.2666
   32MOL    C87 3869   1.946   6.467   6.133 -0.8527 -0.0030 -0.1947
   32MOL   Cl88 3870   1.834   6.591   6.080 -0.3964 -0.1385 -0.0610
   32MOL    H89 3871   1.869   6.362   5.962  0.2443  1.4186  0.2309
   32MOL    H90 3872   1.988   6.267   6.037  2.6878  2.8372 -0.4573
   32MOL    H91 3873   1.931   6.447   6.239  0.7882 -2.6481 -0.4075
   32MOL    C92 3874   2.092   6.493   6.106  0.0834 -0.1548  0.7194
   32MOL    C93 3875   2.157   6.606   6.188 -0.5589 -0.0207  0.3454
   32MOL   Cl94 3876   2.280   6.689   6.088  0.4810 -0.3902 -0.1337
   32MOL    H95 3877   2.081   6.514   6.000 -0.0547 -3.2622  0.0672
   32MOL    H96 3878   2.143   6.398   6.122  2.5019  1.1944  1.3757
   32MOL    H97 3879   2.084   6.683   6.211 -0.5150 -0.5362  2.3347
   32MOL    C98 3880   2.226   6.545   6.310 -0.0077  0.1504 -0.1869
   32MOL    C99 3881   2.283   6.644   6.411 -0.4659  0.8082 -0.7794
   32MOL  Cl100 3882   2.337   6.539   6.553 -0.0345  0.1482 -0.2974
   32MOL   H101 3883   2.310   6.484   6.275 -0.3824 -1.0803  1.0221
   32MOL   H102 3884   2.159   6.479   6.366  1.4573 -0.8903  0.3782
   32MOL   H103 3885   2.372   6.698   6.380  0.3888  0.5848  1.1682
   32MOL   C104 3886   2.187   6.753   6.454 -0.0760  0.6862  0.3338
   32MOL   C105 3887   2.220   6.831   6.584 -0.1336  0.8732 -0.1227
   32MOL  Cl106 3888   2.062   6.890   6.652  0.0624 -0.4293  0.0363
   32MOL   H107 3889   2.088   6.709   6.466  0.1729  0.1008  0.2325
   32MOL   H108 3890   2.177   6.828   6.376  1.9270 -0.6819 -1.2666
   32MOL   H109 3891   2.255   6.769   6.666 -0.8351  1.8404  0.9253
   32MOL   C110 3892   2.327   6.952   6.578  0.5281 -0.5912 -0.0419
   32MOL   C111 3893   2.303   7.053   6.457 -0.3116  0.0694 -0.6778
   32MOL  Cl112 3894   2.364   6.980   6.306 -0.2760  0.2071 -0.2904
   32MOL   H113 3895   2.419   6.898   6.560 -0.5224 -1.8832 -1.7226
   32MOL   H114 3896   2.320   6.997   6.677  0.6500  0.0575 -0.3245
   32MOL   H115 3897   2.197   7.067   6.439 -0.3847 -0.8514 -1.0215
   32MOL   C116 3898   2.379   7.188   6.473  0.1346  0.3879 -0.0711
   32MOL   C117 3899   2.529   7.165   6.499  0.1171 -0.1709 -0.1184
   32MOL  Cl118 3900   2.611   7.314   6.557 -0.0739  0.3631  0.2632
   32MOL   H119 3901   2.343   7.247   6.558 -0.5670 -0.7777  0.4428
   32MOL   H120 3902   2.355   7.252   6.388  0.5529 -0.4953 -0.8557
   32MOL   H121 3903   2.563   7.082   6.560  1.0793  0.3272  0.0361
   32MOL   H122 3904   2.589   7.148   6.410  1.8658 -1.5408  1.2836
   33MOL     C1 3905   2.094   7.267   7.410 -0.2762  0.4467 -0.5974
   33MOL     C2 3906   2.075   7.413   7.386  0.1829 -0.2302 -0.8636
   33MOL    Cl3 3907   1.905   7.437   7.345  0.3256  0.2919  0.0650
   33MOL     H4 3908   2.023   7.204   7.464 -2.0880  0.9871 -2.2862
   33MOL     H5 3909   2.122   7.208   7.323 -1.2727  0.8142 -1.1770
   33MOL     H6 3910   2.099   7.476   7.472  0.1452  0.8669 -1.6503
   33MOL     H7 3911   2.174   7.255   7.484 -0.1543  0.2880 -0.7552
   33MOL     C8 3912   2.162   7.465   7.276 -0.4876  0.5104  0.2537
   33MOL     C9 3913   2.318   7.452   7.300  0.0276 -0.0487 -0.3343
   33MOL   Cl10 3914   2.354   7.554   7.448  0.2344  0.1421 -0.1752
   33MOL    H11 3915   2.137   7.571   7.268  0.3714  0.8175  1.4152
   33MOL    H12 3916   2.134   7.417   7.183  3.7984 -1.3229 -0.2295
   33MOL    H13 3917   2.346   7.350   7.327 -2.8346 -0.5546  0.9969
   33MOL    C14 3918   2.410   7.489   7.182 -0.3387  0.3700  0.2465
   33MOL    C15 3919   2.385   7.415   7.045 -0.5916  0.0897 -0.7907
   33MOL   Cl16 3920   2.453   7.254   7.060  0.0243  0.1740 -0.2569
   33MOL    H17 3921   2.513   7.467   7.212  0.0268  0.8385 -0.6408
   33MOL    H18 3922   2.412   7.597   7.167  0.6392  0.3429  0.0942
   33MOL    H19 3923   2.277   7.402   7.034 -0.9221  2.1619 -0.1394
   33MOL    C20 3924   2.438   7.490   6.924 -0.6173  0.5184 -1.1319
   33MOL    C21 3925   2.368   7.623   6.889 -0.6488 -0.4724 -0.1790
   33MOL   Cl22 3926   2.204   7.583   6.815 -0.3229 -0.0891  0.0418
   33MOL    H23 3927   2.423   7.422   6.840 -2.4848 -0.4641 -0.0288
   33MOL    H24 3928   2.547   7.494   6.925 -0.5507 -0.9758 -0.1360
   33MOL    H25 3929   2.347   7.685   6.977 -0.7906  1.8090 -1.8021
   33MOL    C26 3930   2.442   7.709   6.783  0.0325 -0.2016 -0.0805
   33MOL    C27 3931   2.578   7.759   6.831 -0.5698 -1.0231  0.5745
   33MOL   Cl28 3932   2.564   7.882   6.952 -0.2957  0.0655  0.2099
   33MOL    H29 3933   2.380   7.792   6.748  2.2177  2.8055  2.7304
   33MOL    H30 3934   2.451   7.637   6.702 -0.5735  1.0207 -1.2545
   33MOL    H31 3935   2.637   7.677   6.873  1.2893  0.1226  0.2282
   33MOL    C32 3936   2.663   7.807   6.705  0.1346  0.0028  0.6307
   33MOL    C33 3937   2.812   7.807   6.721 -0.1237  0.8385 -0.5833
   33MOL   Cl34 3938   2.864   7.870   6.564 -0.2455  0.4753 -0.0312
   33MOL    H35 3939   2.625   7.906   6.681 -1.5018 -0.3205  1.8246
   33MOL    H36 3940   2.639   7.743   6.620  3.2535  1.4491 -1.4448
   33MOL    H37 3941   2.831   7.884   6.796  1.0847 -0.1782  0.1828
   33MOL    C38 3942   2.875   7.670   6.761 -0.0219 -0.1746 -0.1794
   33MOL    C39 3943   3.031   7.665   6.797 -0.6561 -0.0417 -0.1859
   33MOL   Cl40 3944   3.096   7.506   6.744 -0.1039 -0.1334  0.1353
   33MOL    H41 3945   2.845   7.591   6.691  0.9484 -1.7679  1.1620
   33MOL    H42 3946   2.830   7.641   6.855 -0.0161  0.5865  0.0587
   33MOL    H43 3947   3.081   7.744   6.741 -0.9172 -0.4305 -0.9744
   33MOL    C44 3948   3.070   7.683   6.943 -0.3392  0.3346  0.1269
   33MOL    C45 3949   3.017   7.805   7.018 -0.0039 -0.2780  0.4199
   33MOL   Cl46 3950   3.081   7.950   6.931  0.2087  0.2484  0.0008
   33MOL    H47 3951   3.179   7.676   6.951 -0.0966 -0.6605 -3.2500
   33MOL    H48 3952   3.039   7.591   6.992  0.7524  0.0810  0.3613
   33MOL    H49 3953   2.909   7.816   7.017  0.1724  1.6033 -1.1389
   33MOL    C50 3954   3.051   7.827   7.166 -0.5089 -0.4376 -0.7335
   33MOL    C51 3955   2.998   7.723   7.272  0.1532 -0.0375  0.8120
   33MOL   Cl52 3956   2.824   7.717   7.249 -0.2292  0.0335  0.1752
   33MOL    H53 3957   3.024   7.929   7.194  0.4502 -0.6313  0.9726
   33MOL    H54 3958   3.159   7.811   7.169 -0.3736  0.8223  2.3829
   33MOL    H55 3959   3.034   7.625   7.240  1.1950  1.2578 -2.1905
   33MOL    C56 3960   3.036   7.751   7.417 -0.0856  0.4037 -0.3872
   33MOL    C57 3961   3.180   7.696   7.463  0.1101  0.1098 -0.2999
   33MOL   Cl58 3962   3.167   7.514   7.495  0.2313 -0.2836 -0.2187
   33MOL    H59 3963   2.967   7.719   7.495  1.2839  1.2719  1.1947
   33MOL    H60 3964   3.024   7.858   7.434 -1.4547  0.2563 -0.3765
   33MOL    H61 3965   3.256   7.701   7.385  0.5250 -0.0566  0.0944
   33MOL    C62 3966   3.220   7.761   7.594 -0.2367 -0.4431 -0.2212
   33MOL    C63 3967   3.274   7.896   7.585  0.7016  0.1532  0.2736
   33MOL   Cl64 3968   3.378   7.918   7.431  0.1774  0.4165 -0.1653
   33MOL    H65 3969   3.303   7.697   7.624  0.7347  0.6419 -0.5304
   33MOL    H66 3970   3.132   7.749   7.657 -0.5920  0.6076 -0.5083
   33MOL    H67 3971   3.190   7.960   7.556  0.5343  0.2698  1.0125
   33MOL    C68 3972   3.353   7.953   7.700 -0.0064 -0.0126 -0.4081
   33MOL    C69 3973   3.260   7.979   7.826  0.3216 -0.1686  0.0212
   33MOL   Cl70 3974   3.107   8.070   7.787 -0.2498  0.1862  0.1597
   33MOL    H71 3975   3.407   8.042   7.670  0.7809 -1.5204 -3.6251
   33MOL    H72 3976   3.429   7.880   7.728 -2.0155 -3.1632 -2.8493
   33MOL    H73 3977   3.224   7.877   7.844 -0.7814  0.1103 -0.5415
   33MOL    C74 3978   3.321   8.027   7.962 -0.0538  0.5048 -0.2814
   33MOL    C75 3979   3.434   7.935   8.010 -0.3992 -0.4294 -0.5443
   33MOL   Cl76 3980   3.364   7.773   8.056 -0.1236 -0.1550  0.0521
   33MOL    H77 3981   3.240   8.033   8.035 -1.1627  0.5119 -1.4729
   33MOL    H78 3982   3.364   8.125   7.946  0.2072  0.6807  1.4886
   33MOL    H79 3983   3.507   7.918   7.930  1.4023  1.5614  0.6254
   33MOL    C80 3984   3.513   8.001   8.121  0.1583 -0.2445  0.4333
   33MOL    C81 3985   3.632   7.917   8.182 -0.4125  0.0377  0.7199
   33MOL   Cl82 3986   3.699   8.000   8.331  0.3094 -0.2551 -0.1800
   33MOL    H83 3987   3.451   8.025   8.208  0.0472 -1.3362  0.6710
   33MOL    H84 3988   3.559   8.090   8.079 -0.1882 -0.6311 -0.7866
   33MOL    H85 3989   3.583   7.828   8.221 -0.5916 -0.2140 -0.0801
   33MOL    C86 3990   3.738   7.881   8.079  0.4895 -0.4433  0.8202
   33MOL    C87 3991   3.847   7.766   8.121  0.0034 -0.1987 -0.8677
   33MOL   Cl88 3992   3.763   7.607   8.141  0.1732 -0.1744  0.2467
   33MOL    H89 3993   3.781   7.975   8.043 -0.2854  0.1969  1.5519
   33MOL    H90 3994   3.682   7.839   7.996  0.3365 -0.2462  0.8258
   33MOL    H91 3995   3.918   7.752   8.039  1.1626 -2.2077  0.4336
   33MOL    C92 3996   3.926   7.811   8.238 -0.0936 -0.5250  0.6954
   33MOL    C93 3997   4.072   7.742   8.254 -0.1247 -0.2291  0.7545
   33MOL   Cl94 3998   4.162   7.775   8.099  0.1164  0.1041 -0.1223
   33MOL    H95 3999   3.881   7.798   8.337  1.6569 -0.8332  1.4891
   33MOL    H96 4000   3.939   7.919   8.244  0.2718 -0.5465  0.2788
   33MOL    H97 4001   4.114   7.799   8.337 -0.9114  2.5153 -0.7092
   33MOL    C98 4002   4.077   7.589   8.276  0.5530 -0.1005  0.9519
   33MOL    C99 4003   4.203   7.533   8.346  0.4647 -0.4764  0.6054
   33MOL  Cl100 4004   4.231   7.630   8.497 -0.1334 -0.0824  0.1899
   33MOL   H101 4005   4.040   7.539   8.187 -1.3144  1.5699  0.7667
   33MOL   H102 4006   4.000   7.571   8.351 -0.2004  1.5544  0.6001
   33MOL   H103 4007   4.189   7.429   8.373 -0.9809 -0.9470 -1.7612
   33MOL   C104 4008   4.327   7.528   8.255  0.2213  0.1736  0.3227
   33MOL   C105 4009   4.451   7.464   8.325  0.7782 -0.5839 -0.5774
   33MOL  Cl106 4010   4.593   7.499   8.235 -0.2344 -0.3681 -0.3322
   33MOL   H107 4011   4.354   7.628   8.220  0.7427  0.2904  1.0511
   33MOL   H108 4012   4.312   7.479   8.159  1.0700 -0.9012  0.7221
   33MOL   H109 4013   4.451   7.523   8.417 -2.3944 -0.0339 -0.8587
   33MOL   C110 4014   4.452   7.310   8.369 -0.1046  0.3711  0.2504
   33MOL   C111 4015   4.433   7.205   8.257 -0.3469  1.5675 -0.3798
   33MOL  Cl112 4016   4.262   7.174   8.212 -0.1684 -0.2635 -0.0017
   33MOL   H113 4017   4.385   7.294   8.454  0.9898 -0.2392  1.0103
   33MOL   H114 4018   4.552   7.285   8.403 -0.0255  0.4651  0.0840
   33MOL   H115 4019   4.473   7.243   8.163 -0.1671  1.1331 -0.4805
   33MOL   C116 4020   4.493   7.065   8.289  0.6343 -0.1154  0.8403
   33MOL   C117 4021   4.494   6.975   8.171 -0.2055  0.4431 -0.3872
   33MOL  Cl118 4022   4.559   6.814   8.204 -0.1521 -0.2388 -0.0264
   33MOL   H119 4023   4.429   7.028   8.369  0.2607 -0.0203  0.5864
   33MOL   H120 4024   4.594   7.059   8.330 -0.0775  0.5518  2.7101
   33MOL   H121 4025   4.390   6.959   8.142 -0.2655  1.2484 -0.6249
   33MOL   H122 4026   4.546   7.009   8.081 -0.3636  1.3989 -0.1197
   34MOL     C1 4027   5.683   7.231   4.619 -0.2377  0.2448  0.0817
   34MOL     C2 4028   5.580   7.123   4.666 -0.4493 -0.4530  0.2063
   34MOL    Cl3 4029   5.680   6.968   4.680 -0.0073  0.1538  0.0600
   34MOL     H4 4030   5.745   7.265   4.703  0.7716  1.8079 -1.2560
   34MOL     H5 4031   5.756   7.194   4.548  0.5272 -1.2273  1.5800
   34MOL     H6 4032   5.532   7.149   4.760 -1.1741  1.9821 -0.7926
   34MOL     H7 4033   5.639   7.325   4.585  2.1471  0.3904 -2.7657
   34MOL     C8 4034   5.481   7.106   4.552 -1.0663 -0.1261  0.0080
   34MOL     C9 4035   5.374   7.210   4.547  0.1525  0.1068  0.0326
   34MOL   Cl10 4036   5.251   7.181   4.683 -0.2769  0.0115  0.0270
   34MOL    H11 4037   5.436   7.009   4.570  2.4994 -2.1730 -1.4967
   34MOL    H12 4038   5.530   7.085   4.457 -1.7885 -2.3996  0.1151
   34MOL    H13 4039   5.415   7.311   4.557 -0.1208  0.3175 -0.9335
   34MOL    C14 4040   5.309   7.192   4.409 -0.4108  0.0542 -0.8958
   34MOL    C15 4041   5.202   7.077   4.405 -0.0642 -0.2100  0.4505
   34MOL   Cl16 4042   5.275   6.930   4.334 -0.3371 -0.2110  0.2405
   34MOL    H17 4043   5.380   7.173   4.329  2.2143 -0.8762  1.5917
   34MOL    H18 4044   5.264   7.290   4.389 -1.2250 -0.1125  0.0528
   34MOL    H19 4045   5.172   7.035   4.500 -0.1084 -1.2559 -0.0216
   34MOL    C20 4046   5.074   7.117   4.321 -0.4417  0.1892 -0.0814
   34MOL    C21 4047   4.959   7.021   4.298  0.7550  0.3512 -0.2642
   34MOL   Cl22 4048   4.853   7.099   4.176 -0.1770 -0.3239  0.0749
   34MOL    H23 4049   5.105   7.174   4.234 -0.9067 -1.1612 -1.1315
   34MOL    H24 4050   5.034   7.201   4.378 -1.6322 -1.0687  0.9850
   34MOL    H25 4051   4.995   6.927   4.257 -1.9829 -1.3058  1.0072
   34MOL    C26 4052   4.882   6.999   4.423 -0.2685 -0.0616 -0.1764
   34MOL    C27 4053   4.753   6.920   4.401 -0.5245 -0.1014  0.1723
   34MOL   Cl28 4054   4.650   6.946   4.533  0.0928  0.2775  0.1055
   34MOL    H29 4055   4.858   7.096   4.468 -1.1324  0.0757 -0.9304
   34MOL    H30 4056   4.937   6.931   4.488  0.9017 -1.2744 -2.3687
   34MOL    H31 4057   4.694   6.972   4.325  1.7006  0.5748 -1.1519
   34MOL    C32 4058   4.773   6.772   4.382 -0.3059 -0.1242 -0.3522
   34MOL    C33 4059   4.660   6.698   4.309  0.2832  0.0288  0.3555
   34MOL   Cl34 4060   4.659   6.527   4.362  0.2278 -0.1876  0.1769
   34MOL    H35 4061   4.778   6.737   4.485 -0.6350  0.6633 -0.0625
   34MOL    H36 4062   4.865   6.754   4.325 -2.3015 -2.0414 -3.1256
   34MOL    H37 4063   4.563   6.725   4.352  0.0410 -0.0185 -0.1601
   34MOL    C38 4064   4.651   6.726   4.156 -0.4194  0.2117 -0.0912
   34MOL    C39 4065   4.760   6.660   4.063 -0.6246 -0.3828  0.8766
   34MOL   Cl40 4066   4.908   6.758   4.059  0.4371  0.1386 -0.3202
   34MOL    H41 4067   4.650   6.833   4.136  2.6348  0.3117  0.0058
   34MOL    H42 4068   4.558   6.680   4.121 -0.0594 -0.7156  0.1527
   34MOL    H43 4069   4.784   6.568   4.116 -0.1412 -0.2831  0.8354
   34MOL    C44 4070   4.708   6.653   3.919  0.1829 -0.2675  0.0682
   34MOL    C45 4071   4.781   6.551   3.836 -1.0637 -0.0559  0.4410
   34MOL   Cl46 4072   4.728   6.571   3.672  0.3273  0.0133  0.1515
   34MOL    H47 4073   4.726   6.752   3.877 -1.1352 -0.6087 -1.3839
   34MOL    H48 4074   4.601   6.630   3.913 -0.0106  0.8012 -0.8256
   34MOL    H49 4075   4.887   6.573   3.831 -1.0002 -0.3611  0.3996
   34MOL    C50 4076   4.749   6.404   3.882  0.9116 -0.4344 -0.1891
   34MOL    C51 4077   4.814   6.295   3.793  0.7624  0.2363 -0.4007
   34MOL   Cl52 4078   4.742   6.145   3.823 -0.2286  0.1652  0.2649
   34MOL    H53 4079   4.641   6.388   3.882  0.3278  3.1499  0.8304
   34MOL    H54 4080   4.787   6.400   3.984 -0.5851 -0.2577  0.3839
   34MOL    H55 4081   4.787   6.316   3.689 -2.5668 -0.3410  0.2767
   34MOL    C56 4082   4.959   6.300   3.804 -0.8808  0.1284  0.8079
   34MOL    C57 4083   5.042   6.185   3.747 -1.4298 -0.3186  0.3543
   34MOL   Cl58 4084   5.210   6.219   3.794  0.1338  0.0113 -0.2748
   34MOL    H59 4085   4.992   6.313   3.907  0.3376  2.1125  0.2078
   34MOL    H60 4086   4.998   6.390   3.756 -2.7953  0.6700  0.2086
   34MOL    H61 4087   5.009   6.095   3.799 -0.6909 -0.1554  1.1309
   34MOL    C62 4088   5.028   6.184   3.593  0.6731  0.0863 -0.3917
   34MOL    C63 4089   5.095   6.058   3.539 -0.9275 -0.1844  0.6996
   34MOL   Cl64 4090   5.112   6.066   3.367  0.0629 -0.0974  0.3058
   34MOL    H65 4091   5.072   6.274   3.551  0.4080 -0.4499 -1.8586
   34MOL    H66 4092   4.925   6.167   3.562  0.2582  2.0779 -0.1324
   34MOL    H67 4093   5.191   6.053   3.589 -1.4144 -2.2905  1.5094
   34MOL    C68 4094   5.025   5.926   3.570 -0.2023 -0.3001 -0.3798
   34MOL    C69 4095   5.110   5.812   3.627 -0.4647  0.4064  0.2974
   34MOL   Cl70 4096   5.220   5.772   3.497  0.1058 -0.1044 -0.2547
   34MOL    H71 4097   4.965   5.883   3.489 -0.8825  0.8308 -0.4921
   34MOL    H72 4098   4.951   5.949   3.646 -0.1876 -1.2772 -0.0619
   34MOL    H73 4099   5.162   5.847   3.717  2.5777 -1.5939 -0.6098
   34MOL    C74 4100   5.026   5.688   3.671  0.7480 -0.1536 -0.1867
   34MOL    C75 4101   5.098   5.589   3.773 -0.2337  0.8816  0.5140
   34MOL   Cl76 4102   4.990   5.450   3.809  0.0795 -0.1802 -0.0449
   34MOL    H77 4103   5.021   5.632   3.578 -1.2524 -1.0310  0.4353
   34MOL    H78 4104   4.928   5.722   3.703  0.7291 -0.1605 -0.2392
   34MOL    H79 4105   5.177   5.547   3.711  0.1397 -1.4203  2.4728
   34MOL    C80 4106   5.157   5.653   3.905  0.3399 -0.9131  0.1459
   34MOL    C81 4107   5.057   5.699   4.012 -0.9382 -0.6738 -0.6879
   34MOL   Cl82 4108   4.946   5.838   3.966  0.1939  0.0133  0.2950
   34MOL    H83 4109   5.234   5.727   3.885 -1.0628  0.4093 -0.4028
   34MOL    H84 4110   5.214   5.575   3.956 -1.1311 -1.9908  0.1785
   34MOL    H85 4111   4.997   5.615   4.048  1.2371 -1.6344  0.8321
   34MOL    C86 4112   5.134   5.755   4.130  0.1549  0.3256  0.2430
   34MOL    C87 4113   5.217   5.668   4.216 -0.3957  0.1908  0.4484
   34MOL   Cl88 4114   5.111   5.549   4.303 -0.2180 -0.1747 -0.5375
   34MOL    H89 4115   5.057   5.801   4.192  0.5751  0.1648  0.8854
   34MOL    H90 4116   5.193   5.838   4.089  0.3871 -0.2058 -0.5012
   34MOL    H91 4117   5.288   5.602   4.168 -0.4601 -0.3627  1.0981
   34MOL    C92 4118   5.301   5.752   4.317  0.6740  0.5527 -0.2103
   34MOL    C93 4119   5.419   5.841   4.261  0.7631 -0.7177  0.0444
   34MOL   Cl94 4120   5.528   5.728   4.179  0.3162  0.0613 -0.0753
   34MOL    H95 4121   5.335   5.680   4.391 -0.5422 -1.9400 -2.0108
   34MOL    H96 4122   5.236   5.815   4.378  0.5507  1.6952 -1.4770
   34MOL    H97 4123   5.390   5.920   4.192 -1.4710 -0.1711  1.5577
   34MOL    C98 4124   5.484   5.903   4.387 -0.1371 -0.4069  0.2319
   34MOL    C99 4125   5.619   5.971   4.360 -0.4428 -0.1703  0.0699
   34MOL  Cl100 4126   5.746   5.928   4.473 -0.0186 -0.3554  0.2306
   34MOL   H101 4127   5.501   5.814   4.448  0.8720  0.2798  0.9687
   34MOL   H102 4128   5.417   5.979   4.427 -3.5732 -2.6568 -1.0686
   34MOL   H103 4129   5.661   5.931   4.268 -0.3183  1.5717 -0.6593
   34MOL   C104 4130   5.610   6.127   4.345 -0.0242  0.2442 -0.4003
   34MOL   C105 4131   5.734   6.205   4.294  0.2812 -0.4816 -0.0110
   34MOL  Cl106 4132   5.701   6.379   4.312 -0.5562  0.2088 -0.2202
   34MOL   H107 4133   5.590   6.165   4.446  0.5197 -0.8195  0.1134
   34MOL   H108 4134   5.522   6.157   4.287 -1.5656 -0.7556  1.3518
   34MOL   H109 4135   5.817   6.185   4.362  1.2852  0.8101 -0.8438
   34MOL   C110 4136   5.763   6.171   4.145  0.5858 -0.3164  0.8618
   34MOL   C111 4137   5.883   6.072   4.132 -0.9318 -0.0803 -0.1028
   34MOL  Cl112 4138   6.026   6.173   4.179 -0.2950 -0.0696  0.1111
   34MOL   H113 4139   5.780   6.259   4.083 -0.6134  0.0085  0.9714
   34MOL   H114 4140   5.674   6.124   4.102 -0.3615  0.1479  2.2527
   34MOL   H115 4141   5.880   5.991   4.205 -2.8310 -1.0291 -1.2170
   34MOL   C116 4142   5.914   6.012   3.995  0.0463 -0.1889 -0.0778
   34MOL   C117 4143   5.812   5.901   3.960 -0.5089 -0.5348  0.1201
   34MOL  Cl118 4144   5.867   5.829   3.808  0.2070  0.1676 -0.0636
   34MOL   H119 4145   6.010   5.962   3.985 -0.4715 -1.0334 -0.9010
   34MOL   H120 4146   5.905   6.091   3.920 -0.7369 -2.4411 -2.4324
   34MOL   H121 4147   5.802   5.818   4.030  1.9878 -0.1048  1.0387
   34MOL   H122 4148   5.714   5.948   3.953 -0.0693  0.1829 -1.4994
   35MOL     C1 4149   1.353   0.678   4.370  0.4708 -0.2315 -0.1938
   35MOL     C2 4150   1.485   0.753   4.367 -0.3330 -0.0979 -0.2990
   35MOL    Cl3 4151   1.510   0.825   4.207 -0.4510  0.2683 -0.0317
   35MOL     H4 4152   1.271   0.745   4.347 -0.7675 -1.0201  1.7741
   35MOL     H5 4153   1.355   0.592   4.304 -1.4650  0.6516 -1.4422
   35MOL     H6 4154   1.480   0.843   4.428 -1.8706 -0.9274  0.7975
   35MOL     H7 4155   1.335   0.645   4.473  1.6856 -1.4099 -0.3366
   35MOL     C8 4156   1.601   0.659   4.410  0.5353  0.7134 -0.3126
   35MOL     C9 4157   1.747   0.715   4.412  0.1851  0.4299 -0.5093
   35MOL   Cl10 4158   1.809   0.751   4.243  0.0098  0.3987 -0.1331
   35MOL    H11 4159   1.608   0.582   4.334 -0.3244 -0.5453  0.8778
   35MOL    H12 4160   1.584   0.612   4.507  0.2208 -2.2317 -1.7478
   35MOL    H13 4161   1.741   0.815   4.455  3.6167  0.1514  0.8098
   35MOL    C14 4162   1.840   0.616   4.490 -0.5712 -0.3753  0.3905
   35MOL    C15 4163   1.987   0.649   4.497  0.0777  0.7870  0.6471
   35MOL   Cl16 4164   2.071   0.499   4.549  0.0875 -0.4420 -0.1230
   35MOL    H17 4165   1.817   0.516   4.452  1.7230 -0.7862  0.0259
   35MOL    H18 4166   1.800   0.584   4.587  1.2066 -2.1816  0.5608
   35MOL    H19 4167   2.023   0.676   4.398  0.6286 -0.3998  0.5153
   35MOL    C20 4168   2.004   0.766   4.593  0.0231  0.1985 -0.0982
   35MOL    C21 4169   2.135   0.842   4.597 -0.3684 -0.2180 -0.3314
   35MOL   Cl22 4170   2.174   0.908   4.431 -0.0324 -0.2163 -0.0674
   35MOL    H23 4171   1.971   0.750   4.696  2.7329  2.4878  1.2073
   35MOL    H24 4172   1.945   0.845   4.546  0.5425  0.3319 -0.5257
   35MOL    H25 4173   2.129   0.920   4.673 -1.6459 -0.9999  0.3706
   35MOL    C26 4174   2.260   0.763   4.642  0.3224  0.5672 -0.7593
   35MOL    C27 4175   2.264   0.698   4.779  0.4479  0.0003  0.3537
   35MOL   Cl28 4176   2.193   0.810   4.897  0.1852  0.2723  0.1846
   35MOL    H29 4177   2.339   0.838   4.642 -0.8683  1.8639  0.9217
   35MOL    H30 4178   2.286   0.690   4.566  2.1472  0.1025  0.2646
   35MOL    H31 4179   2.198   0.612   4.765 -0.4324  0.5486  1.0625
   35MOL    C32 4180   2.407   0.661   4.827 -0.2262 -0.7342 -0.0878
   35MOL    C33 4181   2.486   0.576   4.725 -0.5043 -0.4598  0.3455
   35MOL   Cl34 4182   2.391   0.432   4.683  0.2913  0.2275  0.4492
   35MOL    H35 4183   2.398   0.603   4.920  0.2835  0.4736  0.7249
   35MOL    H36 4184   2.469   0.743   4.862 -0.9287 -0.1135 -0.2945
   35MOL    H37 4185   2.488   0.633   4.632 -1.9561  2.1953  1.8818
   35MOL    C38 4186   2.616   0.516   4.773 -0.8591  0.0841 -0.5112
   35MOL    C39 4187   2.703   0.619   4.861  0.3900 -0.1235  0.5438
   35MOL   Cl40 4188   2.745   0.760   4.748 -0.2036  0.0224  0.1382
   35MOL    H41 4189   2.679   0.478   4.692  1.0812  1.8469  0.1516
   35MOL    H42 4190   2.599   0.438   4.847 -1.2377  0.1336 -0.5455
   35MOL    H43 4191   2.643   0.654   4.945  2.0426  0.9667  1.2851
   35MOL    C44 4192   2.828   0.554   4.930  0.0930 -0.0799 -0.1535
   35MOL    C45 4193   2.902   0.640   5.035  0.3941  0.0971  0.4938
   35MOL   Cl46 4194   2.784   0.663   5.166 -0.7342 -0.0948  0.0059
   35MOL    H47 4195   2.901   0.532   4.851 -1.7380  0.3314 -1.9969
   35MOL    H48 4196   2.799   0.456   4.965 -1.1639 -0.4334 -2.0856
   35MOL    H49 4197   2.981   0.583   5.085 -0.8470 -1.4282  0.7502
   35MOL    C50 4198   2.942   0.784   5.003 -0.6178 -0.6179 -0.0896
   35MOL    C51 4199   3.044   0.812   4.884  0.4528  0.3411 -0.1681
   35MOL   Cl52 4200   3.201   0.722   4.914  0.2715 -0.5992 -0.0322
   35MOL    H53 4201   2.984   0.825   5.095  0.9667 -0.0648 -1.0626
   35MOL    H54 4202   2.844   0.829   4.987 -0.1472  0.1958 -0.6508
   35MOL    H55 4203   3.018   0.766   4.788  4.4221  0.5981 -1.4715
   35MOL    C56 4204   3.064   0.963   4.864  0.0768 -0.3305  0.5304
   35MOL    C57 4205   2.935   1.046   4.845 -1.0900 -0.3448  0.0337
   35MOL   Cl58 4206   2.920   1.066   4.667  0.1326  0.2581  0.4284
   35MOL    H59 4207   3.132   0.999   4.786 -0.3706  3.0096  1.5773
   35MOL    H60 4208   3.107   0.994   4.959 -0.1581 -0.2812  0.6197
   35MOL    H61 4209   2.842   0.994   4.869 -0.7507  0.2652  2.7493
   35MOL    C62 4210   2.927   1.178   4.913  0.0176 -0.0207  0.0171
   35MOL    C63 4211   2.961   1.191   5.063 -0.4725  0.3433 -0.1056
   35MOL   Cl64 4212   2.873   1.072   5.163  0.1734 -0.0118  0.1102
   35MOL    H65 4213   2.840   1.235   4.880  0.5296 -0.0574 -1.4578
   35MOL    H66 4214   3.009   1.234   4.869 -1.1209 -1.1644 -3.7961
   35MOL    H67 4215   3.065   1.163   5.083 -0.4422  0.1513 -0.5376
   35MOL    C68 4216   2.924   1.329   5.124 -0.4523 -0.0001 -0.3166
   35MOL    C69 4217   3.003   1.452   5.061  0.5032  0.0110  1.0142
   35MOL   Cl70 4218   3.177   1.440   5.091 -0.0572 -0.5097 -0.2459
   35MOL    H71 4219   2.933   1.319   5.232  0.9497  0.5080 -0.3783
   35MOL    H72 4220   2.817   1.343   5.108 -0.3645  3.7157  1.8229
   35MOL    H73 4221   2.997   1.448   4.952  1.3035  1.5148  0.8989
   35MOL    C74 4222   2.962   1.589   5.132  0.2126 -0.6211 -0.0297
   35MOL    C75 4223   2.816   1.644   5.080 -1.1494  0.4228 -0.6297
   35MOL   Cl76 4224   2.838   1.710   4.914 -0.2445  0.0123  0.3044
   35MOL    H77 4225   3.033   1.668   5.110  0.5445 -0.2247  2.3165
   35MOL    H78 4226   2.974   1.576   5.239 -1.2017 -1.2257  0.0685
   35MOL    H79 4227   2.751   1.557   5.089 -0.0715 -0.1778  1.6475
   35MOL    C80 4228   2.746   1.751   5.165  0.4644  0.2864 -0.5760
   35MOL    C81 4229   2.597   1.794   5.117 -0.3507 -0.3532 -0.0611
   35MOL   Cl82 4230   2.528   1.940   5.194 -0.0672 -0.0849 -0.3074
   35MOL    H83 4231   2.811   1.838   5.166  0.0650  0.5914  0.4563
   35MOL    H84 4232   2.750   1.720   5.270  1.6372 -0.5270 -0.8526
   35MOL    H85 4233   2.591   1.804   5.008 -1.2097 -0.3572 -0.0191
   35MOL    C86 4234   2.498   1.673   5.144 -0.0356  0.6287  0.5474
   35MOL    C87 4235   2.353   1.677   5.095  0.3328  0.0715  0.2291
   35MOL   Cl88 4236   2.259   1.540   5.178 -0.2659 -0.1338  0.2074
   35MOL    H89 4237   2.484   1.667   5.252 -0.6997  1.3747  0.5062
   35MOL    H90 4238   2.541   1.580   5.109 -2.0868  0.2939 -1.1615
   35MOL    H91 4239   2.309   1.775   5.115 -0.9109 -1.0064  3.1227
   35MOL    C92 4240   2.348   1.646   4.948 -0.3229  0.6524 -0.3484
   35MOL    C93 4241   2.201   1.643   4.891 -0.2979  0.5793 -0.2734
   35MOL   Cl94 4242   2.188   1.549   4.738 -0.0408 -0.1523  0.3245
   35MOL    H95 4243   2.388   1.544   4.942 -1.6734  0.1089 -0.3171
   35MOL    H96 4244   2.409   1.709   4.883  1.3527 -0.0704  0.5023
   35MOL    H97 4245   2.143   1.589   4.965  0.1611 -0.6886 -0.8209
   35MOL    C98 4246   2.151   1.789   4.853 -0.3900 -0.0513 -0.3205
   35MOL    C99 4247   1.998   1.808   4.868 -0.3326  0.2750 -0.0076
   35MOL  Cl100 4248   1.913   1.747   4.721 -0.2562  0.0536 -0.2241
   35MOL   H101 4249   2.184   1.813   4.751  1.1908 -1.4796 -0.1674
   35MOL   H102 4250   2.207   1.854   4.920  0.1069  0.2158 -0.9925
   35MOL   H103 4251   1.955   1.751   4.950  0.1264  0.8809  0.6535
   35MOL   C104 4252   1.956   1.960   4.883 -0.5143 -0.2603 -0.4123
   35MOL   C105 4253   1.975   2.007   5.030 -0.1605  0.0910 -0.4286
   35MOL  Cl106 4254   1.857   1.921   5.124 -0.3107  0.0258  0.3189
   35MOL   H107 4255   1.859   1.984   4.841  0.1504  0.4066 -1.6105
   35MOL   H108 4256   2.016   2.024   4.818 -0.3029  0.3853  0.4177
   35MOL   H109 4257   2.076   1.982   5.065 -0.5629 -0.5014  0.3296
   35MOL   C110 4258   1.952   2.156   5.060 -0.7240  0.7526 -1.0013
   35MOL   C111 4259   2.059   2.249   4.999 -0.2277 -0.3050  0.7157
   35MOL  Cl112 4260   2.227   2.198   5.036  0.3796 -0.5039  0.1289
   35MOL   H113 4261   1.954   2.166   5.169  3.1806 -1.4039 -0.7993
   35MOL   H114 4262   1.849   2.182   5.036 -0.8384  1.0782 -0.1881
   35MOL   H115 4263   2.047   2.243   4.891  0.2217 -2.9716  0.7725
   35MOL   C116 4264   2.051   2.405   5.031 -0.2418  1.1064 -0.4058
   35MOL   C117 4265   2.125   2.495   4.936  0.2237  0.0008 -0.0445
   35MOL  Cl118 4266   2.094   2.665   4.970 -0.2757  0.1865  0.5500
   35MOL   H119 4267   2.068   2.412   5.139 -0.8198 -0.4509 -0.1968
   35MOL   H120 4268   1.949   2.442   5.022 -1.0609 -1.1945 -0.8123
   35MOL   H121 4269   2.230   2.472   4.953  0.8777  1.9344 -1.3500
   35MOL   H122 4270   2.093   2.470   4.834 -0.0097  1.3110 -0.2946
   36MOL     C1 4271   0.601   2.488   3.925  0.8218  0.0383 -0.1632
   36MOL     C2 4272   0.670   2.358   3.937 -0.7336 -0.1842  0.0997
   36MOL    Cl3 4273   0.572   2.245   4.043  0.4479 -0.1773 -0.3937
   36MOL     H4 4274   0.529   2.491   3.844  2.1719 -0.0802 -1.3930
   36MOL     H5 4275   0.573   2.525   4.023  2.5086 -1.3432  0.8698
   36MOL     H6 4276   0.662   2.319   3.836 -0.5445  1.5962 -0.6233
   36MOL     H7 4277   0.685   2.549   3.893 -0.6916  1.8819 -0.6661
   36MOL     C8 4278   0.810   2.356   3.990 -0.3426  0.1541 -0.2171
   36MOL     C9 4279   0.929   2.378   3.890  0.4486  0.3611 -0.1324
   36MOL   Cl10 4280   0.922   2.230   3.787  0.0068  0.0897  0.0977
   36MOL    H11 4281   0.836   2.263   4.041 -1.4204  0.2544  0.5417
   36MOL    H12 4282   0.815   2.425   4.075 -0.1170 -0.3426  0.1702
   36MOL    H13 4283   0.898   2.461   3.827 -0.1737 -0.3853 -0.8283
   36MOL    C14 4284   1.069   2.389   3.942 -0.1049 -0.1017  0.8597
   36MOL    C15 4285   1.102   2.530   4.001  0.7097  0.3875 -0.6192
   36MOL   Cl16 4286   1.084   2.639   3.858 -0.1137 -0.2274 -0.2899
   36MOL    H17 4287   1.145   2.368   3.866 -2.8626 -1.1863 -1.6762
   36MOL    H18 4288   1.090   2.319   4.023  2.6301 -1.8951 -1.3236
   36MOL    H19 4289   1.032   2.564   4.077  0.8695  0.0586 -0.3253
   36MOL    C20 4290   1.247   2.531   4.054  0.4839  0.1943  0.2990
   36MOL    C21 4291   1.286   2.442   4.175 -0.4421 -0.2651 -0.0032
   36MOL   Cl22 4292   1.185   2.497   4.310  0.0641 -0.0328 -0.0094
   36MOL    H23 4293   1.278   2.633   4.077 -0.3110  0.2248  1.2625
   36MOL    H24 4294   1.308   2.498   3.970  1.2112  0.5925  0.6739
   36MOL    H25 4295   1.256   2.338   4.167 -1.5619  0.0240  0.2911
   36MOL    C26 4296   1.432   2.460   4.223 -0.1368  0.4878  0.4704
   36MOL    C27 4297   1.528   2.424   4.111  0.1587  0.2567  0.8990
   36MOL   Cl28 4298   1.516   2.252   4.080  0.1457  0.2313 -0.2391
   36MOL    H29 4299   1.448   2.390   4.305 -0.5218 -0.9961 -0.6777
   36MOL    H30 4300   1.453   2.555   4.270 -0.3125  1.1754 -0.8109
   36MOL    H31 4301   1.518   2.479   4.017  1.3345 -0.7811  0.1581
   36MOL    C32 4302   1.669   2.459   4.155  0.0290 -0.3137  0.4752
   36MOL    C33 4303   1.782   2.404   4.066  0.3849 -0.2701 -0.1299
   36MOL   Cl34 4304   1.943   2.445   4.134  0.0759  0.3051 -0.2603
   36MOL    H35 4305   1.686   2.411   4.252  0.3140 -3.1187 -0.9381
   36MOL    H36 4306   1.692   2.565   4.169  0.1016 -0.3343  0.5170
   36MOL    H37 4307   1.776   2.296   4.052 -2.0693 -0.4236  1.7315
   36MOL    C38 4308   1.773   2.466   3.927 -0.4224 -0.2672 -0.5504
   36MOL    C39 4309   1.889   2.434   3.828  0.0252  0.1030 -0.3312
   36MOL   Cl40 4310   1.860   2.548   3.696  0.1196  0.1425  0.2476
   36MOL    H41 4311   1.765   2.574   3.937 -2.7881 -0.3876 -0.9459
   36MOL    H42 4312   1.681   2.437   3.876 -0.7329  1.9358 -1.2856
   36MOL    H43 4313   1.983   2.463   3.875  0.0801  0.0490 -0.4081
   36MOL    C44 4314   1.887   2.291   3.774  0.6062  0.1562 -0.2921
   36MOL    C45 4315   1.975   2.259   3.650  0.3684  0.0003  0.2692
   36MOL   Cl46 4316   1.938   2.088   3.620  0.2875  0.3069  0.0795
   36MOL    H47 4317   1.784   2.271   3.745  0.7791 -1.8814  0.4087
   36MOL    H48 4318   1.914   2.223   3.855 -0.8396  0.9403  0.8897
   36MOL    H49 4319   1.927   2.310   3.567  1.6003  0.6267 -0.0702
   36MOL    C50 4320   2.126   2.274   3.661  0.5426  0.1094  0.2101
   36MOL    C51 4321   2.185   2.187   3.777 -0.2166 -0.7183 -0.7971
   36MOL   Cl52 4322   2.146   2.262   3.937  0.3025 -0.4866 -0.3477
   36MOL    H53 4323   2.148   2.380   3.676 -0.7626  0.3895  0.2224
   36MOL    H54 4324   2.162   2.248   3.562 -1.5164  0.6196 -0.6971
   36MOL    H55 4325   2.150   2.084   3.773 -0.2114 -0.7231 -0.7280
   36MOL    C56 4326   2.338   2.180   3.761  0.6770 -0.4077  0.3476
   36MOL    C57 4327   2.400   2.042   3.825 -0.2709  0.1549 -0.4614
   36MOL   Cl58 4328   2.570   2.081   3.878  0.1436  0.1415 -0.5029
   36MOL    H59 4329   2.396   2.264   3.798  1.2684 -0.1382 -1.1611
   36MOL    H60 4330   2.358   2.174   3.654 -1.6406 -0.0902 -0.1213
   36MOL    H61 4331   2.352   2.012   3.918  0.8717  1.0640  0.4359
   36MOL    C62 4332   2.412   1.923   3.724  0.2401 -0.1609 -0.4923
   36MOL    C63 4333   2.274   1.867   3.675 -0.0058  0.5275 -0.4899
   36MOL   Cl64 4334   2.178   1.814   3.809 -0.2288  0.3961  0.2587
   36MOL    H65 4335   2.470   1.841   3.766 -1.0177  0.0663  1.7652
   36MOL    H66 4336   2.471   1.947   3.636  0.1713 -0.4637 -0.6220
   36MOL    H67 4337   2.216   1.949   3.632  1.2787  0.0373 -3.2748
   36MOL    C68 4338   2.284   1.754   3.564  0.3494 -0.2231  0.0847
   36MOL    C69 4339   2.314   1.802   3.419  0.2572  0.4349 -0.1440
   36MOL   Cl70 4340   2.154   1.832   3.341  0.0557 -0.0631 -0.1432
   36MOL    H71 4341   2.201   1.684   3.569  0.6497 -0.5020  1.1846
   36MOL    H72 4342   2.363   1.688   3.598  1.3392 -0.1259 -1.9259
   36MOL    H73 4343   2.377   1.890   3.410  1.8526 -0.5678  0.9625
   36MOL    C74 4344   2.375   1.697   3.327  0.3977  0.2817 -0.4473
   36MOL    C75 4345   2.525   1.657   3.351 -0.1417  0.5267 -0.3978
   36MOL   Cl76 4346   2.647   1.784   3.300 -0.3313 -0.1016 -0.1493
   36MOL    H77 4347   2.374   1.731   3.224 -0.5407 -0.0892 -0.5657
   36MOL    H78 4348   2.310   1.610   3.327 -0.1036  0.6582 -0.9230
   36MOL    H79 4349   2.546   1.645   3.458  1.0948  0.5609 -0.6292
   36MOL    C80 4350   2.585   1.524   3.295  0.4052 -0.3075  0.0300
   36MOL    C81 4351   2.595   1.514   3.144  0.9085 -0.2011 -0.5383
   36MOL   Cl82 4352   2.442   1.451   3.079 -0.0939  0.0165 -0.1764
   36MOL    H83 4353   2.536   1.433   3.332  0.5517 -0.6518 -0.6200
   36MOL    H84 4354   2.686   1.516   3.334  0.6119 -1.6804 -0.7524
   36MOL    H85 4355   2.604   1.613   3.099  0.5502  0.7060  1.3541
   36MOL    C86 4356   2.716   1.421   3.102 -0.1964  0.1825  0.3000
   36MOL    C87 4357   2.706   1.277   3.167  0.1597  0.0186  0.5385
   36MOL   Cl88 4358   2.799   1.282   3.319 -0.0663 -0.0142 -0.2460
   36MOL    H89 4359   2.810   1.476   3.116  0.1107 -0.8871  2.5519
   36MOL    H90 4360   2.712   1.405   2.994 -2.2176 -0.4468  0.4526
   36MOL    H91 4361   2.604   1.249   3.193 -0.2351 -1.6047 -2.5531
   36MOL    C92 4362   2.765   1.168   3.078 -0.1469  0.7444 -0.0724
   36MOL    C93 4363   2.725   1.022   3.107  0.4206  0.1669  0.2878
   36MOL   Cl94 4364   2.546   1.017   3.099 -0.0115 -0.0662 -0.1772
   36MOL    H95 4365   2.874   1.180   3.072  0.0655 -0.6896  0.6407
   36MOL    H96 4366   2.723   1.183   2.979  0.2954  0.6430 -0.2767
   36MOL    H97 4367   2.764   0.961   3.025 -1.5182  0.7144 -1.0714
   36MOL    C98 4368   2.777   0.961   3.239  0.6853  0.4958  0.2962
   36MOL    C99 4369   2.743   0.812   3.258  0.4644 -0.5660  0.2657
   36MOL  Cl100 4370   2.806   0.773   3.412  0.1276 -0.1848 -0.1364
   36MOL   H101 4371   2.729   1.013   3.322 -1.4902  0.8436 -1.1487
   36MOL   H102 4372   2.886   0.964   3.246  0.9122 -3.8504  0.3741
   36MOL   H103 4373   2.635   0.797   3.263  0.5188 -1.5899 -1.4327
   36MOL   C104 4374   2.804   0.725   3.147  0.5359  0.0268  0.6687
   36MOL   C105 4375   2.707   0.680   3.043  0.5142  0.3274 -0.2326
   36MOL  Cl106 4376   2.581   0.584   3.121  0.0277 -0.4006 -0.1976
   36MOL   H107 4377   2.860   0.639   3.185 -0.8469 -1.0063  0.3748
   36MOL   H108 4378   2.883   0.771   3.087  0.6901  0.6480  1.3447
   36MOL   H109 4379   2.666   0.772   3.000  1.1666  0.5632 -0.3529
   36MOL   C110 4380   2.782   0.583   2.949  0.6295 -0.4095 -0.1720
   36MOL   C111 4381   2.702   0.516   2.835  0.8058  0.3682 -0.4620
   36MOL  Cl112 4382   2.797   0.389   2.765  0.1517 -0.0052 -0.1483
   36MOL   H113 4383   2.819   0.495   3.002  1.6427  1.6838  2.7600
   36MOL   H114 4384   2.874   0.632   2.917  0.9280  0.1401  1.4487
   36MOL   H115 4385   2.615   0.470   2.882  0.3124  1.3171 -0.4382
   36MOL   C116 4386   2.667   0.616   2.720  0.2905  0.1272  0.2997
   36MOL   C117 4387   2.552   0.559   2.624 -0.4944  0.3684  0.2278
   36MOL  Cl118 4388   2.518   0.665   2.480 -0.2514 -0.3039  0.1690
   36MOL   H119 4389   2.759   0.618   2.663  0.6748 -0.1828  0.9002
   36MOL   H120 4390   2.645   0.717   2.753 -1.4422 -0.6453  1.6286
   36MOL   H121 4391   2.580   0.458   2.593 -1.6167 -0.8417  2.9568
   36MOL   H122 4392   2.460   0.552   2.683 -2.0341  1.0331 -2.0322
   37MOL     C1 4393   7.988   5.130   0.155  0.3819  0.3154 -0.1518
   37MOL     C2 4394   8.044   5.264   0.100  0.1442  0.2414 -0.2284
   37MOL    Cl3 4395   7.967   5.303   8.467  0.1349  0.1323  0.2042
   37MOL     H4 4396   7.879   5.119   0.151  0.2694  0.5414  1.7967
   37MOL     H5 4397   8.014   5.042   0.097 -2.5028 -1.2565  0.8249
   37MOL     H6 4398   8.017   5.340   0.173  1.0697  0.1860  0.1811
   37MOL     H7 4399   8.005   5.117   0.262 -1.1589  0.3716  0.1234
   37MOL     C8 4400   8.202   5.250   0.073  0.5163  0.0192 -0.5131
   37MOL     C9 4401   8.268   5.390   0.053  0.0783 -0.1796 -0.2961
   37MOL   Cl10 4402   8.428   5.361   8.509  0.2771 -0.2683 -0.0761
   37MOL    H11 4403   8.223   5.191   8.509  0.5258  0.8877 -1.0896
   37MOL    H12 4404   8.264   5.206   0.151  0.5360  1.7745  0.4894
   37MOL    H13 4405   8.207   5.441   8.503 -1.6921 -0.3376  0.9884
   37MOL    C14 4406   8.290   5.456   0.193 -0.1119  0.2981  0.0345
   37MOL    C15 4407   8.268   5.606   0.193 -0.4723  0.0194 -0.1971
   37MOL   Cl16 4408   8.326   5.672   0.345 -0.2559 -0.2214  0.4652
   37MOL    H17 4409   8.386   5.425   0.234 -0.9576 -1.0818  1.0332
   37MOL    H18 4410   8.208   5.424   0.258 -0.6502 -2.1117 -1.7593
   37MOL    H19 4411   8.326   5.652   0.113  1.8188  0.0738  1.4348
   37MOL    C20 4412   8.121   5.638   0.182  0.0229  0.4648 -0.3745
   37MOL    C21 4413   8.088   5.784   0.158 -0.0342 -0.0065 -0.3194
   37MOL   Cl22 4414   7.909   5.796   0.171  0.2710  0.3775  0.2477
   37MOL    H23 4415   8.078   5.600   0.274  1.4636  1.4779  0.7541
   37MOL    H24 4416   8.075   5.582   0.100  1.1176 -1.1580  0.0865
   37MOL    H25 4417   8.120   5.854   0.235 -1.7454 -2.6648  2.9060
   37MOL    C26 4418   8.132   5.831   0.018  0.1304 -0.4196 -0.1608
   37MOL    C27 4419   8.068   5.967   8.504 -0.6281  0.7580  0.0616
   37MOL   Cl28 4420   8.102   5.985   8.322  0.2944 -0.0779 -0.1306
   37MOL    H29 4421   8.109   5.753   8.471  2.3564  0.1339 -1.4977
   37MOL    H30 4422   8.241   5.837   0.006  0.2650  1.2246  1.6228
   37MOL    H31 4423   7.959   5.968   8.512 -0.5150 -0.7259  2.2775
   37MOL    C32 4424   8.124   6.088   0.053 -0.5959  0.6848 -0.7835
   37MOL    C33 4425   8.083   6.217   8.524  0.0183  0.0385  0.3103
   37MOL   Cl34 4426   8.168   6.327   0.106 -0.0511  0.1237  0.3349
   37MOL    H35 4427   8.233   6.086   0.050 -0.6300 -1.3995 -2.2012
   37MOL    H36 4428   8.097   6.081   0.159  0.2349  0.6014 -0.5680
   37MOL    H37 4429   8.138   6.221   8.430 -1.4137  2.4536 -0.4643
   37MOL    C38 4430   7.933   6.256   8.515  0.9201  0.0657 -0.2117
   37MOL    C39 4431   7.906   6.393   8.446 -0.6224 -0.0200  0.4830
   37MOL   Cl40 4432   7.734   6.413   8.445  0.2664 -0.1124 -0.0893
   37MOL    H41 4433   7.894   6.248   0.091  0.9802  1.4025 -0.0666
   37MOL    H42 4434   7.887   6.171   8.465  1.4418 -0.6483  0.5215
   37MOL    H43 4435   7.944   6.473   8.509 -2.8112  1.5779 -0.1632
   37MOL    C44 4436   7.962   6.412   8.311 -0.1446 -0.0391 -0.0634
   37MOL    C45 4437   7.963   6.554   8.266  0.4150 -0.9650 -0.4477
   37MOL   Cl46 4438   7.989   6.554   8.095 -0.0529 -0.0134 -0.3429
   37MOL    H47 4439   7.896   6.349   8.252 -0.1399  1.0450 -1.2591
   37MOL    H48 4440   8.067   6.384   8.309  0.1741  1.1646 -0.6031
   37MOL    H49 4441   7.864   6.596   8.284  1.1926  0.3470  0.9047
   37MOL    C50 4442   8.068   6.641   8.344  0.0897  0.5137  0.1258
   37MOL    C51 4443   8.219   6.648   8.299  0.6415 -0.2917 -0.3160
   37MOL   Cl52 4444   8.307   6.515   8.377  0.4582  0.0737  0.0871
   37MOL    H53 4445   8.058   6.626   8.452  0.4547 -0.4830  0.0206
   37MOL    H54 4446   8.023   6.740   8.339 -0.2592  0.2909 -1.3472
   37MOL    H55 4447   8.229   6.640   8.191  2.1548  0.7681 -0.2751
   37MOL    C56 4448   8.279   6.788   8.347  0.7316  0.0869  0.1153
   37MOL    C57 4449   8.232   6.915   8.267 -0.4075 -0.3865 -0.3538
   37MOL   Cl58 4450   8.296   6.896   8.099  0.0685 -0.3489 -0.2179
   37MOL    H59 4451   8.384   6.785   8.317  0.3833 -2.9022 -0.9597
   37MOL    H60 4452   8.280   6.803   8.455  0.0798  2.5295 -0.1934
   37MOL    H61 4453   8.124   6.930   8.269 -0.4450 -0.5792  3.3755
   37MOL    C62 4454   8.292   7.050   8.322 -0.9620 -0.2345 -0.1009
   37MOL    C63 4455   8.224   7.103   8.451 -0.3254 -0.0249 -0.1371
   37MOL   Cl64 4456   8.236   7.283   8.460  0.3121  0.2081  0.2150
   37MOL    H65 4457   8.290   7.138   8.258  1.2567  0.9943  1.4348
   37MOL    H66 4458   8.396   7.029   8.348 -0.2052  2.1101 -1.1014
   37MOL    H67 4459   8.121   7.072   8.438  0.0444 -1.0909 -0.5851
   37MOL    C68 4460   8.285   7.049   0.059 -0.2913 -0.4499  0.3868
   37MOL    C69 4461   8.176   7.012   0.171 -0.2568  0.2934  0.6364
   37MOL   Cl70 4462   8.279   6.968   0.311  0.2898  0.0046 -0.3193
   37MOL    H71 4463   8.350   7.128   0.098 -2.2849  1.8862 -0.9243
   37MOL    H72 4464   8.351   6.963   0.044  1.0551  0.2598  1.9963
   37MOL    H73 4465   8.134   7.111   0.189  0.8640  0.4522  2.5625
   37MOL    C74 4466   8.083   6.896   0.138  0.3612  0.0048 -0.4496
   37MOL    C75 4467   7.986   6.832   0.244  0.2564 -0.8629  0.4330
   37MOL   Cl76 4468   7.911   6.685   0.164 -0.0929  0.3278  0.1998
   37MOL    H77 4469   8.146   6.814   0.103 -0.2660 -1.0412  0.8205
   37MOL    H78 4470   8.027   6.915   0.046  0.5238  0.2124 -0.5051
   37MOL    H79 4471   8.042   6.786   0.325  1.3722 -2.0353 -0.9960
   37MOL    C80 4472   7.864   6.919   0.295 -0.3954 -0.4255  0.5702
   37MOL    C81 4473   7.895   7.023   0.402  0.2740 -0.2240  0.0989
   37MOL   Cl82 4474   7.939   6.951   0.558  0.1673  0.3356 -0.3027
   37MOL    H83 4475   7.776   6.861   0.324 -0.4424 -0.6670 -0.0575
   37MOL    H84 4476   7.821   6.969   0.208 -0.6911 -0.4749  0.6868
   37MOL    H85 4477   7.986   7.077   0.375  0.0762  0.7502  1.3193
   37MOL    C86 4478   7.782   7.137   0.416  0.4569 -0.3616  0.2144
   37MOL    C87 4479   7.795   7.251   0.305 -0.8766  0.8396 -0.7737
   37MOL   Cl88 4480   7.938   7.354   0.327  0.2739 -0.0937 -0.0747
   37MOL    H89 4481   7.784   7.181   0.516 -2.7881 -1.8115  0.9987
   37MOL    H90 4482   7.681   7.096   0.413  1.3816 -2.6191 -2.2275
   37MOL    H91 4483   7.809   7.196   0.212 -0.9606 -0.5157 -0.0011
   37MOL    C92 4484   7.671   7.345   0.299 -0.3093 -1.0797  1.0750
   37MOL    C93 4485   7.672   7.470   0.207 -0.2560  0.1397  1.0031
   37MOL   Cl94 4486   7.510   7.539   0.225 -0.0529  0.0323 -0.1017
   37MOL    H95 4487   7.645   7.388   0.395 -1.5818  0.3992  0.1016
   37MOL    H96 4488   7.582   7.287   0.275 -1.6631  1.2296  0.3628
   37MOL    H97 4489   7.742   7.546   0.243 -0.4083  0.3396  0.8808
   37MOL    C98 4490   7.699   7.436   0.062  0.0431  0.1852  0.4320
   37MOL    C99 4491   7.735   7.562   8.502  0.0378 -0.0365 -0.4917
   37MOL  Cl100 4492   7.688   7.519   8.335 -0.3220 -0.0744 -0.5054
   37MOL   H101 4493   7.620   7.383   0.009  1.3114 -1.8152  0.4617
   37MOL   H102 4494   7.794   7.383   0.069 -0.0658  0.0375  0.7969
   37MOL   H103 4495   7.675   7.650   0.001  0.5005  0.8579 -2.4601
   37MOL   C104 4496   7.896   7.596   8.498  0.8210 -0.6967  0.7856
   37MOL   C105 4497   7.926   7.753   8.470  0.2420  0.3107  0.1158
   37MOL  Cl106 4498   7.856   7.860   0.071  0.0712  0.1606 -0.0614
   37MOL   H107 4499   7.945   7.533   8.423  0.1372 -1.0342  0.6194
   37MOL   H108 4500   7.928   7.567   0.073 -1.9491 -1.2832  1.5491
   37MOL   H109 4501   8.035   7.754   8.477  0.4685  3.1477 -2.3649
   37MOL   C110 4502   7.872   7.795   8.330  0.4480 -0.1985 -0.6433
   37MOL   C111 4503   7.901   7.940   8.300  0.0511  0.0855 -0.1505
   37MOL  Cl112 4504   7.829   7.957   8.130 -0.2099 -0.1418 -0.1113
   37MOL   H113 4505   7.764   7.781   8.327  0.5709 -1.9931  1.9255
   37MOL   H114 4506   7.911   7.723   8.258  1.4020  0.3911 -0.7200
   37MOL   H115 4507   7.846   8.011   8.362  1.3720  0.9559  0.0436
   37MOL   C116 4508   8.046   7.969   8.295 -0.6395  0.5635 -0.1708
   37MOL   C117 4509   8.088   8.111   8.250 -0.3204 -0.1350 -0.4557
   37MOL  Cl118 4510   8.264   8.110   8.235 -0.2358  0.3696  0.3854
   37MOL   H119 4511   8.074   7.896   8.219  1.2791  0.6437  0.4139
   37MOL   H120 4512   8.108   7.935   8.378  0.9383  0.2932 -1.4187
   37MOL   H121 4513   8.037   8.148   8.161  0.1717  2.2469  0.2121
   37MOL   H122 4514   8.064   8.184   8.328 -0.1916 -0.0444 -0.4983
   38MOL     C1 4515   0.155   2.922   8.197  0.1573  0.1360 -0.1575
   38MOL     C2 4516   0.286   2.875   8.134 -0.0104  0.0227 -0.1414
   38MOL    Cl3 4517   0.387   2.829   8.271 -0.2811 -0.3052  0.0130
   38MOL     H4 4518   0.082   2.953   8.122  1.3261  0.8938 -0.9925
   38MOL     H5 4519   0.111   2.841   8.256 -0.6322  0.6947  0.0256
   38MOL     H6 4520   0.269   2.785   8.075  2.3155 -0.5189 -0.0260
   38MOL     H7 4521   0.182   3.015   8.247 -2.6010  2.4364 -2.7629
   38MOL     C8 4522   0.351   2.975   8.039  0.6844  0.2010 -0.2409
   38MOL     C9 4523   0.285   2.996   7.904 -0.5774  0.3253 -0.3251
   38MOL   Cl10 4524   0.243   2.842   7.828  0.2277  0.2385  0.3352
   38MOL    H11 4525   0.459   2.955   8.040  0.9256  1.4658  1.8940
   38MOL    H12 4526   0.357   3.066   8.099 -0.1355 -0.5934  1.0646
   38MOL    H13 4527   0.184   3.031   7.926 -1.2954 -0.9910 -1.4361
   38MOL    C14 4528   0.380   3.085   7.813 -0.0173  0.3182  0.1904
   38MOL    C15 4529   0.402   3.233   7.866  0.1919  0.7263 -0.0342
   38MOL   Cl16 4530   0.251   3.306   7.903  0.0034  0.0728 -0.5826
   38MOL    H17 4531   0.323   3.088   7.720  1.2210 -0.3916 -0.5979
   38MOL    H18 4532   0.476   3.038   7.795 -0.7266 -0.4777 -1.6109
   38MOL    H19 4533   0.445   3.233   7.967  1.6265 -0.7470 -0.6076
   38MOL    C20 4534   0.480   3.323   7.769  0.2315 -0.7753  0.0235
   38MOL    C21 4535   0.494   3.469   7.815 -0.3033 -0.4403  0.0869
   38MOL   Cl22 4536   0.508   3.577   7.675 -0.7615  0.1918 -0.4156
   38MOL    H23 4537   0.422   3.334   7.678 -0.5741  0.1543  0.6289
   38MOL    H24 4538   0.575   3.277   7.741  0.3379  0.2668 -1.3577
   38MOL    H25 4539   0.397   3.502   7.851 -1.0721 -0.4590 -1.9012
   38MOL    C26 4540   0.602   3.499   7.925 -0.8488 -0.4853  0.4748
   38MOL    C27 4541   0.626   3.650   7.955 -0.2829  0.1206  0.8668
   38MOL   Cl28 4542   0.770   3.659   8.058  0.0890 -0.1549 -0.1013
   38MOL    H29 4543   0.693   3.446   7.895 -0.3750 -0.1180  1.2452
   38MOL    H30 4544   0.566   3.442   8.011  1.1357 -1.6406  0.5719
   38MOL    H31 4545   0.651   3.704   7.864  0.3675 -0.9435  0.4050
   38MOL    C32 4546   0.515   3.705   8.047 -0.6061  0.5092  0.0293
   38MOL    C33 4547   0.519   3.860   8.063 -0.4757  0.0788  0.1371
   38MOL   Cl34 4548   0.410   3.898   8.195 -0.3206  0.1082  0.0289
   38MOL    H35 4549   0.503   3.652   8.141 -2.0992  1.5031  0.4135
   38MOL    H36 4550   0.417   3.680   8.008  0.1488  0.5199 -1.9725
   38MOL    H37 4551   0.616   3.888   8.103 -0.1262 -0.6653 -0.1754
   38MOL    C38 4552   0.483   3.935   7.932  0.1534  0.3627 -0.0409
   38MOL    C39 4553   0.510   4.078   7.949 -0.5397  0.0140  0.8312
   38MOL   Cl40 4554   0.375   4.173   7.861 -0.4601 -0.2536  0.1168
   38MOL    H41 4555   0.377   3.923   7.908  0.4406 -2.0260 -0.2588
   38MOL    H42 4556   0.542   3.890   7.851  0.7588  0.8635  0.1187
   38MOL    H43 4557   0.499   4.110   8.052  1.1937 -0.9635  1.3231
   38MOL    C44 4558   0.651   4.127   7.906  0.2507 -0.3513  0.1239
   38MOL    C45 4559   0.777   4.095   7.988 -0.3560  0.0850 -0.4422
   38MOL   Cl46 4560   0.756   4.126   8.166  0.0901 -0.1837 -0.0345
   38MOL    H47 4561   0.643   4.234   7.920 -1.4168 -0.6773  1.8694
   38MOL    H48 4562   0.675   4.115   7.800  2.1607 -0.1921  0.5301
   38MOL    H49 4563   0.786   3.987   7.980  0.1816  0.3508 -4.0172
   38MOL    C50 4564   0.902   4.173   7.940  0.0901  0.3163 -0.0085
   38MOL    C51 4565   0.945   4.168   7.788  0.1715  0.3286  0.4651
   38MOL   Cl52 4566   0.983   3.995   7.742 -0.3220 -0.3021 -0.3076
   38MOL    H53 4567   0.983   4.129   7.998 -0.3211  0.8733  0.9980
   38MOL    H54 4568   0.898   4.278   7.968 -0.4927 -0.1407  1.6585
   38MOL    H55 4569   0.870   4.194   7.714 -1.4863 -2.9420  0.9233
   38MOL    C56 4570   1.081   4.237   7.766  0.4342  0.8883  0.0307
   38MOL    C57 4571   1.106   4.388   7.793 -0.2333 -0.2918  1.2813
   38MOL   Cl58 4572   1.023   4.474   7.661  0.0298  0.1603 -0.2671
   38MOL    H59 4573   1.116   4.217   7.665 -0.1244 -0.1433  0.0314
   38MOL    H60 4574   1.165   4.186   7.813  2.2677  0.6710 -3.3382
   38MOL    H61 4575   1.053   4.407   7.886 -2.4790 -2.0026  0.3964
   38MOL    C62 4576   1.252   4.425   7.797 -0.2663  0.1597  0.0145
   38MOL    C63 4577   1.296   4.570   7.805  0.0454 -0.3100 -0.1813
   38MOL   Cl64 4578   1.480   4.571   7.781 -0.3554 -0.2276  0.0717
   38MOL    H65 4579   1.304   4.379   7.713  0.2635  0.0144  0.4232
   38MOL    H66 4580   1.289   4.375   7.886 -0.3253  2.4862  1.3969
   38MOL    H67 4581   1.256   4.623   7.719  0.8138  0.1724 -0.2455
   38MOL    C68 4582   1.254   4.648   7.941 -0.4111  0.0758  0.5916
   38MOL    C69 4583   1.327   4.599   8.069  0.0983 -0.7493  0.5498
   38MOL   Cl70 4584   1.222   4.473   8.144  0.1883 -0.0919  0.1998
   38MOL    H71 4585   1.148   4.650   7.965 -0.0754 -1.6234  2.3554
   38MOL    H72 4586   1.270   4.755   7.926 -1.9184  0.2601  0.2495
   38MOL    H73 4587   1.418   4.546   8.041 -0.0522 -0.6768 -0.0736
   38MOL    C74 4588   1.366   4.714   8.168  0.2913  0.3649  0.9957
   38MOL    C75 4589   1.512   4.771   8.127  0.2420  0.0202  0.2360
   38MOL   Cl76 4590   1.642   4.678   8.210 -0.2056  0.0886 -0.0303
   38MOL    H77 4591   1.366   4.674   8.269  0.0766 -0.3803  0.7063
   38MOL    H78 4592   1.294   4.796   8.162 -0.4287 -0.3777 -1.0655
   38MOL    H79 4593   1.527   4.756   8.020  2.4262  1.0951  0.3779
   38MOL    C80 4594   1.524   4.919   8.165 -0.2996  0.4433 -0.2328
   38MOL    C81 4595   1.440   5.022   8.078  0.4140 -0.2096  0.2116
   38MOL   Cl82 4596   1.482   4.996   7.907 -0.0037 -0.2729  0.5329
   38MOL    H83 4597   1.631   4.938   8.152 -0.0625  0.2775  1.4562
   38MOL    H84 4598   1.510   4.931   8.272 -0.9691 -0.8955 -0.1708
   38MOL    H85 4599   1.333   5.001   8.069 -0.1741  3.0946 -1.4529
   38MOL    C86 4600   1.467   5.174   8.107 -0.4539  0.1890  0.7494
   38MOL    C87 4601   1.437   5.215   8.258 -0.0869 -0.1891  0.3127
   38MOL   Cl88 4602   1.284   5.153   8.319 -0.2430  0.1225 -0.1906
   38MOL    H89 4603   1.421   5.240   8.034 -2.4594 -1.0950  0.8073
   38MOL    H90 4604   1.575   5.188   8.099 -0.3045  0.5825  2.9344
   38MOL    H91 4605   1.526   5.186   8.314  0.9978  0.6274 -0.9492
   38MOL    C92 4606   1.429   5.368   8.251  0.0181  0.2113 -0.0761
   38MOL    C93 4607   1.430   5.447   8.385 -0.1819  0.8505  0.2192
   38MOL   Cl94 4608   1.376   5.613   8.365  0.0194  0.2728 -0.0643
   38MOL    H95 4609   1.344   5.399   8.190 -0.5337  0.2189  0.6954
   38MOL    H96 4610   1.512   5.398   8.186  0.2866 -2.4856 -1.0301
   38MOL    H97 4611   1.346   5.407   8.441 -1.5928  1.9669 -1.0694
   38MOL    C98 4612   1.564   5.436   8.446  0.2598 -0.2249  0.1279
   38MOL    C99 4613   1.590   5.519   0.051  0.5416  0.0383  0.1887
   38MOL  Cl100 4614   1.764   5.513   0.095 -0.3024  0.0630 -0.1942
   38MOL   H101 4615   1.628   5.465   8.363 -0.4793 -0.3549 -0.4938
   38MOL   H102 4616   1.583   5.331   8.469  0.0634 -0.2871  0.0084
   38MOL   H103 4617   1.562   5.623   0.035  1.0061 -0.2156 -2.5568
   38MOL   C104 4618   1.508   5.460   0.167  0.1708 -0.3073 -0.7984
   38MOL   C105 4619   1.511   5.550   0.293 -0.3615 -0.6232 -0.5859
   38MOL  Cl106 4620   1.478   5.455   0.442  0.2766 -0.2006 -0.0384
   38MOL   H107 4621   1.538   5.358   0.194  0.6098 -0.0411 -0.2602
   38MOL   H108 4622   1.405   5.445   0.136 -0.0253  0.1760 -0.3878
   38MOL   H109 4623   1.606   5.604   0.296 -0.3011 -0.7533 -0.1337
   38MOL   C110 4624   1.400   5.657   0.281 -0.2735  0.2588  1.0026
   38MOL   C111 4625   1.401   5.766   0.390  0.3072  0.2679 -0.1453
   38MOL  Cl112 4626   1.257   5.875   0.369 -0.2431 -0.5134 -0.4746
   38MOL   H113 4627   1.302   5.612   0.296  1.5339 -4.0582  0.4938
   38MOL   H114 4628   1.397   5.696   0.179  1.8221 -1.8212  0.0754
   38MOL   H115 4629   1.388   5.722   0.489 -1.2229  0.0712 -0.4255
   38MOL   C116 4630   1.529   5.859   0.376  0.2980  0.2017  0.1490
   38MOL   C117 4631   1.536   5.950   0.243  0.6296 -0.2995  0.2510
   38MOL  Cl118 4632   1.688   6.054   0.242 -0.2017  0.1229  0.0516
   38MOL   H119 4633   1.621   5.799   0.374  0.9847  1.2535  0.1578
   38MOL   H120 4634   1.536   5.928   0.459  1.9090 -0.5625  0.6859
   38MOL   H121 4635   1.539   5.891   0.151  0.4413 -1.0320  0.7119
   38MOL   H122 4636   1.445   6.010   0.240 -0.6740 -2.1468  1.4757
   39MOL     C1 4637   4.389   7.428   1.478  0.1462  0.1328  0.5358
   39MOL     C2 4638   4.243   7.475   1.464  0.2837  0.6369 -0.4180
   39MOL    Cl3 4639   4.203   7.617   1.575 -0.2153 -0.0326 -0.0664
   39MOL     H4 4640   4.411   7.394   1.580 -0.5959  3.5541  1.9175
   39MOL     H5 4641   4.425   7.355   1.406  1.1368  3.4525 -2.4692
   39MOL     H6 4642   4.223   7.514   1.364  0.6755 -0.1428 -0.8075
   39MOL     H7 4643   4.445   7.520   1.463 -1.7897  0.9040 -2.2520
   39MOL     C8 4644   4.138   7.357   1.473 -0.1968  0.5954  0.4106
   39MOL     C9 4645   4.135   7.262   1.358 -0.1690 -0.4623 -0.5290
   39MOL   Cl10 4646   4.121   7.356   1.195 -0.0123 -0.4559  0.0750
   39MOL    H11 4647   4.047   7.413   1.494 -1.1468 -1.1185  0.9628
   39MOL    H12 4648   4.146   7.304   1.568 -0.3914  0.8666  0.5791
   39MOL    H13 4649   4.229   7.206   1.363  0.1396  0.1540  0.8810
   39MOL    C14 4650   4.031   7.159   1.361  0.6443 -0.5108  0.4452
   39MOL    C15 4651   4.043   7.039   1.259 -0.1570 -0.2211 -0.0387
   39MOL   Cl16 4652   3.893   6.950   1.256 -0.3426  0.1478 -0.3714
   39MOL    H17 4653   3.933   7.204   1.347  0.8925 -0.6219 -1.7649
   39MOL    H18 4654   4.011   7.127   1.463 -3.1216  2.3786  0.7283
   39MOL    H19 4655   4.057   7.076   1.157  2.5384  1.7204  0.9673
   39MOL    C20 4656   4.157   6.942   1.286  0.5585  0.0951 -0.5198
   39MOL    C21 4657   4.195   6.852   1.160  0.8259  1.0278 -0.5505
   39MOL   Cl22 4658   4.319   6.735   1.218  0.1272  0.1289 -0.3162
   39MOL    H23 4659   4.135   6.880   1.373 -0.9730 -0.5780 -1.3657
   39MOL    H24 4660   4.252   6.990   1.308  1.3979 -2.0412  0.6331
   39MOL    H25 4661   4.106   6.794   1.138  0.9671  0.4603  0.3785
   39MOL    C26 4662   4.241   6.922   1.029 -0.2013 -0.0733  0.3987
   39MOL    C27 4663   4.203   6.841   0.899  0.8800 -0.0149  0.0822
   39MOL   Cl28 4664   4.278   6.677   0.901  0.0024  0.4493 -0.0954
   39MOL    H29 4665   4.347   6.945   1.036  0.1508 -1.4087 -0.2056
   39MOL    H30 4666   4.190   7.017   1.018 -0.2800 -0.3427 -1.8913
   39MOL    H31 4667   4.095   6.831   0.899  0.9194 -0.6568  2.5995
   39MOL    C32 4668   4.242   6.907   0.766 -0.6077  0.2007  0.2522
   39MOL    C33 4669   4.188   6.844   0.636  0.1767  0.2048 -0.2484
   39MOL   Cl34 4670   4.276   6.914   0.501 -0.1246  0.0629  0.3215
   39MOL    H35 4671   4.351   6.908   0.777 -0.6628  0.4424  0.7772
   39MOL    H36 4672   4.202   7.008   0.773 -0.7733  0.1886 -0.5158
   39MOL    H37 4673   4.222   6.741   0.643  0.8911  0.5618  1.9089
   39MOL    C38 4674   4.040   6.863   0.623  0.6623 -0.3356  0.0087
   39MOL    C39 4675   3.981   6.832   0.488  0.7139 -0.0381  1.1254
   39MOL   Cl40 4676   3.811   6.876   0.480  0.1603 -0.2725  0.1462
   39MOL    H41 4677   4.006   6.966   0.636  0.2044 -0.6264  1.1993
   39MOL    H42 4678   3.982   6.803   0.694 -1.7393  0.3857 -1.2816
   39MOL    H43 4679   4.027   6.897   0.413 -3.6928  1.1472 -0.7684
   39MOL    C44 4680   3.990   6.683   0.443  0.5141  0.3100  0.5280
   39MOL    C45 4681   3.984   6.671   0.289 -0.6991 -0.7963  0.2006
   39MOL   Cl46 4682   3.945   6.495   0.269  0.1894 -0.6803 -0.2171
   39MOL    H47 4683   3.919   6.627   0.503  0.4853 -2.3561 -1.9068
   39MOL    H48 4684   4.082   6.637   0.481  1.8999  1.5096 -1.2898
   39MOL    H49 4685   3.906   6.739   0.254  1.4247  0.6992 -1.7612
   39MOL    C50 4686   4.119   6.701   0.220  0.2345 -0.2603 -0.9998
   39MOL    C51 4687   4.116   6.677   0.064  0.0277 -0.0330  0.4191
   39MOL   Cl52 4688   4.282   6.638   0.001 -0.0858 -0.1344 -0.1054
   39MOL    H53 4689   4.203   6.647   0.264  0.7950  2.0774  0.8776
   39MOL    H54 4690   4.146   6.804   0.242  0.6854 -0.8417  1.3123
   39MOL    H55 4691   4.051   6.596   0.031  1.0059 -1.6436  2.3880
   39MOL    C56 4692   4.070   6.806   8.521  0.3185 -0.2488  0.4781
   39MOL    C57 4693   4.071   6.805   8.367 -0.3712  0.2477  0.3090
   39MOL   Cl58 4694   4.037   6.971   8.325  0.0819  0.0163  0.0932
   39MOL    H59 4695   4.131   6.890   0.029 -1.0699  2.0097 -2.3627
   39MOL    H60 4696   3.969   6.829   0.028 -0.5010 -2.7237 -0.2509
   39MOL    H61 4697   4.163   6.770   8.319 -1.8772 -2.0560 -1.0406
   39MOL    C62 4698   3.969   6.714   8.303 -0.0183 -0.3247  0.4446
   39MOL    C63 4699   3.968   6.719   8.148  1.4081 -0.3762 -0.3945
   39MOL   Cl64 4700   3.822   6.633   8.100 -0.4631 -0.0866 -0.6231
   39MOL    H65 4701   3.879   6.751   8.352  0.2292 -2.7764  2.9112
   39MOL    H66 4702   3.985   6.610   8.331  1.1512 -0.2557  0.0533
   39MOL    H67 4703   3.957   6.819   8.107  1.5749 -0.3498 -0.3730
   39MOL    C68 4704   4.097   6.652   8.077  0.3218  0.1031 -0.3768
   39MOL    C69 4705   4.130   6.711   7.937  0.5526  0.8646 -0.3833
   39MOL   Cl70 4706   4.177   6.888   7.940  0.1488 -0.2226 -0.0462
   39MOL    H71 4707   4.079   6.547   8.055 -1.6910  0.2434  0.5076
   39MOL    H72 4708   4.187   6.660   8.139  0.4845  2.2230 -0.8165
   39MOL    H73 4709   4.223   6.663   7.907 -0.2885 -1.1952  0.1986
   39MOL    C74 4710   4.028   6.683   7.824  0.1059  0.0841  0.0906
   39MOL    C75 4711   3.963   6.543   7.811 -0.4677 -0.3450 -0.0752
   39MOL   Cl76 4712   4.085   6.420   7.756  0.1924 -0.0815  0.5636
   39MOL    H77 4713   4.063   6.723   7.729  0.0861  0.2286  0.1438
   39MOL    H78 4714   3.947   6.752   7.848  0.4158  0.6078 -0.3372
   39MOL    H79 4715   3.929   6.506   7.907 -1.8286 -2.3302 -1.2851
   39MOL    C80 4716   3.847   6.546   7.714  0.4405  0.0901 -0.7980
   39MOL    C81 4717   3.779   6.413   7.676 -0.1207 -0.3817 -0.1956
   39MOL   Cl82 4718   3.703   6.328   7.815 -0.3450 -0.1026 -0.4762
   39MOL    H83 4719   3.872   6.609   7.629  1.5483 -0.0017 -0.5488
   39MOL    H84 4720   3.766   6.599   7.765  0.2237 -1.1671  0.2099
   39MOL    H85 4721   3.688   6.442   7.622 -0.7295 -0.2746  0.8876
   39MOL    C86 4722   3.851   6.311   7.580  1.0175  0.5907  0.1158
   39MOL    C87 4723   3.908   6.371   7.455 -0.0525  0.0522 -0.4555
   39MOL   Cl88 4724   3.794   6.464   7.355 -0.3272  0.0945 -0.2539
   39MOL    H89 4725   3.779   6.234   7.553  1.9336 -0.4105  0.4925
   39MOL    H90 4726   3.931   6.258   7.633 -0.2279 -1.2721  0.1706
   39MOL    H91 4727   3.981   6.441   7.494  0.7116  0.6457 -2.8775
   39MOL    C92 4728   3.980   6.278   7.362 -0.4431  0.6324  0.5679
   39MOL    C93 4729   4.046   6.344   7.234 -0.0588 -0.8665 -0.1803
   39MOL   Cl94 4730   3.989   6.241   7.106 -0.2620  0.2118  0.0297
   39MOL    H95 4731   3.905   6.203   7.339 -1.4496  0.6397  3.6034
   39MOL    H96 4732   4.054   6.220   7.417  1.1731 -1.1754 -3.3376
   39MOL    H97 4733   4.008   6.442   7.207 -0.9816 -2.0612 -3.4769
   39MOL    C98 4734   4.202   6.342   7.221  0.1068  0.3086  0.6466
   39MOL    C99 4735   4.275   6.444   7.315 -0.3231 -0.3085 -0.3739
   39MOL  Cl100 4736   4.222   6.601   7.278  0.2123 -0.1626  0.3131
   39MOL   H101 4737   4.222   6.366   7.117 -2.0631 -1.0033 -0.1098
   39MOL   H102 4738   4.249   6.244   7.226  0.6184  0.5097 -0.1700
   39MOL   H103 4739   4.249   6.420   7.418 -0.6546 -0.8516 -0.5821
   39MOL   C104 4740   4.432   6.442   7.305  0.0542 -0.1391  1.0953
   39MOL   C105 4741   4.501   6.307   7.344 -0.1613  0.0238  0.1108
   39MOL  Cl106 4742   4.481   6.264   7.517 -0.3197  0.0645  0.1262
   39MOL   H107 4743   4.483   6.519   7.362  2.2909 -2.2501  2.0339
   39MOL   H108 4744   4.450   6.461   7.199 -1.4459 -1.6801  0.5327
   39MOL   H109 4745   4.458   6.225   7.286 -0.4919  0.6492 -0.5328
   39MOL   C110 4746   4.655   6.314   7.311  0.2620 -0.4745  0.0417
   39MOL   C111 4747   4.735   6.196   7.348 -0.0329 -0.8581  0.4328
   39MOL  Cl112 4748   4.893   6.201   7.282  0.2655  0.3049  0.0664
   39MOL   H113 4749   4.697   6.401   7.362  0.3710 -0.6575  0.2651
   39MOL   H114 4750   4.670   6.349   7.208  0.5518  0.0985  0.2764
   39MOL   H115 4751   4.744   6.199   7.457 -2.4389  1.5992  0.6028
   39MOL   C116 4752   4.677   6.066   7.299  0.0594  0.2555 -0.5769
   39MOL   C117 4753   4.743   5.940   7.369 -0.7106 -0.5484  0.3645
   39MOL  Cl118 4754   4.709   5.776   7.306  0.0415 -0.3490 -0.2624
   39MOL   H119 4755   4.681   6.061   7.190 -2.4154  0.2173 -0.6929
   39MOL   H120 4756   4.571   6.061   7.323  0.5289 -0.6473  1.3808
   39MOL   H121 4757   4.851   5.952   7.372 -0.8480  1.8490 -2.1283
   39MOL   H122 4758   4.706   5.942   7.472 -2.5967 -0.7323 -0.2963
   40MOL     C1 4759   8.444   3.008   0.266 -0.0773  0.2217 -0.1177
   40MOL     C2 4760   8.405   3.089   0.134 -0.5067  0.1818 -0.3519
   40MOL    Cl3 4761   8.272   3.208   0.184 -0.2377  0.1628 -0.7794
   40MOL     H4 4762   8.514   3.069   0.324  0.5170  1.5013 -2.1349
   40MOL     H5 4763   8.354   2.976   0.318 -0.8511  1.4437 -0.6864
   40MOL     H6 4764   8.498   3.137   0.100 -0.8403  0.1374 -1.3472
   40MOL     H7 4765   8.502   2.917   0.252 -0.0487 -0.2426  2.6176
   40MOL     C8 4766   8.351   2.989   0.030  0.0466 -0.3774 -0.1709
   40MOL     C9 4767   8.295   3.049   8.426  0.5877 -0.1472  0.2552
   40MOL   Cl10 4768   8.253   2.906   8.324  0.4516  0.8665 -0.0133
   40MOL    H11 4769   8.271   2.945   0.089  0.5224 -0.6056  0.3020
   40MOL    H12 4770   8.432   2.918   0.012 -0.4523 -1.3963  1.4735
   40MOL    H13 4771   8.197   3.086   8.458  0.5312 -0.0175 -0.0663
   40MOL    C14 4772   8.386   3.144   8.350 -0.5756  0.3751  0.1232
   40MOL    C15 4773   8.346   3.294   8.365  0.0307 -0.4680  0.1098
   40MOL   Cl16 4774   8.199   3.319   8.274 -0.0937  0.4522  0.6823
   40MOL    H17 4775   8.399   3.117   8.246 -1.1838 -1.1076  0.4260
   40MOL    H18 4776   8.484   3.126   8.393 -0.4770  0.6328  0.0054
   40MOL    H19 4777   8.330   3.313   8.471 -0.5215 -2.9579  0.5138
   40MOL    C20 4778   8.447   3.396   8.326 -0.0354 -0.0186 -0.4316
   40MOL    C21 4779   8.495   3.391   8.177  0.8357  0.6210 -0.4270
   40MOL   Cl22 4780   0.094   3.268   8.161  0.3779  0.2301  0.0110
   40MOL    H23 4781   0.009   3.407   8.391  0.5561  1.8709 -1.5002
   40MOL    H24 4782   8.407   3.495   8.344  0.8446  0.3916 -0.6938
   40MOL    H25 4783   8.411   3.362   8.114 -0.1698  0.7323  0.8419
   40MOL    C26 4784   0.018   3.525   8.131  0.1878 -0.2136  0.6001
   40MOL    C27 4785   0.029   3.550   7.978  0.2266 -0.4819 -0.5222
   40MOL   Cl28 4786   0.128   3.691   7.934 -0.1546 -0.0743  0.1986
   40MOL    H29 4787   0.120   3.532   8.168  0.8591 -3.2955 -0.5072
   40MOL    H30 4788   8.489   3.614   8.161  1.4195  0.6538  0.2699
   40MOL    H31 4789   0.069   3.460   7.932 -0.4272 -1.2871  0.4450
   40MOL    C32 4790   8.413   3.560   7.910 -0.4753 -0.7244  0.1858
   40MOL    C33 4791   8.410   3.585   7.756 -0.1231 -0.3736  0.2274
   40MOL   Cl34 4792   8.297   3.722   7.722  0.0442  0.2574 -0.2804
   40MOL    H35 4793   8.367   3.643   7.965  0.5558  0.9815 -1.4555
   40MOL    H36 4794   8.346   3.477   7.932 -1.6195 -0.0383 -0.6271
   40MOL    H37 4795   8.508   3.610   7.717  0.3849 -1.3475  0.8714
   40MOL    C38 4796   8.368   3.451   7.679  0.6962  0.3229 -0.1967
   40MOL    C39 4797   8.462   3.328   7.689  0.4285 -0.3479 -0.1604
   40MOL   Cl40 4798   0.076   3.364   7.579 -0.5426  0.0339  0.1451
   40MOL    H41 4799   8.352   3.474   7.574 -2.3213 -0.1185  0.1162
   40MOL    H42 4800   8.273   3.424   7.724  0.7661 -2.4103 -1.5954
   40MOL    H43 4801   8.488   3.312   7.794 -0.7503  1.3668  0.4138
   40MOL    C44 4802   8.395   3.209   7.626 -0.3762  0.1140 -0.1524
   40MOL    C45 4803   8.292   3.145   7.718  0.0795  0.2366 -1.6793
   40MOL   Cl46 4804   8.369   3.079   7.859 -0.0238  0.2285  0.2228
   40MOL    H47 4805   8.472   3.137   7.597 -2.4815 -2.2181 -0.2090
   40MOL    H48 4806   8.345   3.238   7.534 -0.5891 -0.3643 -0.1892
   40MOL    H49 4807   8.222   3.225   7.742  0.7316  0.1381  0.7251
   40MOL    C50 4808   8.222   3.029   7.648  0.2881  0.3013  0.6467
   40MOL    C51 4809   8.088   2.981   7.711 -0.0615 -0.6496 -0.4176
   40MOL   Cl52 4810   7.957   3.111   7.689 -0.1443  0.3516  0.1895
   40MOL    H53 4811   8.301   2.954   7.633 -1.0154 -1.5191  2.5671
   40MOL    H54 4812   8.195   3.061   7.547 -0.6615  0.2982  0.8943
   40MOL    H55 4813   8.045   2.900   7.652 -0.5087 -0.2445 -0.6512
   40MOL    C56 4814   8.089   2.934   7.852  0.0139 -0.2834 -1.0523
   40MOL    C57 4815   8.161   2.799   7.877 -0.5827  0.0530  0.0086
   40MOL   Cl58 4816   8.089   2.682   7.769 -0.1852 -0.4429 -0.1054
   40MOL    H59 4817   7.985   2.910   7.874  0.2794  0.3779  0.9681
   40MOL    H60 4818   8.117   3.017   7.916 -0.5181 -0.8171 -0.1186
   40MOL    H61 4819   8.267   2.805   7.849 -1.8206 -1.1049 -5.4758
   40MOL    C62 4820   8.162   2.752   8.028 -0.6269  0.9122  0.6748
   40MOL    C63 4821   8.227   2.617   8.053  0.4699 -0.0549 -0.1321
   40MOL   Cl64 4822   8.164   2.563   8.216 -0.5811 -0.3449  0.2896
   40MOL    H65 4823   8.061   2.763   8.067 -0.8082  1.2550  0.0998
   40MOL    H66 4824   8.220   2.826   8.084  1.1579 -0.7896  1.1552
   40MOL    H67 4825   8.181   2.550   7.980 -1.2045  1.2268 -0.2699
   40MOL    C68 4826   8.377   2.617   8.042  0.1550 -0.4407 -0.3250
   40MOL    C69 4827   8.444   2.475   8.070  0.3196  0.0234  1.1739
   40MOL   Cl70 4828   0.088   2.514   8.034 -0.3031  0.1826  0.1024
   40MOL    H71 4829   8.419   2.689   8.113 -0.3635 -0.0924 -0.3736
   40MOL    H72 4830   8.421   2.658   7.951  0.7095 -0.0893  0.0939
   40MOL    H73 4831   8.429   2.440   8.172  0.0651  0.0935  1.1591
   40MOL    C74 4832   8.394   2.360   7.976 -0.2600  0.0234 -0.3611
   40MOL    C75 4833   8.450   2.214   8.002  0.0457 -0.0112  0.1907
   40MOL   Cl76 4834   8.410   2.161   8.167 -0.0405 -0.1209 -0.1339
   40MOL    H77 4835   8.406   2.389   7.871  1.2049 -0.0949 -0.2289
   40MOL    H78 4836   8.287   2.339   7.986 -0.2755  0.3871  0.2657
   40MOL    H79 4837   8.403   2.136   7.942  0.1950  0.1274 -0.1078
   40MOL    C80 4838   0.076   2.188   7.972 -0.2919 -0.3544 -0.2725
   40MOL    C81 4839   0.135   2.238   7.833 -0.1944  0.3757  0.0616
   40MOL   Cl82 4840   0.040   2.151   7.705 -0.3718  0.3838 -0.3016
   40MOL    H83 4841   0.091   2.081   7.982 -0.9863 -0.4925 -0.6813
   40MOL    H84 4842   0.137   2.237   8.048 -0.6605  0.9876 -0.8216
   40MOL    H85 4843   0.113   2.341   7.804  0.9659  0.8674  0.8954
   40MOL    C86 4844   0.287   2.201   7.820 -0.3277 -0.6641  0.3119
   40MOL    C87 4845   0.386   2.311   7.861  0.5562  0.2081  0.0890
   40MOL   Cl88 4846   0.392   2.340   8.038 -0.1269 -0.4130  0.0983
   40MOL    H89 4847   0.301   2.155   7.722 -1.5454 -0.0110 -0.1738
   40MOL    H90 4848   0.307   2.120   7.891 -1.9960  1.0944  2.8938
   40MOL    H91 4849   0.486   2.274   7.838 -0.4210 -2.2476 -0.3967
   40MOL    C92 4850   0.358   2.450   7.788  0.3749 -0.1367 -0.2024
   40MOL    C93 4851   0.361   2.442   7.638  0.4115 -0.5528 -0.3769
   40MOL   Cl94 4852   0.530   2.400   7.592 -0.0914 -0.0382 -0.1455
   40MOL    H95 4853   0.437   2.522   7.811 -0.4770  0.1508  1.9609
   40MOL    H96 4854   0.260   2.491   7.815 -0.2817 -0.4398 -2.0433
   40MOL    H97 4855   0.306   2.352   7.611  2.7789 -1.9630 -0.6414
   40MOL    C98 4856   0.308   2.561   7.558  0.0816  0.0703 -0.3824
   40MOL    C99 4857   0.234   2.509   7.437 -0.2479  0.7356  0.2307
   40MOL  Cl100 4858   0.211   2.638   7.323  0.4414  0.2416  0.2831
   40MOL   H101 4859   0.394   2.622   7.532  2.2925 -2.3137  1.1768
   40MOL   H102 4860   0.252   2.635   7.617 -0.1748 -0.0144 -0.5169
   40MOL   H103 4861   0.307   2.444   7.388 -1.8427 -0.6705 -0.3504
   40MOL   C104 4862   0.112   2.428   7.448  0.3098  0.0658 -0.4375
   40MOL   C105 4863   8.509   2.498   7.492  1.1290  0.5571 -0.5746
   40MOL  Cl106 4864   0.001   2.554   7.661  0.1172 -0.2654 -0.1946
   40MOL   H107 4865   0.136   2.335   7.500  0.7385 -0.7805 -2.1081
   40MOL   H108 4866   0.090   2.387   7.350  1.3584  0.2949 -0.7734
   40MOL   H109 4867   8.501   2.584   7.425 -1.9114 -0.2324 -1.2697
   40MOL   C110 4868   8.375   2.406   7.488 -0.4237 -0.0704 -0.6416
   40MOL   C111 4869   8.237   2.460   7.489  0.1603 -0.1723 -0.1835
   40MOL  Cl112 4870   8.121   2.321   7.474 -0.1298  0.1712  0.6288
   40MOL   H113 4871   8.375   2.315   7.548  1.3224  0.1652 -0.2683
   40MOL   H114 4872   8.382   2.361   7.388  0.9957 -0.1041 -0.5396
   40MOL   H115 4873   8.216   2.517   7.579 -1.7509 -1.2541  0.1053
   40MOL   C116 4874   8.204   2.551   7.373 -0.1465  0.0070  0.3213
   40MOL   C117 4875   8.065   2.624   7.371  0.3333  0.7435 -0.0437
   40MOL  Cl118 4876   8.048   2.714   7.224 -0.2314 -0.1428 -0.3086
   40MOL   H119 4877   8.223   2.488   7.287  0.2950 -0.7107  0.9403
   40MOL   H120 4878   8.278   2.630   7.383  0.2671 -0.5351  1.7135
   40MOL   H121 4879   7.986   2.549   7.382  1.0406  0.1703  1.1731
   40MOL   H122 4880   8.056   2.683   7.461  0.3283  0.1649  0.3351
   41MOL     C1 4881   6.832   8.198   4.668 -0.5719  0.4481  0.3523
   41MOL     C2 4882   6.920   8.090   4.601  0.4422  0.0998  0.3384
   41MOL    Cl3 4883   6.875   7.935   4.677  0.5884 -0.4384 -0.1981
   41MOL     H4 4884   6.726   8.172   4.670  0.0168 -1.9903  0.7900
   41MOL     H5 4885   6.857   8.231   4.769 -2.1398  0.6236  0.7042
   41MOL     H6 4886   6.898   8.074   4.495 -1.2083  1.4946  0.4401
   41MOL     H7 4887   6.849   8.282   4.600  0.8239  0.1979  0.3928
   41MOL     C8 4888   7.075   8.108   4.619  0.0360 -0.1142 -0.5855
   41MOL     C9 4889   7.138   8.238   4.565 -0.1767 -0.0641  0.1051
   41MOL   Cl10 4890   7.119   8.225   4.387 -0.1506  0.1309  0.3527
   41MOL    H11 4891   7.115   8.015   4.578  0.3101 -1.2354  2.1717
   41MOL    H12 4892   7.089   8.094   4.726 -1.2254  0.8120 -0.2984
   41MOL    H13 4893   7.074   8.319   4.601 -0.0547  0.5159 -0.9773
   41MOL    C14 4894   7.283   8.268   4.600 -0.5986 -0.2454 -0.0892
   41MOL    C15 4895   7.336   8.396   4.555 -0.1756  0.3019 -0.3318
   41MOL   Cl16 4896   7.511   8.399   4.561  0.0807 -0.0510  0.3866
   41MOL    H17 4897   7.341   8.182   4.568  1.6503  1.3009 -0.2662
   41MOL    H18 4898   7.278   8.271   4.709  1.3001  1.5138 -0.0222
   41MOL    H19 4899   7.305   8.397   4.450 -0.1728  2.1801 -0.3363
   41MOL    C20 4900   7.278   8.522   4.623 -0.3979 -0.1344  0.4674
   41MOL    C21 4901   7.316   0.140   4.571 -0.6453  0.6908 -0.2830
   41MOL   Cl22 4902   7.258   0.161   4.405 -0.1356  0.2567 -0.2835
   41MOL    H23 4903   7.289   8.517   4.732  0.4691 -1.0457  0.3515
   41MOL    H24 4904   7.170   8.509   4.618 -0.5925  1.0123  1.4425
   41MOL    H25 4905   7.252   0.209   4.626 -0.8406  0.0870  0.2567
   41MOL    C26 4906   7.458   0.193   4.591 -0.4587  0.3429 -0.0414
   41MOL    C27 4907   7.498   0.177   4.733  0.1087 -0.6501 -0.3237
   41MOL   Cl28 4908   7.373   0.250   4.843 -0.3127  0.1702 -0.2310
   41MOL    H29 4909   7.465   0.298   4.563 -4.8002  0.7482  0.0004
   41MOL    H30 4910   7.535   0.142   4.534 -1.0063  1.6367 -1.9826
   41MOL    H31 4911   7.493   0.069   4.749 -1.6881 -0.5314  0.0332
   41MOL    C32 4912   7.643   0.221   4.763 -0.5656 -0.1070 -0.2967
   41MOL    C33 4913   7.698   0.204   4.911  0.4558 -0.0083  0.8084
   41MOL   Cl34 4914   7.870   0.259   4.913  0.2273 -0.0584  0.1788
   41MOL    H35 4915   7.656   0.326   4.735 -1.1230  0.3362  1.0564
   41MOL    H36 4916   7.711   0.157   4.707 -1.7350  0.4296 -2.3912
   41MOL    H37 4917   7.642   0.278   4.967 -0.9523  0.9894 -1.8222
   41MOL    C38 4918   7.679   0.059   4.964  0.7007  0.4107 -1.1738
   41MOL    C39 4919   7.718   0.030   5.112  0.8118  0.2828  0.5623
   41MOL   Cl40 4920   7.763   8.378   5.126  0.2509 -0.1058 -0.1561
   41MOL    H41 4921   7.747   8.518   4.911  2.8061 -0.2888  2.2986
   41MOL    H42 4922   7.577   0.026   4.944  0.2515  0.7498  0.4627
   41MOL    H43 4923   7.809   0.080   5.145 -0.0010  1.9393  0.3424
   41MOL    C44 4924   7.611   0.069   5.213 -0.1914  0.2517  0.1719
   41MOL    C45 4925   7.573   0.216   5.220 -0.5779 -0.2296 -0.1764
   41MOL   Cl46 4926   7.726   0.314   5.214 -0.3324 -0.0559 -0.1547
   41MOL    H47 4927   7.659   0.051   5.309  0.5864 -0.3754 -0.3256
   41MOL    H48 4928   7.527   0.003   5.188  0.0745  0.0514 -0.2031
   41MOL    H49 4929   7.517   0.253   5.134 -0.9837 -1.6270 -0.5319
   41MOL    C50 4930   7.493   0.252   5.345  0.3088 -0.1229 -0.2823
   41MOL    C51 4931   7.366   0.164   5.372 -0.6630  0.2516 -0.3527
   41MOL   Cl52 4932   7.260   0.163   5.241 -0.2773 -0.1202 -0.3155
   41MOL    H53 4933   7.469   0.358   5.342  1.5567  0.1148 -2.4740
   41MOL    H54 4934   7.568   0.244   5.424  0.6700  1.7993 -0.4015
   41MOL    H55 4935   7.391   0.059   5.388  0.0377  0.6623  1.3926
   41MOL    C56 4936   7.286   0.204   5.497  0.2076  0.5701 -0.2065
   41MOL    C57 4937   7.359   0.166   5.627  0.0075  0.1171  0.2888
   41MOL   Cl58 4938   7.381   8.516   5.650  0.0714 -0.0358  0.0316
   41MOL    H59 4939   7.185   0.164   5.491  0.6591 -0.8690  1.2486
   41MOL    H60 4940   7.284   0.312   5.504 -0.1528  0.4565  1.8214
   41MOL    H61 4941   7.460   0.205   5.622  0.3465 -0.4103  2.6739
   41MOL    C62 4942   7.289   0.214   5.761 -0.0688  0.0741 -0.1733
   41MOL    C63 4943   7.247   0.362   5.765 -0.2840 -0.3746  0.0791
   41MOL   Cl64 4944   7.386   0.457   5.700  0.0629 -0.3099 -0.1451
   41MOL    H65 4945   7.367   0.193   5.834  0.3414  0.8370 -0.3847
   41MOL    H66 4946   7.199   0.154   5.771 -0.7137  0.9938 -0.4718
   41MOL    H67 4947   7.163   0.389   5.702  0.7504  1.0835 -0.7209
   41MOL    C68 4948   7.223   0.414   5.911  0.3517 -0.4204 -0.3946
   41MOL    C69 4949   7.101   0.344   5.982 -0.1616  0.2178 -0.9511
   41MOL   Cl70 4950   6.952   0.426   5.917  0.0958  0.6380  0.3194
   41MOL    H71 4951   7.216   0.522   5.900 -3.5815 -0.5661  0.0031
   41MOL    H72 4952   7.310   0.394   5.974  0.5979 -0.9378 -0.8946
   41MOL    H73 4953   7.107   0.236   5.964 -1.5602  0.1317 -0.9798
   41MOL    C74 4954   7.097   0.362   6.135 -0.1130  0.1957 -0.7262
   41MOL    C75 4955   7.216   0.298   6.209 -0.2998 -0.6520  0.1589
   41MOL   Cl76 4956   7.247   0.127   6.153  0.2423 -0.0571  0.3761
   41MOL    H77 4957   7.010   0.318   6.184 -0.1672  0.0869 -0.9207
   41MOL    H78 4958   7.106   0.469   6.152  1.9108  0.0785 -0.9053
   41MOL    H79 4959   7.307   0.354   6.189  0.0765 -1.2686  0.1220
   41MOL    C80 4960   7.206   0.306   6.361  0.1367  0.0057  0.1537
   41MOL    C81 4961   7.334   0.293   6.445  0.3503 -0.3544 -0.3188
   41MOL   Cl82 4962   7.288   0.284   6.618 -0.0467  0.3162  0.3240
   41MOL    H83 4963   7.128   0.237   6.395 -0.9756  0.6910 -0.9723
   41MOL    H84 4964   7.166   0.404   6.386 -0.3276 -0.0599 -0.3296
   41MOL    H85 4965   7.376   0.194   6.428  1.5426  0.3839 -1.7696
   41MOL    C86 4966   7.439   0.400   6.426  0.5415 -0.0516  0.2376
   41MOL    C87 4967   7.378   0.545   6.441  0.3802  0.3972  0.5735
   41MOL   Cl88 4968   7.353   0.618   6.277  0.2525 -0.4082 -0.2585
   41MOL    H89 4969   7.494   0.382   6.333 -1.6547 -3.5219 -0.4781
   41MOL    H90 4970   7.514   0.374   6.501  2.9202 -0.2726 -2.1353
   41MOL    H91 4971   7.275   0.546   6.478  0.4309 -3.3402  1.0353
   41MOL    C92 4972   7.450   0.640   6.536  0.7689  0.1635 -0.6954
   41MOL    C93 4973   7.355   0.749   6.605 -0.2823 -0.0735 -0.2117
   41MOL   Cl94 4974   7.305   0.868   6.484  0.0985 -0.1750 -0.3064
   41MOL    H95 4975   7.542   0.683   6.496 -0.3077  2.1787 -1.0705
   41MOL    H96 4976   7.482   0.581   6.622  0.4580 -0.1138 -0.7686
   41MOL    H97 4977   7.270   0.689   6.637  0.4862 -0.8938  0.3142
   41MOL    C98 4978   7.423   0.836   6.717  0.4670  0.2441 -0.2790
   41MOL    C99 4979   7.470   0.760   6.836  0.2212 -0.3315 -0.1996
   41MOL  Cl100 4980   7.343   0.649   6.910  0.0936  0.2819  0.0369
   41MOL   H101 4981   7.346   0.901   6.758  0.6338  0.2088  0.0955
   41MOL   H102 4982   7.510   0.886   6.674  0.6298 -0.5499 -0.8977
   41MOL   H103 4983   7.561   0.701   6.825  0.5079  0.1871 -0.6482
   41MOL   C104 4984   7.507   0.869   6.940  0.4803  0.4735  0.0138
   41MOL   C105 4985   7.590   0.826   7.062  0.6659  0.1908 -0.0911
   41MOL  Cl106 4986   7.581   0.953   7.186 -0.1956 -0.3589 -0.2750
   41MOL   H107 4987   7.411   0.910   6.969  0.1882 -2.6139  3.9533
   41MOL   H108 4988   7.552   0.956   6.892  1.2145  0.6811  1.0529
   41MOL   H109 4989   7.553   0.736   7.112  0.7192  0.6112  0.7075
   41MOL   C110 4990   7.734   0.811   7.024 -0.0059 -0.1736  0.4908
   41MOL   C111 4991   7.830   0.724   7.112  0.2235  0.6627 -0.7204
   41MOL  Cl112 4992   7.852   0.791   7.271  0.3839  0.0010  0.3267
   41MOL   H113 4993   7.784   0.908   7.015  0.0176  0.0295  2.5001
   41MOL   H114 4994   7.745   0.768   6.925  0.5188 -1.2301  0.9979
   41MOL   H115 4995   7.791   0.623   7.121 -2.5478  1.7955  0.3434
   41MOL   C116 4996   7.970   0.711   7.038 -0.2708  0.1459  0.5159
   41MOL   C117 4997   8.079   0.627   7.124  0.2716 -0.1619 -0.4626
   41MOL  Cl118 4998   8.042   0.450   7.125 -0.1536  0.1208  0.0278
   41MOL   H119 4999   8.014   0.808   7.016  1.5809 -0.5655  1.0470
   41MOL   H120 5000   7.964   0.660   6.942  0.2167 -1.4690  1.3134
   41MOL   H121 5001   8.180   0.646   7.087 -1.0909  1.6869 -3.4565
   41MOL   H122 5002   8.068   0.656   7.228 -0.6785 -0.6947 -0.4108
   42MOL     C1 5003   0.571   4.952   3.264 -0.6844  0.3698 -0.4439
   42MOL     C2 5004   0.533   4.921   3.121  0.7347 -0.3946 -0.4844
   42MOL    Cl3 5005   0.585   4.752   3.082 -0.2345 -0.3540  0.2776
   42MOL     H4 5006   0.542   4.875   3.335  0.6613 -0.8427 -1.1850
   42MOL     H5 5007   0.679   4.965   3.272 -0.3651 -1.6703 -1.2252
   42MOL     H6 5008   0.426   4.915   3.098  0.9996 -0.2325 -1.7789
   42MOL     H7 5009   0.510   5.036   3.299  0.0298  1.2431 -1.2683
   42MOL     C8 5010   0.598   5.018   3.016 -0.2214  0.1752  0.8694
   42MOL     C9 5011   0.568   5.164   3.016 -0.7200 -0.1262  0.2473
   42MOL   Cl10 5012   0.394   5.199   2.980 -0.0913 -0.2667 -0.1116
   42MOL    H11 5013   0.568   4.981   2.917 -0.4393 -0.6276  1.2248
   42MOL    H12 5014   0.706   5.007   3.023 -0.1116 -0.2040 -1.0797
   42MOL    H13 5015   0.585   5.206   3.115 -1.3048 -1.8041  1.0736
   42MOL    C14 5016   0.644   5.257   2.917  0.0498 -0.0540 -0.6042
   42MOL    C15 5017   0.705   5.390   2.972  0.7262  0.0061 -0.3837
   42MOL   Cl16 5018   0.820   5.341   3.099  0.2020 -0.2202  0.4962
   42MOL    H17 5019   0.587   5.290   2.831 -1.5307  0.6108  0.6813
   42MOL    H18 5020   0.733   5.201   2.885 -0.4475 -0.1264 -1.8785
   42MOL    H19 5021   0.756   5.446   2.893 -0.1220  2.3285  0.6737
   42MOL    C20 5022   0.601   5.484   3.030  0.2891  0.4206 -0.0371
   42MOL    C21 5023   0.652   5.614   3.076  0.0532 -0.5883  0.1835
   42MOL   Cl22 5024   0.508   5.687   3.151 -0.2163  0.3214  0.3468
   42MOL    H23 5025   0.546   5.434   3.111 -0.3556  1.3276  0.0934
   42MOL    H24 5026   0.520   5.504   2.960 -1.8209 -4.0754  0.9088
   42MOL    H25 5027   0.731   5.601   3.151 -1.1445  0.9949  1.7644
   42MOL    C26 5028   0.697   5.710   2.961  0.0975 -0.0515  0.1244
   42MOL    C27 5029   0.784   5.823   3.010 -0.1022 -0.3042  0.7873
   42MOL   Cl28 5030   0.795   5.942   2.878 -0.8784  0.3938 -0.2196
   42MOL    H29 5031   0.611   5.755   2.911 -1.2585 -3.2442 -0.5657
   42MOL    H30 5032   0.758   5.658   2.887 -0.4252 -0.4552 -0.0286
   42MOL    H31 5033   0.742   5.875   3.096  0.8252 -1.2473  1.8435
   42MOL    C32 5034   0.930   5.780   3.048 -0.0108 -0.5522  0.0851
   42MOL    C33 5035   1.023   5.885   3.113 -0.0716  0.3974 -0.1405
   42MOL   Cl34 5036   1.185   5.838   3.076  0.1095 -0.2458 -0.0732
   42MOL    H35 5037   0.978   5.747   2.956  1.1484 -1.7420  1.0995
   42MOL    H36 5038   0.936   5.692   3.111  0.7405 -1.6252 -1.4539
   42MOL    H37 5039   1.003   5.988   3.086  1.0019  1.0223  1.4116
   42MOL    C38 5040   1.005   5.874   3.267  0.4844 -0.3100  0.2793
   42MOL    C39 5041   1.028   6.003   3.357 -0.0535  0.6081  0.4786
   42MOL   Cl40 5042   0.954   6.138   3.284  0.0052  0.2543  0.0937
   42MOL    H41 5043   1.063   5.786   3.295 -0.4348 -1.1734 -0.4930
   42MOL    H42 5044   0.898   5.855   3.267  0.1297  1.6193  1.4610
   42MOL    H43 5045   0.978   5.978   3.451 -1.2913  0.2173 -0.2750
   42MOL    C44 5046   1.178   6.022   3.378  0.3707 -0.6208 -0.7240
   42MOL    C45 5047   1.243   5.916   3.471  0.0741 -0.5585  0.1547
   42MOL   Cl46 5048   1.156   5.902   3.625 -0.0435  0.1531 -0.3519
   42MOL    H47 5049   1.199   6.119   3.425 -2.1801 -1.4152  2.2366
   42MOL    H48 5050   1.227   6.016   3.281 -0.6519 -1.2189 -1.2096
   42MOL    H49 5051   1.233   5.814   3.433  0.9040 -0.8547  0.7115
   42MOL    C50 5052   1.395   5.942   3.504  0.0556  0.1910 -0.0823
   42MOL    C51 5053   1.493   5.947   3.384 -0.7993 -0.1327 -0.2813
   42MOL   Cl52 5054   1.488   5.799   3.285  0.4565 -0.2270 -0.4368
   42MOL    H53 5055   1.426   5.882   3.590  1.5102  1.7455  0.4878
   42MOL    H54 5056   1.390   6.041   3.549 -2.0051 -0.5081  1.3568
   42MOL    H55 5057   1.457   6.030   3.323 -0.3585  0.1200 -0.1989
   42MOL    C56 5058   1.632   5.981   3.436 -0.3336 -0.2777 -0.3253
   42MOL    C57 5059   1.754   5.992   3.335 -0.2914 -0.5921 -0.1435
   42MOL   Cl58 5060   1.905   6.022   3.416 -0.0072 -0.5001 -0.0170
   42MOL    H59 5061   1.652   5.899   3.505 -2.4023 -1.2025 -0.7833
   42MOL    H60 5062   1.631   6.077   3.488 -0.6963  0.0103 -0.8601
   42MOL    H61 5063   1.754   5.886   3.307  1.0792 -0.4802 -0.6233
   42MOL    C62 5064   1.731   6.092   3.213 -0.0488  1.0344 -0.0482
   42MOL    C63 5065   1.785   6.035   3.082 -0.2020 -0.0346 -0.4011
   42MOL   Cl64 5066   1.965   6.047   3.085 -0.0512 -0.0329 -0.0814
   42MOL    H65 5067   1.785   6.182   3.241 -1.0503  1.5990  0.1058
   42MOL    H66 5068   1.626   6.122   3.202 -0.9717 -0.9022  2.9433
   42MOL    H67 5069   1.760   5.930   3.070 -2.2248  0.1518  1.7948
   42MOL    C68 5070   1.729   6.090   2.954  0.1683  0.2608  0.4175
   42MOL    C69 5071   1.577   6.063   2.922 -0.1558 -0.6058 -0.3012
   42MOL   Cl70 5072   1.559   5.892   2.872 -0.5183  0.0795  0.0128
   42MOL    H71 5073   1.797   6.056   2.877  1.8355 -0.4923  2.1735
   42MOL    H72 5074   1.741   6.198   2.966 -1.8264  0.5460  0.0600
   42MOL    H73 5075   1.521   6.067   3.015  1.9837 -0.0863  1.0060
   42MOL    C74 5076   1.515   6.158   2.818  0.4250  0.4341  0.6187
   42MOL    C75 5077   1.360   6.154   2.792  0.3413  0.0328 -0.2994
   42MOL   Cl76 5078   1.274   6.191   2.946 -0.0229 -0.1532 -0.1703
   42MOL    H77 5079   1.571   6.149   2.725  0.7962  0.8870  0.7959
   42MOL    H78 5080   1.532   6.262   2.849 -1.5715  0.6153  1.2121
   42MOL    H79 5081   1.335   6.242   2.732 -2.2182  1.3180  2.5254
   42MOL    C80 5082   1.296   6.024   2.741  0.0817  0.4661 -0.3713
   42MOL    C81 5083   1.149   6.027   2.716  0.4778 -0.4852 -0.0336
   42MOL   Cl82 5084   1.096   5.859   2.700  0.0965  0.3450  0.0483
   42MOL    H83 5085   1.297   5.952   2.822 -0.5894 -0.1471 -0.9026
   42MOL    H84 5086   1.346   5.973   2.659 -0.7302 -2.1229  0.7054
   42MOL    H85 5087   1.089   6.059   2.801  0.7683  2.8653 -0.9944
   42MOL    C86 5088   1.109   6.097   2.578  0.0288 -0.3049 -0.4254
   42MOL    C87 5089   1.186   6.048   2.455  0.1277 -0.0791 -0.6329
   42MOL   Cl88 5090   1.318   6.158   2.432 -0.0508  0.0329 -0.1308
   42MOL    H89 5091   1.124   6.202   2.603  0.9232 -0.9734  2.0636
   42MOL    H90 5092   1.001   6.090   2.562  0.1753  1.2372 -2.2939
   42MOL    H91 5093   1.218   5.947   2.484 -0.2772  0.5874  2.2677
   42MOL    C92 5094   1.102   6.045   2.326  0.1773 -0.4204 -0.2442
   42MOL    C93 5095   1.176   6.015   2.190  0.2269  0.1691  0.6898
   42MOL   Cl94 5096   1.088   6.109   2.057 -0.6061  0.3614 -0.3345
   42MOL    H95 5097   1.062   6.146   2.314 -1.6323 -0.9922  0.8038
   42MOL    H96 5098   1.008   5.991   2.330 -0.5414  0.8705  0.4610
   42MOL    H97 5099   1.281   6.043   2.189 -0.0300  1.1739  0.5556
   42MOL    C98 5100   1.155   5.863   2.164  0.0954 -0.1115  0.5636
   42MOL    C99 5101   1.236   5.791   2.057 -0.6908 -0.0386 -0.2783
   42MOL  Cl100 5102   1.179   5.618   2.052 -0.1446  0.3168 -0.0086
   42MOL   H101 5103   1.050   5.854   2.138  0.5113  0.2142 -1.2835
   42MOL   H102 5104   1.173   5.798   2.250  0.1450  0.4605  0.9909
   42MOL   H103 5105   1.212   5.833   1.959  0.7583 -3.9639 -2.4239
   42MOL   C104 5106   1.391   5.810   2.090  0.1895  0.0301 -0.0746
   42MOL   C105 5107   1.486   5.746   1.988  0.3146 -0.3959 -0.0261
   42MOL  Cl106 5108   1.641   5.741   2.065 -0.2037  0.4195  0.0217
   42MOL   H107 5109   1.411   5.778   2.192 -0.5777 -0.3582 -0.0404
   42MOL   H108 5110   1.420   5.915   2.092 -1.0259  0.3734  0.0553
   42MOL   H109 5111   1.457   5.646   1.958 -2.0842  0.3251 -0.1851
   42MOL   C110 5112   1.491   5.837   1.860  0.4717 -0.3158 -0.1578
   42MOL   C111 5113   1.534   5.772   1.731  0.2742  0.2840  0.5671
   42MOL  Cl112 5114   1.699   5.706   1.731  0.1632 -0.4594  0.0302
   42MOL   H113 5115   1.553   5.925   1.878  0.0187 -0.0686  0.2009
   42MOL   H114 5116   1.388   5.870   1.850  0.5272 -0.1146 -0.0608
   42MOL   H115 5117   1.467   5.687   1.719  0.0380  0.3399  1.4970
   42MOL   C116 5118   1.526   5.873   1.614 -0.1180  0.3880 -0.1172
   42MOL   C117 5119   1.580   5.831   1.481 -0.1334  0.7299 -0.4418
   42MOL  Cl118 5120   1.503   5.922   1.360 -0.1718  0.0282 -0.3042
   42MOL   H119 5121   1.573   5.966   1.646  2.2493 -0.9954  0.5397
   42MOL   H120 5122   1.420   5.897   1.608  0.3683  3.1151  1.2952
   42MOL   H121 5123   1.689   5.841   1.477 -0.1039  0.1025 -1.6521
   42MOL   H122 5124   1.563   5.724   1.466  3.0984  0.0035  0.5978
   43MOL     C1 5125   2.525   7.567   1.902 -0.0370  0.4411 -0.1041
   43MOL     C2 5126   2.607   7.526   2.020  0.3114  0.4037 -0.1284
   43MOL    Cl3 5127   2.677   7.663   2.108  0.1226 -0.2663  0.0045
   43MOL     H4 5128   2.470   7.488   1.851 -0.5470  0.2720  0.7030
   43MOL     H5 5129   2.453   7.642   1.935 -0.8442 -1.4486  2.6442
   43MOL     H6 5130   2.552   7.470   2.097  0.6995 -2.4306 -1.8547
   43MOL     H7 5131   2.600   7.604   1.832  1.9920  0.0394  1.7647
   43MOL     C8 5132   2.724   7.436   1.991  0.0742  0.3068 -0.6364
   43MOL     C9 5133   2.698   7.293   1.930 -0.3919  0.1782 -0.2002
   43MOL   Cl10 5134   2.603   7.193   2.048 -0.0388 -0.0753  0.4656
   43MOL    H11 5135   2.776   7.424   2.087  1.7575  1.5925 -1.3655
   43MOL    H12 5136   2.792   7.489   1.924  0.8562  2.1790  1.5650
   43MOL    H13 5137   2.631   7.313   1.847  0.0800  1.4137 -0.3053
   43MOL    C14 5138   2.833   7.215   1.903  0.6530  0.2466  0.0223
   43MOL    C15 5139   2.885   7.251   1.766 -0.3331  0.6678  0.0124
   43MOL   Cl16 5140   2.780   7.179   1.635 -0.0588 -0.5245  0.0035
   43MOL    H17 5141   2.818   7.108   1.919  1.7917  0.0542 -0.1925
   43MOL    H18 5142   2.902   7.244   1.982  1.4962  0.9031 -0.9537
   43MOL    H19 5143   2.877   7.359   1.755  0.0063  0.8617  1.5977
   43MOL    C20 5144   3.038   7.206   1.749  0.1901 -0.2104  0.0726
   43MOL    C21 5145   3.106   7.263   1.623  0.3925 -0.3014  0.0345
   43MOL   Cl22 5146   3.109   7.442   1.630  0.6030 -0.1155  0.5152
   43MOL    H23 5147   3.034   7.098   1.741 -3.5693 -0.0061 -1.4984
   43MOL    H24 5148   3.102   7.224   1.836  2.2827 -0.8982 -1.2925
   43MOL    H25 5149   3.209   7.227   1.624 -0.4556 -2.9085 -1.1705
   43MOL    C26 5150   3.054   7.217   1.487  0.6984 -0.0432  0.1402
   43MOL    C27 5151   3.164   7.239   1.374 -0.4328  0.0320 -0.2129
   43MOL   Cl28 5152   3.163   7.410   1.323 -0.0802 -0.1428 -0.2075
   43MOL    H29 5153   2.964   7.271   1.456 -1.1450 -1.0664  3.4820
   43MOL    H30 5154   3.025   7.112   1.486 -0.3963  0.2472 -0.6577
   43MOL    H31 5155   3.264   7.217   1.409 -0.6327 -3.2359 -1.4786
   43MOL    C32 5156   3.160   7.134   1.255 -0.2061 -0.5345 -0.1710
   43MOL    C33 5157   3.032   7.114   1.177 -1.0508  0.2040  0.4976
   43MOL   Cl34 5158   2.910   7.019   1.261 -0.0110 -0.1749 -0.4201
   43MOL    H35 5159   3.204   7.037   1.275 -0.7138 -1.2439 -2.3435
   43MOL    H36 5160   3.241   7.175   1.194 -0.7068 -0.7551 -0.9930
   43MOL    H37 5161   2.989   7.213   1.160 -1.0242 -0.3546 -3.1299
   43MOL    C38 5162   3.059   7.032   1.041  0.2412 -0.4254  0.0340
   43MOL    C39 5163   2.961   7.039   0.927  0.3397 -0.4110  0.2250
   43MOL   Cl40 5164   2.999   6.921   0.801  0.0519 -0.1181  0.0923
   43MOL    H41 5165   3.079   6.929   1.069  2.1895 -0.3990 -1.1784
   43MOL    H42 5166   3.156   7.063   1.004  1.4063 -1.4828  2.1201
   43MOL    H43 5167   2.862   7.014   0.965 -1.3778  1.6112 -2.6886
   43MOL    C44 5168   2.959   7.178   0.861  0.1801  0.2291  0.4445
   43MOL    C45 5169   3.086   7.224   0.785  0.5980  0.1603 -0.5153
   43MOL   Cl46 5170   3.204   7.292   0.904  0.2192  0.1519  0.0324
   43MOL    H47 5171   2.934   7.260   0.928 -0.4513 -1.1865  1.9662
   43MOL    H48 5172   2.878   7.165   0.790  1.7041  1.3475 -1.5506
   43MOL    H49 5173   3.141   7.153   0.724 -1.2215  0.7817 -2.9467
   43MOL    C50 5174   3.063   7.336   0.676  0.6884  0.1931 -0.9719
   43MOL    C51 5175   2.970   7.290   0.560 -0.1318 -0.3492 -0.2468
   43MOL   Cl52 5176   3.021   7.130   0.500 -0.3478  0.2981 -0.4178
   43MOL    H53 5177   3.156   7.369   0.631  2.6992 -1.0314  2.1416
   43MOL    H54 5178   3.019   7.419   0.731 -0.2098 -0.4956 -0.6311
   43MOL    H55 5179   2.868   7.269   0.591 -0.6842  0.2965 -1.5642
   43MOL    C56 5180   2.965   7.388   0.441  0.0480  0.0710 -0.3484
   43MOL    C57 5181   2.862   7.500   0.458  0.1302 -0.7222 -0.3097
   43MOL   Cl58 5182   2.699   7.431   0.444 -0.1608  0.2622 -0.0334
   43MOL    H59 5183   2.939   7.328   0.354 -1.6402 -2.3761  1.7822
   43MOL    H60 5184   3.065   7.427   0.426  0.6435 -1.3644 -0.1468
   43MOL    H61 5185   2.864   7.546   0.557 -1.0566 -0.4096 -0.4220
   43MOL    C62 5186   2.878   7.623   0.358 -0.3321  0.8209 -0.1180
   43MOL    C63 5187   2.791   7.739   0.387  0.6130 -0.5787  0.9712
   43MOL   Cl64 5188   2.798   7.830   0.233 -0.1401 -0.2710 -0.1348
   43MOL    H65 5189   2.865   7.583   0.258  0.6377 -0.8454  0.3985
   43MOL    H66 5190   2.980   7.662   0.361  1.2928 -2.9921 -2.0395
   43MOL    H67 5191   2.687   7.707   0.401  0.1303  0.2307 -0.6718
   43MOL    C68 5192   2.844   7.830   0.503 -0.2689  0.5413  0.2305
   43MOL    C69 5193   2.768   7.965   0.527 -0.4272 -0.4449 -0.6554
   43MOL   Cl70 5194   2.828   8.030   0.688  0.1943 -0.1244 -0.0903
   43MOL    H71 5195   2.949   7.856   0.490  0.1064 -0.7858  0.5367
   43MOL    H72 5196   2.844   7.776   0.598 -0.7006  0.3836  0.1447
   43MOL    H73 5197   2.795   8.037   0.450 -1.1641 -1.4399 -1.8417
   43MOL    C74 5198   2.619   7.947   0.534 -0.3341 -0.2579  0.4082
   43MOL    C75 5199   2.526   8.072   0.536  0.3300 -0.6064  0.2459
   43MOL   Cl76 5200   2.526   8.150   0.700  0.5095  0.5868  0.0155
   43MOL    H77 5201   2.585   7.870   0.603 -2.1976  1.3926  1.3853
   43MOL    H78 5202   2.593   7.909   0.436 -3.8811  0.7528  0.8590
   43MOL    H79 5203   2.550   8.148   0.462 -2.3303 -0.3286 -0.3751
   43MOL    C80 5204   2.382   8.034   0.513 -0.6534  0.1686 -0.2798
   43MOL    C81 5205   2.296   8.165   0.495  0.2221 -0.2339 -0.2188
   43MOL   Cl82 5206   2.131   8.115   0.527 -0.3392  0.1104  0.4798
   43MOL    H83 5207   2.352   7.974   0.600  2.5756 -0.0063  0.8000
   43MOL    H84 5208   2.371   7.972   0.424  1.1828 -1.1806  0.3877
   43MOL    H85 5209   2.317   8.232   0.579 -0.5454 -1.5433  1.0390
   43MOL    C86 5210   2.305   8.243   0.366  0.1142 -0.1656  0.3023
   43MOL    C87 5211   2.283   8.158   0.238  0.0860  0.5460 -0.3165
   43MOL   Cl88 5212   2.440   8.076   0.218 -0.3789 -0.0054  0.2643
   43MOL    H89 5213   2.397   8.302   0.367 -0.8025  1.3060 -0.2390
   43MOL    H90 5214   2.224   8.315   0.374 -0.1224 -0.0059 -2.8111
   43MOL    H91 5215   2.205   8.086   0.264 -0.0201  0.5697 -0.5601
   43MOL    C92 5216   2.244   8.249   0.122 -0.3910 -0.3846 -0.9018
   43MOL    C93 5217   2.237   8.185   8.510 -0.1238 -0.0868 -0.2492
   43MOL   Cl94 5218   2.243   8.314   8.388 -0.2075  0.2594  0.1529
   43MOL    H95 5219   2.335   8.308   0.135 -0.3801 -0.7694  0.8908
   43MOL    H96 5220   2.154   8.307   0.140 -0.5154 -0.0229 -2.6456
   43MOL    H97 5221   2.331   8.136   8.482  0.9241  2.5987 -1.6480
   43MOL    C98 5222   2.125   8.089   8.484  0.3779 -0.0766 -0.4198
   43MOL    C99 5223   2.142   8.005   8.361  0.1321 -0.3044 -0.2871
   43MOL  Cl100 5224   1.989   8.004   8.276 -0.0742 -0.0894  0.3133
   43MOL   H101 5225   2.032   8.147   8.484  0.4250  0.0400  1.6102
   43MOL   H102 5226   2.115   8.016   0.040  1.0804 -0.0542 -0.3104
   43MOL   H103 5227   2.210   8.058   8.294  0.4086 -0.0398  0.2038
   43MOL   C104 5228   2.192   7.859   8.379 -0.0129 -0.5197 -0.3722
   43MOL   C105 5229   2.349   7.844   8.410  0.0656 -0.0551  0.0379
   43MOL  Cl106 5230   2.439   7.879   8.259 -0.4432 -0.5544  0.4035
   43MOL   H107 5231   2.194   7.809   8.282  0.4992 -1.7161  0.2441
   43MOL   H108 5232   2.133   7.798   8.446  1.7042 -1.5520  0.2289
   43MOL   H109 5233   2.390   7.919   8.477 -1.1283  0.1166  0.5943
   43MOL   C110 5234   2.383   7.700   8.470  0.3287  0.3113  0.0731
   43MOL   C111 5235   2.510   7.697   0.034 -0.4873  0.2780 -0.0529
   43MOL  Cl112 5236   2.644   7.695   8.450 -0.1663 -0.0595  0.2089
   43MOL   H113 5237   2.383   7.626   8.391 -1.7168 -0.6192  0.9160
   43MOL   H114 5238   2.306   7.688   0.021 -0.0856 -0.9220 -0.5309
   43MOL   H115 5239   2.525   7.785   0.098  0.7986 -0.0625  0.1218
   43MOL   C116 5240   2.532   7.576   0.124  0.6411  0.2387 -0.1583
   43MOL   C117 5241   2.429   7.546   0.234 -0.8143 -0.0043  0.0673
   43MOL  Cl118 5242   2.415   7.690   0.335 -0.4111  0.3547  0.1452
   43MOL   H119 5243   2.628   7.569   0.175 -0.3818  0.6998  1.8873
   43MOL   H120 5244   2.520   7.501   0.046 -0.5212  0.0933  0.1462
   43MOL   H121 5245   2.324   7.537   0.205 -1.5249  0.3829  2.4087
   43MOL   H122 5246   2.442   7.462   0.302 -1.9834  0.6579  1.1577
   44MOL     C1 5247   2.792   8.464   5.635 -0.0709  0.0818  0.1447
   44MOL     C2 5248   2.935   8.437   5.633  0.2487 -0.1994  0.0460
   44MOL    Cl3 5249   2.964   8.276   5.572 -0.0376  0.3602  0.0095
   44MOL     H4 5250   2.770   0.040   5.669  0.0305 -0.5301  2.0656
   44MOL     H5 5251   2.736   8.448   5.543  1.9609  1.5200 -1.3941
   44MOL     H6 5252   2.987   8.511   5.573 -0.4384 -1.4671 -2.1693
   44MOL     H7 5253   2.757   8.389   5.706  2.3206 -0.4114  0.8377
   44MOL     C8 5254   3.005   8.444   5.772 -0.3737 -0.0813  0.2305
   44MOL     C9 5255   3.003   0.069   5.828 -0.2977 -0.0355  0.0686
   44MOL   Cl10 5256   3.091   0.168   5.713  0.3076 -0.2385  0.2970
   44MOL    H11 5257   3.103   8.399   5.759  0.1974  0.7386  1.6177
   44MOL    H12 5258   2.957   8.380   5.846  0.7862  0.2322  1.2647
   44MOL    H13 5259   2.904   0.115   5.825 -0.0239  0.7024  1.9444
   44MOL    C14 5260   3.064   0.094   5.968 -0.6170 -0.2295  0.3645
   44MOL    C15 5261   3.055   0.236   6.031  0.7457  0.7132  0.4428
   44MOL   Cl16 5262   3.136   0.219   6.197  0.3658 -0.0801 -0.0553
   44MOL    H17 5263   3.169   0.067   5.955 -0.4876 -0.3974  1.7043
   44MOL    H18 5264   3.026   0.017   6.035  0.0719 -0.1994  0.8025
   44MOL    H19 5265   3.114   0.305   5.971 -1.7723  2.3585 -0.1990
   44MOL    C20 5266   2.907   0.280   6.053  0.1763  0.8593 -0.1209
   44MOL    C21 5267   2.888   0.416   6.122 -0.3948 -0.2033 -0.4237
   44MOL   Cl22 5268   2.714   0.449   6.118  0.2301  0.1081 -0.4350
   44MOL    H23 5269   2.852   0.209   6.114 -0.0639 -0.0555 -1.3761
   44MOL    H24 5270   2.866   0.284   5.952  1.7402  0.5125 -0.7895
   44MOL    H25 5271   2.919   0.418   6.226 -0.2867 -1.4407 -0.4212
   44MOL    C26 5272   2.955   0.535   6.039 -0.1777 -0.9680  0.3733
   44MOL    C27 5273   3.099   0.581   6.084  0.4446 -0.0788 -1.0343
   44MOL   Cl28 5274   3.087   0.674   6.231 -0.0651 -0.0032 -0.2127
   44MOL    H29 5275   2.889   0.619   6.062  0.2386 -1.2155  2.5956
   44MOL    H30 5276   2.956   0.508   5.934  2.2808 -2.4639  0.7383
   44MOL    H31 5277   3.169   0.502   6.108  0.8087  0.7805  0.8737
   44MOL    C32 5278   3.164   0.672   5.980 -0.4911  0.1656  0.7186
   44MOL    C33 5279   3.195   0.616   5.835  0.6278 -0.4394  0.5086
   44MOL   Cl34 5280   3.274   0.462   5.861  0.1043  0.1275  0.2430
   44MOL    H35 5281   3.258   0.706   6.023 -0.3618  0.3030  0.3397
   44MOL    H36 5282   3.105   0.763   5.969 -0.1832  0.2418 -0.4528
   44MOL    H37 5283   3.099   0.603   5.783 -0.0013  2.8067  0.7781
   44MOL    C38 5284   3.289   0.714   5.754 -0.5118  0.6324 -0.1500
   44MOL    C39 5285   3.232   0.859   5.720  0.3040  0.4147 -0.8097
   44MOL   Cl40 5286   3.076   0.852   5.641  0.0024  0.0043  0.1633
   44MOL    H41 5287   3.321   0.664   5.662  1.0952 -0.1364  0.8120
   44MOL    H42 5288   3.383   0.714   5.809 -0.1666 -0.5084 -0.7286
   44MOL    H43 5289   3.206   0.911   5.812  0.4857  0.1393 -0.6031
   44MOL    C44 5290   3.330   0.956   5.645 -0.4367  0.0681 -0.2775
   44MOL    C45 5291   3.377   0.910   5.509 -0.5914 -0.0830 -0.0380
   44MOL   Cl46 5292   3.522   0.812   5.528 -0.0014  0.4013  0.2185
   44MOL    H47 5293   3.422   0.964   5.704  0.3893  1.5989 -1.7051
   44MOL    H48 5294   3.278   1.051   5.632  0.4343  0.5856 -0.0605
   44MOL    H49 5295   3.301   0.842   5.470 -1.7646 -0.6895  3.1322
   44MOL    C50 5296   3.402   1.026   5.414  0.2301 -0.7034  0.7313
   44MOL    C51 5297   3.267   1.084   5.359 -0.6863 -0.1077 -0.1623
   44MOL   Cl52 5298   3.226   0.992   5.215  0.0869 -0.2968 -0.7248
   44MOL    H53 5299   3.469   0.989   5.336 -0.6003 -3.7474  1.3726
   44MOL    H54 5300   3.462   1.101   5.465  1.0370  0.3333 -1.6721
   44MOL    H55 5301   3.196   1.061   5.438 -2.1424 -0.4597 -1.5523
   44MOL    C56 5302   3.272   1.230   5.329  0.2495 -0.2781 -0.2665
   44MOL    C57 5303   3.307   1.322   5.454 -0.6926  0.5070  0.1575
   44MOL   Cl58 5304   3.182   1.317   5.579  0.1524 -0.0106 -0.0922
   44MOL    H59 5305   3.169   1.259   5.311  0.2217 -0.9662 -1.2253
   44MOL    H60 5306   3.315   1.251   5.231 -0.6544  0.0386 -0.5961
   44MOL    H61 5307   3.398   1.291   5.504 -0.3769 -0.1043 -0.7780
   44MOL    C62 5308   3.323   1.476   5.423  0.4166  0.5698  0.2476
   44MOL    C63 5309   3.444   1.513   5.325  0.0841  0.5985 -1.0942
   44MOL   Cl64 5310   3.597   1.458   5.395 -0.2463 -0.1795 -0.0215
   44MOL    H65 5311   3.334   1.548   5.505 -1.2184 -0.3323  1.2671
   44MOL    H66 5312   3.227   1.509   5.384 -1.4291 -0.8361  3.3794
   44MOL    H67 5313   3.436   1.459   5.231 -1.3452 -0.4298 -0.4121
   44MOL    C68 5314   3.457   1.668   5.300 -0.0303 -0.3290  0.2453
   44MOL    C69 5315   3.371   1.715   5.183 -0.2882 -0.0680  1.8458
   44MOL   Cl70 5316   3.440   1.657   5.031  0.3426  0.0666  0.0678
   44MOL    H71 5317   3.562   1.690   5.281 -0.2492 -0.7172 -1.5148
   44MOL    H72 5318   3.436   1.720   5.393  1.7732 -0.9963  1.0514
   44MOL    H73 5319   3.270   1.674   5.190 -0.6759  0.5103 -0.2445
   44MOL    C74 5320   3.359   1.866   5.191 -0.2668 -0.1065  0.1278
   44MOL    C75 5321   3.290   1.931   5.314 -0.0230 -0.6970 -0.3060
   44MOL   Cl76 5322   3.132   1.855   5.357 -0.2071 -0.2523 -0.3113
   44MOL    H77 5323   3.311   1.896   5.098  1.3344  3.0897  0.2554
   44MOL    H78 5324   3.459   1.908   5.184  0.3735 -1.4975  0.8743
   44MOL    H79 5325   3.361   1.912   5.395  1.0198  0.1605 -0.9990
   44MOL    C80 5326   3.260   2.082   5.291  0.5816  0.1064  0.1528
   44MOL    C81 5327   3.370   2.186   5.335  0.2813  0.3963 -0.8664
   44MOL   Cl82 5328   3.295   2.342   5.298 -0.0674  0.1428 -0.0861
   44MOL    H83 5329   3.170   2.104   5.347 -0.4804 -2.6154 -0.4331
   44MOL    H84 5330   3.235   2.106   5.187 -1.0165 -0.8155  0.3287
   44MOL    H85 5331   3.373   2.184   5.444 -0.0159 -0.2438 -0.8655
   44MOL    C86 5332   3.510   2.178   5.268 -0.4713  0.0892  0.7087
   44MOL    C87 5333   3.627   2.125   5.351  0.1296  0.0296  0.3871
   44MOL   Cl88 5334   3.637   2.196   5.517 -0.0180  0.3366  0.1626
   44MOL    H89 5335   3.547   2.276   5.237  0.8473 -0.4633  0.4965
   44MOL    H90 5336   3.498   2.122   5.175 -0.0299 -1.6515  1.6808
   44MOL    H91 5337   3.614   2.019   5.369  0.2086 -0.0504 -0.0328
   44MOL    C92 5338   3.767   2.138   5.285  0.0487  0.6500 -0.0295
   44MOL    C93 5339   3.786   2.078   5.146  0.2869 -0.4542  0.3647
   44MOL   Cl94 5340   3.726   1.909   5.140 -0.1090  0.1859 -0.0470
   44MOL    H95 5341   3.837   2.096   5.358  0.7816  2.4316  0.3027
   44MOL    H96 5342   3.796   2.242   5.271  1.0257  0.5547  1.2292
   44MOL    H97 5343   3.724   2.139   5.081 -0.1214  0.5392  1.6561
   44MOL    C98 5344   3.933   2.067   5.095 -0.3349  0.1093  0.0942
   44MOL    C99 5345   4.002   2.207   5.072 -0.9950  0.2904  0.6754
   44MOL  Cl100 5346   3.910   2.322   4.978 -0.1716 -0.1923  0.0923
   44MOL   H101 5347   3.950   2.015   5.001 -0.8431  1.1811 -0.6027
   44MOL   H102 5348   3.997   2.013   5.166 -0.0239  2.3840  1.5915
   44MOL   H103 5349   4.024   2.249   5.170  1.2400  2.1783 -0.5811
   44MOL   C104 5350   4.135   2.183   5.004 -0.2507  0.1374  0.2989
   44MOL   C105 5351   4.244   2.290   5.017 -0.1266 -0.1967 -0.0116
   44MOL  Cl106 5352   4.302   2.293   5.185  0.2113  0.1013  0.2849
   44MOL   H107 5353   4.131   2.162   4.897  3.5385  1.7883 -0.2571
   44MOL   H108 5354   4.190   2.092   5.027 -0.7729 -0.7057 -1.6477
   44MOL   H109 5355   4.331   2.250   4.966  0.3418  1.0168 -0.1878
   44MOL   C110 5356   4.211   2.433   4.969  0.1244 -0.5931  0.9231
   44MOL   C111 5357   4.177   2.445   4.821  0.3902  0.4715 -0.1840
   44MOL  Cl112 5358   4.332   2.404   4.741  0.2742 -0.0407 -0.4052
   44MOL   H113 5359   4.297   2.496   4.989 -0.4663 -0.1749  2.1449
   44MOL   H114 5360   4.138   2.477   5.037 -3.1836 -2.7108 -1.0725
   44MOL   H115 5361   4.108   2.371   4.779 -1.2513  1.2481  1.0916
   44MOL   C116 5362   4.126   2.580   4.773 -0.4808 -0.7504 -0.2218
   44MOL   C117 5363   4.108   2.591   4.620 -0.4764  0.1467  0.8270
   44MOL  Cl118 5364   4.085   2.761   4.579  0.0492 -0.2081  0.2085
   44MOL   H119 5365   4.209   2.649   4.793 -0.0438 -0.8764 -1.5576
   44MOL   H120 5366   4.038   2.614   4.827 -0.1531 -0.0415 -0.1299
   44MOL   H121 5367   4.185   2.556   4.551  2.0313  3.4558  1.8142
   44MOL   H122 5368   4.010   2.556   4.585  0.3025  0.0016 -1.2884
   45MOL     C1 5369   7.069   4.884   1.891  0.6149  0.2212 -0.1139
   45MOL     C2 5370   7.209   4.897   1.833 -0.1145 -0.0786  0.3255
   45MOL    Cl3 5371   7.202   4.854   1.660 -0.2826 -0.0297 -0.2171
   45MOL     H4 5372   7.080   4.895   1.999  0.3032  1.3085 -0.1892
   45MOL     H5 5373   7.018   4.971   1.852  1.8463  0.4321 -1.2975
   45MOL     H6 5374   7.233   5.003   1.845 -1.3290  0.2649 -0.1794
   45MOL     H7 5375   7.023   4.789   1.864 -0.4307  0.5604  0.4434
   45MOL     C8 5376   7.308   4.811   1.910  0.2594 -0.2281 -0.9848
   45MOL     C9 5377   7.454   4.850   1.900  0.2951  0.3752 -0.0634
   45MOL   Cl10 5378   7.477   5.009   1.987 -0.6332 -0.1003 -0.1392
   45MOL    H11 5379   7.297   4.704   1.892 -1.2831 -0.6372  1.9701
   45MOL    H12 5380   7.286   4.828   2.016  0.9911  0.5484 -0.9505
   45MOL    H13 5381   7.512   4.779   1.958 -0.4083 -0.1778 -0.0354
   45MOL    C14 5382   7.514   4.870   1.752  0.0499 -0.1513  0.0679
   45MOL    C15 5383   7.528   4.740   1.665  0.2112 -0.0230 -0.0640
   45MOL   Cl16 5384   7.626   4.620   1.753  0.2077 -0.5049 -0.3326
   45MOL    H17 5385   7.616   4.905   1.766  0.4044 -0.5985 -1.3512
   45MOL    H18 5386   7.461   4.951   1.703 -0.6545 -1.9326 -2.1852
   45MOL    H19 5387   7.434   4.691   1.640  1.2002 -0.5797 -2.9224
   45MOL    C20 5388   7.610   4.758   1.530  0.9859  0.1945 -0.7823
   45MOL    C21 5389   7.523   4.819   1.418  0.6702  0.0309  0.4354
   45MOL   Cl22 5390   7.404   4.700   1.363  0.1083 -0.2891 -0.0649
   45MOL    H23 5391   7.652   4.662   1.498 -0.8994 -0.2937 -1.8828
   45MOL    H24 5392   7.697   4.818   1.559  0.5257 -0.2129  1.5583
   45MOL    H25 5393   7.466   4.901   1.462  0.5276 -0.5626  1.3757
   45MOL    C26 5394   7.604   4.875   1.299 -0.0933 -0.2883  0.2774
   45MOL    C27 5395   7.650   5.020   1.322  0.2441  0.5234 -0.3214
   45MOL   Cl28 5396   7.524   5.125   1.263 -0.0100 -0.2180  0.0568
   45MOL    H29 5397   7.542   4.874   1.209  0.5613 -3.0994 -0.1980
   45MOL    H30 5398   7.690   4.813   1.275  0.5670 -0.3181  2.6159
   45MOL    H31 5399   7.665   5.032   1.429  1.4004  2.0773 -0.6360
   45MOL    C32 5400   7.786   5.056   1.262  0.2454 -0.2055 -0.1261
   45MOL    C33 5401   7.855   5.179   1.322 -0.7569  0.8011  0.0356
   45MOL   Cl34 5402   7.889   5.159   1.492 -0.4163  0.3999 -0.0436
   45MOL    H35 5403   7.784   5.056   1.153 -1.8991  0.1456 -0.1064
   45MOL    H36 5404   7.844   4.967   1.288  0.1817 -1.1426 -3.0050
   45MOL    H37 5405   7.953   5.185   1.275 -0.8739  2.5761 -0.0230
   45MOL    C38 5406   7.801   5.319   1.282 -0.3294  0.2525  0.0725
   45MOL    C39 5407   7.749   5.334   1.137  0.4431  0.2571  0.4235
   45MOL   Cl40 5408   7.894   5.317   1.032  0.1143 -0.3960 -0.0137
   45MOL    H41 5409   7.871   5.401   1.297  0.9476 -0.9539  0.7921
   45MOL    H42 5410   7.722   5.347   1.351  1.6147  0.9513  2.0795
   45MOL    H43 5411   7.676   5.257   1.110 -0.5921  1.2321  0.4080
   45MOL    C44 5412   7.690   5.475   1.109 -0.0166  0.8139  0.4857
   45MOL    C45 5413   7.580   5.480   0.996 -1.0203 -0.0766 -0.1599
   45MOL   Cl46 5414   7.436   5.385   1.035  0.1291 -0.5479 -0.0429
   45MOL    H47 5415   7.776   5.540   1.096 -0.5812  1.3263 -0.7909
   45MOL    H48 5416   7.648   5.515   1.201 -0.6949 -1.3133  1.1517
   45MOL    H49 5417   7.548   5.582   0.975 -2.5187 -0.3995  0.5566
   45MOL    C50 5418   7.630   5.441   0.854 -0.3337 -0.2993  0.1416
   45MOL    C51 5419   7.742   5.527   0.799 -0.1084 -0.2395  0.2635
   45MOL   Cl52 5420   7.681   5.674   0.722 -0.1760 -0.0383  0.1027
   45MOL    H53 5421   7.541   5.429   0.793 -1.0071  0.8214  0.8728
   45MOL    H54 5422   7.677   5.343   0.864  3.0488  1.0103 -2.0729
   45MOL    H55 5423   7.811   5.561   0.876  0.5552 -0.2142 -0.3318
   45MOL    C56 5424   7.832   5.447   0.708  0.3263  0.5543 -0.3516
   45MOL    C57 5425   7.942   5.528   0.635 -0.1379 -0.0217 -0.2865
   45MOL   Cl58 5426   8.015   5.433   0.503 -0.1215 -0.0887  0.4480
   45MOL    H59 5427   7.775   5.419   0.619  0.7094 -0.4446 -0.2804
   45MOL    H60 5428   7.880   5.367   0.764  2.3248  2.5351  0.8700
   45MOL    H61 5429   7.905   5.618   0.586  1.4266  1.3380  0.9629
   45MOL    C62 5430   8.069   5.563   0.723  0.3550  0.4138  0.0054
   45MOL    C63 5431   8.147   5.684   0.671  0.4138 -0.4070 -0.0905
   45MOL   Cl64 5432   8.310   5.677   0.740  0.0148  0.2144  0.1961
   45MOL    H65 5433   8.136   5.478   0.735 -0.3578 -0.1753 -0.1216
   45MOL    H66 5434   8.047   5.583   0.828 -1.3182 -1.1652 -0.0209
   45MOL    H67 5435   8.167   5.679   0.564 -2.6403  0.8241 -0.7709
   45MOL    C68 5436   8.080   5.819   0.715 -0.3106  0.8188 -0.5059
   45MOL    C69 5437   8.095   5.934   0.622  0.2957 -0.6196  0.4149
   45MOL   Cl70 5438   8.028   5.893   0.473 -0.3327  0.0066  0.3460
   45MOL    H71 5439   8.120   5.841   0.814  1.0841  0.7463 -1.0364
   45MOL    H72 5440   7.974   5.799   0.732 -0.4602  0.8716 -1.3438
   45MOL    H73 5441   8.031   6.011   0.666  1.0147 -1.0277  2.2312
   45MOL    C74 5442   8.232   5.995   0.600 -0.6505  0.2024 -0.6997
   45MOL    C75 5443   8.314   6.040   0.720 -0.4446 -0.3790 -0.9443
   45MOL   Cl76 5444   8.258   6.183   0.816  0.2845 -0.2212 -0.2142
   45MOL    H77 5445   8.223   6.086   0.540  0.1218  1.8525  1.6025
   45MOL    H78 5446   8.291   5.923   0.544 -1.4448  0.1607 -1.4817
   45MOL    H79 5447   8.324   5.956   0.789 -0.7808  0.5054  0.1922
   45MOL    C80 5448   8.463   6.065   0.672 -0.1987  0.1241  0.5234
   45MOL    C81 5449   0.036   5.936   0.670 -0.3199  0.2884  0.0624
   45MOL   Cl82 5450   0.110   5.903   0.825 -0.1317  0.1795 -0.6814
   45MOL    H83 5451   8.511   6.133   0.742  3.3165  1.4086 -2.9397
   45MOL    H84 5452   8.457   6.122   0.579  0.0933 -3.2364 -1.6448
   45MOL    H85 5453   8.504   5.848   0.643 -0.1607  0.0591  0.4808
   45MOL    C86 5454   0.153   5.966   0.568 -0.5328 -0.0178  0.0201
   45MOL    C87 5455   0.211   5.834   0.504  0.2224  0.2573  0.0429
   45MOL   Cl88 5456   0.328   5.752   0.614  0.0942  0.0158  0.0827
   45MOL    H89 5457   0.235   6.015   0.621 -0.3079  0.3723 -0.6823
   45MOL    H90 5458   0.112   6.031   0.491  0.4367  0.7669  0.1602
   45MOL    H91 5459   0.136   5.758   0.481 -0.2576  0.4770  0.8508
   45MOL    C92 5460   0.294   5.878   0.378 -0.9068  0.3239  0.2044
   45MOL    C93 5461   0.324   5.761   0.284  0.5480  0.0785  0.3192
   45MOL   Cl94 5462   0.422   5.831   0.163 -0.2792 -0.2368 -0.1421
   45MOL    H95 5463   0.393   5.909   0.412 -0.9079 -0.2021  0.6840
   45MOL    H96 5464   0.246   5.957   0.319 -4.1710 -1.6169  0.1642
   45MOL    H97 5465   0.391   5.694   0.338 -0.2164  0.4627  1.7855
   45MOL    C98 5466   0.198   5.710   0.211 -0.2442  0.2908  0.3190
   45MOL    C99 5467   0.219   5.574   0.142  0.3859 -0.4293 -0.3170
   45MOL  Cl100 5468   0.281   5.456   0.249  0.0042 -0.2200  0.1190
   45MOL   H101 5469   0.159   5.788   0.146 -2.6954 -2.2220 -1.3239
   45MOL   H102 5470   0.110   5.696   0.274 -0.8122  0.2180 -0.4857
   45MOL   H103 5471   0.116   5.542   0.132  0.4680 -1.0171  0.6446
   45MOL   C104 5472   0.310   5.569   0.009  0.9050 -0.4420 -0.5079
   45MOL   C105 5473   0.263   5.677   8.432 -0.5777  0.0516 -0.1731
   45MOL  Cl106 5474   0.086   5.659   8.396  0.1902 -0.0848  0.0874
   45MOL   H107 5475   0.277   5.478   8.484 -0.1586 -0.5323  0.3374
   45MOL   H108 5476   0.414   5.567   0.043  0.8058  0.1186 -0.1636
   45MOL   H109 5477   0.279   5.774   8.479  3.2358  1.0348 -3.2900
   45MOL   C110 5478   0.339   5.670   8.295  0.6499 -0.8378 -0.6200
   45MOL   C111 5479   0.488   5.721   8.293  0.7126 -0.1176 -0.1533
   45MOL  Cl112 5480   0.477   5.903   8.310  0.1484  0.3521  0.0868
   45MOL   H113 5481   0.286   5.733   8.224 -0.4131 -0.1757  0.7318
   45MOL   H114 5482   0.331   5.565   8.267 -2.0048 -1.2122  1.3169
   45MOL   H115 5483   0.555   5.678   8.367  2.2862  0.1076 -1.4399
   45MOL   C116 5484   0.555   5.691   8.157 -0.0037  0.6538 -0.7212
   45MOL   C117 5485   0.704   5.732   8.152  0.5079  0.2888  0.1854
   45MOL  Cl118 5486   0.787   5.702   7.993 -0.0736 -0.6539 -0.1042
   45MOL   H119 5487   0.504   5.733   8.070 -0.9283 -1.5831 -1.2943
   45MOL   H120 5488   0.554   5.583   8.141  1.8365  0.5589 -0.3421
   45MOL   H121 5489   0.717   5.838   8.174  0.4403  0.1969  0.6862
   45MOL   H122 5490   0.752   5.670   8.228 -0.5317  0.0826  0.6908
   46MOL     C1 5491   4.673   5.911   1.349 -1.0632 -0.0190  0.0388
   46MOL     C2 5492   4.531   5.873   1.322  0.2996  0.4982  0.4853
   46MOL    Cl3 5493   4.441   6.023   1.347 -0.3155  0.0061  0.0412
   46MOL     H4 5494   4.740   5.825   1.345  1.5211  1.8150  2.1218
   46MOL     H5 5495   4.693   5.987   1.273 -0.4331 -0.0571  0.1622
   46MOL     H6 5496   4.522   5.839   1.219  0.6283 -0.5907  0.8080
   46MOL     H7 5497   4.673   5.969   1.441 -2.7661  1.6780 -0.9963
   46MOL     C8 5498   4.461   5.763   1.413  0.4187 -0.3217  0.5192
   46MOL     C9 5499   4.523   5.620   1.403 -0.0932  0.0233 -0.4403
   46MOL   Cl10 5500   4.509   5.560   1.238  0.0551  0.0120  0.0805
   46MOL    H11 5501   4.354   5.762   1.390  0.9407 -1.1157 -2.0129
   46MOL    H12 5502   4.469   5.798   1.516  2.5020 -0.8460  0.5508
   46MOL    H13 5503   4.627   5.619   1.433  0.4963  0.3648 -2.3795
   46MOL    C14 5504   4.451   5.510   1.490 -0.4314  0.0078 -0.7082
   46MOL    C15 5505   4.478   5.528   1.646  0.2976 -0.3401  0.4273
   46MOL   Cl16 5506   4.658   5.517   1.670 -0.1208 -0.1873  0.1323
   46MOL    H17 5507   4.490   5.415   1.454  0.7694  0.2318 -0.0406
   46MOL    H18 5508   4.345   5.521   1.465 -0.7787  0.3371  0.8985
   46MOL    H19 5509   4.453   5.625   1.690  0.2481  0.2481 -0.8745
   46MOL    C20 5510   4.400   5.432   1.739  0.4146  0.0321 -0.8253
   46MOL    C21 5511   4.426   5.447   1.885 -0.2590  0.3862  0.6218
   46MOL   Cl22 5512   4.322   5.329   1.973  0.5611  0.0285  0.1319
   46MOL    H23 5513   4.430   5.332   1.706 -0.3371 -1.1271  1.8302
   46MOL    H24 5514   4.296   5.445   1.710  1.6295  1.8462 -4.7059
   46MOL    H25 5515   4.526   5.410   1.910 -0.2116 -0.7541 -1.1240
   46MOL    C26 5516   4.415   5.579   1.956  0.3651 -0.0095  0.3915
   46MOL    C27 5517   4.270   5.645   1.955 -0.3536 -0.0358  0.2912
   46MOL   Cl28 5518   4.223   5.707   1.802 -0.4308  0.1940  0.2216
   46MOL    H29 5519   4.484   5.646   1.905  3.3121 -2.8852  0.4358
   46MOL    H30 5520   4.446   5.553   2.058  0.6693 -4.0047 -0.6380
   46MOL    H31 5521   4.202   5.562   1.974 -1.3259  0.8976  0.9424
   46MOL    C32 5522   4.246   5.733   2.079  0.2599 -0.4606  0.3289
   46MOL    C33 5523   4.304   5.874   2.073  0.1118 -0.7868 -0.4961
   46MOL   Cl34 5524   4.478   5.861   2.088  0.3189  0.0872  0.1820
   46MOL    H35 5525   4.277   5.684   2.171 -0.5231  0.4787  1.1119
   46MOL    H36 5526   4.140   5.759   2.083  1.1164  3.2034  1.1433
   46MOL    H37 5527   4.288   5.922   1.977 -0.0991  1.0529  0.4268
   46MOL    C38 5528   4.250   5.972   2.183 -0.2454  0.7407  0.2877
   46MOL    C39 5529   4.114   6.025   2.133  0.3651 -0.4489  0.3841
   46MOL   Cl40 5530   4.136   6.147   2.001 -0.1390  0.1913 -0.4570
   46MOL    H41 5531   4.324   6.049   2.205  2.0385 -0.8614 -1.5699
   46MOL    H42 5532   4.246   5.916   2.276 -2.0938  0.2017 -0.0841
   46MOL    H43 5533   4.045   5.952   2.092  1.4664 -0.8943 -0.6797
   46MOL    C44 5534   4.038   6.106   2.244 -0.2037  0.2286 -0.3274
   46MOL    C45 5535   4.001   6.016   2.366 -0.0227  0.1908  0.2052
   46MOL   Cl46 5536   3.889   5.884   2.317 -0.0129 -0.0557  0.2671
   46MOL    H47 5537   3.945   6.144   2.201 -0.6708 -2.9146 -2.2690
   46MOL    H48 5538   4.087   6.200   2.270 -2.4417  1.1424  0.6844
   46MOL    H49 5539   4.090   5.965   2.404  0.2388  0.7690  0.3751
   46MOL    C50 5540   3.929   6.100   2.478 -0.0322  0.6095 -0.2660
   46MOL    C51 5541   4.016   6.222   2.535  0.0964 -0.3553 -0.5875
   46MOL   Cl52 5542   4.156   6.160   2.625 -0.1353 -0.2095  0.1607
   46MOL    H53 5543   3.915   6.035   2.564 -0.2263  1.4507  0.3404
   46MOL    H54 5544   3.842   6.134   2.422 -0.0288 -1.2359 -1.4509
   46MOL    H55 5545   4.066   6.281   2.458 -3.1560  1.2528 -1.6085
   46MOL    C56 5546   3.932   6.322   2.607  0.2142  0.1057  0.4791
   46MOL    C57 5547   3.832   6.272   2.712  0.0905  0.3460  0.0595
   46MOL   Cl58 5548   3.725   6.404   2.744  0.4614  0.1928  0.0702
   46MOL    H59 5549   3.874   6.376   2.533 -2.2623 -0.8388  1.6636
   46MOL    H60 5550   3.999   6.398   2.647  0.8894 -1.2930  2.0882
   46MOL    H61 5551   3.762   6.195   2.682 -0.5915 -0.2205  2.9452
   46MOL    C62 5552   3.895   6.224   2.845 -0.4728 -0.3176 -0.0339
   46MOL    C63 5553   3.800   6.207   2.963 -0.2263 -0.4205  0.9330
   46MOL   Cl64 5554   3.917   6.161   3.097 -0.4749 -0.0391  0.2298
   46MOL    H65 5555   3.975   6.293   2.874 -0.4075 -0.9882  1.4522
   46MOL    H66 5556   3.948   6.129   2.835 -0.4897 -0.1331 -1.9453
   46MOL    H67 5557   3.752   6.301   2.989  1.8191  1.4382 -1.6740
   46MOL    C68 5558   3.701   6.090   2.950 -0.3994  0.3975 -0.7299
   46MOL    C69 5559   3.596   6.097   3.064  0.2513 -0.0027 -0.1184
   46MOL   Cl70 5560   3.497   5.942   3.068  0.3065  0.0114 -0.4177
   46MOL    H71 5561   3.756   5.997   2.964 -0.7106  0.5422  1.6306
   46MOL    H72 5562   3.647   6.084   2.855 -0.6784 -0.1030 -0.5415
   46MOL    H73 5563   3.652   6.092   3.158  1.3533  0.4444 -0.7400
   46MOL    C74 5564   3.508   6.220   3.059 -0.3273  0.1569  0.9772
   46MOL    C75 5565   3.377   6.223   3.141 -0.3368  0.8129 -1.1613
   46MOL   Cl76 5566   3.306   6.386   3.127  0.0325  0.2115  0.7367
   46MOL    H77 5567   3.475   6.229   2.955 -1.0984 -0.3088  1.1761
   46MOL    H78 5568   3.564   6.312   3.072  1.1650 -0.3401 -1.5171
   46MOL    H79 5569   3.309   6.144   3.109  1.3706  0.1385 -3.3028
   46MOL    C80 5570   3.415   6.211   3.290  0.4122  0.0828  0.2002
   46MOL    C81 5571   3.294   6.212   3.384  0.1888  0.3004 -0.2118
   46MOL   Cl82 5572   3.352   6.252   3.545  0.3771 -0.2697  0.3458
   46MOL    H83 5573   3.479   6.298   3.300  1.6866 -0.6124 -1.5444
   46MOL    H84 5574   3.481   6.126   3.309 -0.8634 -1.4288 -1.8950
   46MOL    H85 5575   3.223   6.292   3.362  0.0138  0.4687  0.9364
   46MOL    C86 5576   3.244   6.064   3.389  0.1133  0.1610  0.0435
   46MOL    C87 5577   3.090   6.040   3.371 -0.5620 -0.4483  0.6410
   46MOL   Cl88 5578   3.007   6.126   3.498  0.2227 -0.1554 -0.1641
   46MOL    H89 5579   3.271   6.027   3.488  3.4054 -0.3131 -0.9544
   46MOL    H90 5580   3.294   5.994   3.322  1.1974  0.9966 -0.0466
   46MOL    H91 5581   3.050   6.081   3.278 -1.3733  1.3293  1.7480
   46MOL    C92 5582   3.052   5.897   3.382  0.0833 -0.5131  0.0666
   46MOL    C93 5583   3.103   5.795   3.273 -0.0025  0.0847 -0.5470
   46MOL   Cl94 5584   3.028   5.844   3.119  0.1085 -0.1124  0.3784
   46MOL    H95 5585   2.945   5.881   3.394  0.1355 -1.2361 -0.3930
   46MOL    H96 5586   3.091   5.871   3.481 -0.1704 -0.1019  0.2727
   46MOL    H97 5587   3.211   5.807   3.268 -0.0194  2.0872  2.7525
   46MOL    C98 5588   3.073   5.642   3.295 -0.2893 -0.1028  0.2221
   46MOL    C99 5589   3.149   5.551   3.397 -0.1909 -0.5122 -0.0280
   46MOL  Cl100 5590   3.310   5.539   3.344  0.3607 -0.2071  0.3057
   46MOL   H101 5591   3.088   5.597   3.197 -2.8425  0.1156 -0.2760
   46MOL   H102 5592   2.969   5.622   3.321 -0.1208  0.2564  1.1924
   46MOL   H103 5593   3.162   5.587   3.499  0.4636 -2.4124  0.5774
   46MOL   C104 5594   3.092   5.404   3.407 -0.4546 -0.2746 -0.1669
   46MOL   C105 5595   3.127   5.322   3.533  0.6551 -0.4728  0.3601
   46MOL  Cl106 5596   3.074   5.410   3.676 -0.1134 -0.2440  0.1351
   46MOL   H107 5597   3.101   5.356   3.310 -0.3452  0.4967 -0.5422
   46MOL   H108 5598   2.984   5.418   3.419  0.1529  2.9261  2.3217
   46MOL   H109 5599   3.067   5.231   3.535  1.0515 -0.7848 -1.3689
   46MOL   C110 5600   3.282   5.294   3.546 -0.1183  0.4007  0.2378
   46MOL   C111 5601   3.331   5.207   3.425  0.5754  0.8811 -0.3884
   46MOL  Cl112 5602   3.276   5.037   3.430  0.0239 -0.0776 -0.0803
   46MOL   H113 5603   3.320   5.239   3.632 -0.6442  0.0335  0.2373
   46MOL   H114 5604   3.334   5.390   3.550 -2.0910  1.5975 -1.9113
   46MOL   H115 5605   3.284   5.248   3.335  3.0549  1.4627 -1.4555
   46MOL   C116 5606   3.480   5.212   3.385  0.1134  0.4499  0.1644
   46MOL   C117 5607   3.506   5.186   3.236  0.7969  0.2316 -0.4241
   46MOL  Cl118 5608   3.672   5.180   3.190  0.0562  0.3724 -0.0771
   46MOL   H119 5609   3.535   5.132   3.436 -1.4165 -1.7900 -1.5669
   46MOL   H120 5610   3.534   5.302   3.414 -0.7527  0.9222  0.3412
   46MOL   H121 5611   3.460   5.095   3.198  0.0990  0.4170 -0.0337
   46MOL   H122 5612   3.457   5.269   3.186 -0.1917  0.6306  1.1548
   47MOL     C1 5613   5.140   6.982   1.213  0.1846 -0.2153  0.6652
   47MOL     C2 5614   5.128   6.977   1.057 -0.4952  0.1496  0.1628
   47MOL    Cl3 5615   5.270   6.893   0.996 -0.0611 -0.6239 -0.2154
   47MOL     H4 5616   5.220   7.053   1.232 -1.2806  1.4408  0.8053
   47MOL     H5 5617   5.048   7.004   1.266  0.6309 -2.1210  2.2626
   47MOL     H6 5618   5.039   6.923   1.026  0.5043 -0.1796 -2.2397
   47MOL     H7 5619   5.174   6.888   1.256  0.3855 -0.2362  0.4618
   47MOL     C8 5620   5.120   7.125   0.999 -0.3685  0.3002 -0.2033
   47MOL     C9 5621   5.112   7.136   0.841 -1.1942 -0.2814 -1.1625
   47MOL   Cl10 5622   5.137   7.305   0.790  0.0351 -0.2857 -0.0937
   47MOL    H11 5623   5.206   7.186   1.024 -0.9266  0.9946  0.0481
   47MOL    H12 5624   5.033   7.170   1.047 -0.6741 -2.2082  1.7309
   47MOL    H13 5625   5.204   7.095   0.800 -1.3290  1.0134 -2.8467
   47MOL    C14 5626   4.993   7.075   0.775 -0.1149  0.0062 -0.5447
   47MOL    C15 5627   4.855   7.134   0.809 -0.0575  0.0375 -0.3712
   47MOL   Cl16 5628   4.780   7.052   0.954  0.2038 -0.0455 -0.2380
   47MOL    H17 5629   5.001   6.968   0.798 -2.7534 -0.6917 -2.6215
   47MOL    H18 5630   5.006   7.082   0.667  0.8841  1.2716 -0.3534
   47MOL    H19 5631   4.860   7.237   0.844  0.4874  0.6228 -2.0927
   47MOL    C20 5632   4.753   7.112   0.693 -0.3822  0.2055  0.1091
   47MOL    C21 5633   4.762   7.212   0.572  0.0512  0.8177 -0.1986
   47MOL   Cl22 5634   4.704   7.363   0.632 -0.2026 -0.1868  0.0038
   47MOL    H23 5635   4.652   7.104   0.733  0.2192  0.2400  1.6589
   47MOL    H24 5636   4.782   7.012   0.662  0.7428  0.5646 -0.0246
   47MOL    H25 5637   4.869   7.224   0.552  0.3020 -0.5156  0.2602
   47MOL    C26 5638   4.687   7.164   0.451  0.2529  0.7931 -0.1910
   47MOL    C27 5639   4.737   7.042   0.376  0.2322 -0.2184  0.0144
   47MOL   Cl28 5640   4.895   7.088   0.310  0.0469 -0.3967  0.2045
   47MOL    H29 5641   4.673   7.252   0.388 -1.9762  0.4768 -0.1829
   47MOL    H30 5642   4.586   7.146   0.487  0.9886 -1.7375  0.7068
   47MOL    H31 5643   4.745   6.962   0.449  0.3700  1.9166  2.3964
   47MOL    C32 5644   4.646   7.000   0.263 -0.1549  0.0112  0.4161
   47MOL    C33 5645   4.667   6.874   0.189 -0.2566  0.3559  0.1434
   47MOL   Cl34 5646   4.546   6.859   0.058 -0.0775 -0.2054 -0.2199
   47MOL    H35 5647   4.628   7.075   0.186 -0.2720 -0.5088 -0.0652
   47MOL    H36 5648   4.545   6.992   0.303 -1.0216 -1.1871 -1.9203
   47MOL    H37 5649   4.769   6.859   0.154 -0.2186  0.3954  0.2341
   47MOL    C38 5650   4.650   6.748   0.287  0.0507 -0.4550 -0.1377
   47MOL    C39 5651   4.637   6.607   0.226  0.2723  0.2066 -0.5848
   47MOL   Cl40 5652   4.608   6.500   0.363  0.0625  0.6690  0.0417
   47MOL    H41 5653   4.554   6.775   0.330  0.0879  2.4273 -1.7225
   47MOL    H42 5654   4.727   6.759   0.364  0.0607  1.6340 -0.4235
   47MOL    H43 5655   4.545   6.592   0.169  1.0387 -0.7236 -1.5993
   47MOL    C44 5656   4.761   6.556   0.148  0.5257 -0.2428  0.2754
   47MOL    C45 5657   4.718   6.494   0.005  0.1404 -0.0299  0.6840
   47MOL   Cl46 5658   4.619   6.341   0.034 -0.1423  0.1879 -0.0442
   47MOL    H47 5659   4.808   6.477   0.206 -0.8528 -0.3287  1.2972
   47MOL    H48 5660   4.833   6.637   0.137 -1.3614  1.5716  1.0000
   47MOL    H49 5661   4.662   6.569   8.474 -1.9318 -1.1523  1.2007
   47MOL    C50 5662   4.828   6.444   8.442 -0.2364 -1.3827 -0.6354
   47MOL    C51 5663   4.946   6.545   8.410  0.9046  0.5930  0.8154
   47MOL   Cl52 5664   4.875   6.711   8.391  0.1515  0.4128 -0.1489
   47MOL    H53 5665   4.773   6.418   8.351 -0.2488 -0.2699 -0.9556
   47MOL    H54 5666   4.866   6.348   8.477  0.8154 -0.0016  2.0900
   47MOL    H55 5667   5.019   6.551   8.492  0.7544 -0.6987  1.0552
   47MOL    C56 5668   5.028   6.501   8.288 -0.8735  0.0989  0.7813
   47MOL    C57 5669   4.954   6.529   8.151 -0.7271 -0.1207  0.8054
   47MOL   Cl58 5670   4.922   6.390   8.051 -0.1288 -0.2756 -0.1762
   47MOL    H59 5671   5.056   6.398   8.307 -0.0281 -0.1258 -1.4911
   47MOL    H60 5672   5.120   6.558   8.284 -0.9024 -0.0280 -3.4609
   47MOL    H61 5673   4.854   6.564   8.176 -0.0185  1.3950  1.5899
   47MOL    C62 5674   5.023   6.626   8.055  0.3991  0.0535  0.1554
   47MOL    C63 5675   4.945   6.676   7.932 -0.4076  0.1034  0.4520
   47MOL   Cl64 5676   5.055   6.787   7.841 -0.1284 -0.1205 -0.0579
   47MOL    H65 5677   5.120   6.587   8.023  0.2579  0.6378 -1.0071
   47MOL    H66 5678   5.054   6.716   8.109  1.2737 -0.2508  0.1658
   47MOL    H67 5679   4.920   6.589   7.872  0.0098 -0.4235  1.0359
   47MOL    C68 5680   4.814   6.755   7.957  0.2341  0.0603 -0.6993
   47MOL    C69 5681   4.739   6.779   7.827 -0.5201  0.0876 -0.4558
   47MOL   Cl70 5682   4.641   6.924   7.846  0.0800 -0.2760  0.1298
   47MOL    H71 5683   4.852   6.852   7.990 -1.6163  0.0876  1.4369
   47MOL    H72 5684   4.750   6.712   8.034  0.2475 -0.7830 -1.1472
   47MOL    H73 5685   4.809   6.799   7.746 -0.0729 -0.2870 -0.1599
   47MOL    C74 5686   4.641   6.654   7.797 -0.8840  0.1466 -0.0855
   47MOL    C75 5687   4.611   6.622   7.650  1.0508  0.3527  0.1029
   47MOL   Cl76 5688   4.765   6.576   7.562 -0.5424  0.1516  0.1202
   47MOL    H77 5689   4.546   6.659   7.848 -0.4720  1.4566  0.5986
   47MOL    H78 5690   4.691   6.570   7.844  2.5176  1.7394 -0.6819
   47MOL    H79 5691   4.547   6.534   7.655  0.0557  0.8928 -2.2330
   47MOL    C80 5692   4.535   6.736   7.576  0.6130  0.6307 -0.8759
   47MOL    C81 5693   4.391   6.776   7.629 -0.7518  0.2996 -0.1312
   47MOL   Cl82 5694   4.302   6.627   7.616  0.1115 -0.2188 -0.1700
   47MOL    H83 5695   4.523   6.716   7.469  0.2818 -1.2630 -0.5052
   47MOL    H84 5696   4.605   6.820   7.576  0.2721  0.9318  0.7075
   47MOL    H85 5697   4.389   6.806   7.734 -1.4625 -0.7293  0.1544
   47MOL    C86 5698   4.302   6.870   7.539  0.0463 -0.4011  0.1634
   47MOL    C87 5699   4.357   7.013   7.513  0.5672  0.1600 -0.0311
   47MOL   Cl88 5700   4.342   7.109   7.660  0.0725 -0.1838  0.1280
   47MOL    H89 5701   4.200   6.882   7.578  0.4078 -2.6394  1.9024
   47MOL    H90 5702   4.281   6.812   7.450  1.8209 -0.0754 -0.4844
   47MOL    H91 5703   4.459   7.007   7.477  0.5955 -1.1231  0.2423
   47MOL    C92 5704   4.281   7.091   7.397  0.1834 -0.3147  0.3455
   47MOL    C93 5705   4.282   7.039   7.255  0.0002  0.3062 -0.0047
   47MOL   Cl94 5706   4.438   6.950   7.225 -0.2664 -0.2341 -0.0425
   47MOL    H95 5707   4.311   7.196   7.405 -1.9563  0.2959  0.7011
   47MOL    H96 5708   4.178   7.090   7.433  0.4634 -1.2912  1.1634
   47MOL    H97 5709   4.202   6.970   7.230 -2.6150  2.3583  2.4224
   47MOL    C98 5710   4.272   7.142   7.151 -0.9681 -0.0228  0.5970
   47MOL    C99 5711   4.150   7.233   7.160  0.2498  0.0517 -0.1678
   47MOL  Cl100 5712   3.995   7.125   7.153  0.1523 -0.3156  0.2366
   47MOL   H101 5713   4.281   7.107   7.048  1.3918 -0.8443  1.0620
   47MOL   H102 5714   4.352   7.216   7.156 -3.4095  2.7416  0.2777
   47MOL   H103 5715   4.156   7.276   7.260  0.0341  0.1312 -0.1888
   47MOL   C104 5716   4.156   7.345   7.057 -0.5766  0.3823  0.2594
   47MOL   C105 5717   4.036   7.448   7.074 -0.8888 -0.0871  0.3420
   47MOL  Cl106 5718   3.988   7.511   6.911  0.0833  0.2829 -0.1380
   47MOL   H107 5719   4.154   7.305   6.956  1.7357 -0.6751  0.6044
   47MOL   H108 5720   4.243   7.409   7.069  0.7008 -1.0559 -1.1480
   47MOL   H109 5721   3.953   7.388   7.110 -2.4759  1.5899 -0.4707
   47MOL   C110 5722   4.069   7.564   7.161  0.8499 -0.1806  0.1285
   47MOL   C111 5723   3.955   7.662   7.181  0.3699  0.0666  0.3146
   47MOL  Cl112 5724   4.008   7.801   7.281  0.5435 -0.2109  0.4661
   47MOL   H113 5725   4.150   7.622   7.115 -0.4879  1.1899 -0.5206
   47MOL   H114 5726   4.114   7.532   7.255  0.6556 -1.6434 -0.2573
   47MOL   H115 5727   3.939   7.705   7.082  0.4685  0.9265  0.6691
   47MOL   C116 5728   3.825   7.603   7.240  0.5907 -0.1406  0.8507
   47MOL   C117 5729   3.705   7.703   7.238 -0.8296 -0.3246 -0.0084
   47MOL  Cl118 5730   3.565   7.634   7.317 -0.2230 -0.0597 -0.5501
   47MOL   H119 5731   3.853   7.569   7.340  0.2157 -1.7578  0.4118
   47MOL   H120 5732   3.808   7.515   7.179  1.0802 -0.0209  0.5404
   47MOL   H121 5733   3.730   7.800   7.283  1.6003 -0.5052 -0.9269
   47MOL   H122 5734   3.674   7.725   7.136  1.8210  1.2294 -0.5240
   48MOL     C1 5735   3.733   3.439   8.472  0.1907 -0.0698 -0.0658
   48MOL     C2 5736   3.776   3.421   0.085 -0.3450  0.4122 -0.3400
   48MOL    Cl3 5737   3.953   3.452   0.079 -0.4602  0.1899  0.1150
   48MOL     H4 5738   3.790   3.510   8.412  2.3300 -0.5084  1.3888
   48MOL     H5 5739   3.752   3.349   8.413 -0.7342 -0.8038  0.7603
   48MOL     H6 5740   3.731   3.498   0.147 -0.2250 -0.9474  1.4630
   48MOL     H7 5741   3.628   3.462   8.456  0.9366  3.7043  0.1058
   48MOL     C8 5742   3.749   3.282   0.149  0.1856 -0.3292  0.0614
   48MOL     C9 5743   3.781   3.279   0.301  0.7401 -0.0171 -0.5126
   48MOL   Cl10 5744   3.790   3.111   0.356  0.5377  0.0426 -0.4445
   48MOL    H11 5745   3.826   3.210   0.120  0.8003  0.3008  0.1166
   48MOL    H12 5746   3.653   3.246   0.113 -0.8901  1.2883  1.2784
   48MOL    H13 5747   3.879   3.321   0.322  0.4171  0.9451 -0.9217
   48MOL    C14 5748   3.686   3.363   0.387  0.5989  0.1177  0.1078
   48MOL    C15 5749   3.532   3.337   0.387  0.1497  0.3358 -0.0797
   48MOL   Cl16 5750   3.458   3.394   0.236 -0.1228 -0.0929  0.0931
   48MOL    H17 5751   3.703   3.469   0.368  0.8834  0.3073  1.3889
   48MOL    H18 5752   3.708   3.337   0.490  2.0691  0.3716 -0.1319
   48MOL    H19 5753   3.514   3.229   0.392  0.4742  0.3568  1.5717
   48MOL    C20 5754   3.464   3.413   0.502 -0.1440 -0.0232 -0.0950
   48MOL    C21 5755   3.471   3.346   0.646  0.1894  0.1778 -0.3555
   48MOL   Cl22 5756   3.362   3.210   0.659  0.1448  0.1619  0.1278
   48MOL    H23 5757   3.361   3.441   0.476 -0.2017 -1.0285 -0.9813
   48MOL    H24 5758   3.520   3.505   0.515  0.5851 -0.4791  0.0263
   48MOL    H25 5759   3.572   3.309   0.659 -0.0924 -0.7059 -0.6538
   48MOL    C26 5760   3.425   3.445   0.757  0.3498 -0.6920 -0.6689
   48MOL    C27 5761   3.459   3.410   0.902 -0.1061  0.1066 -0.3534
   48MOL   Cl28 5762   3.426   3.541   1.019 -0.2120  0.4861  0.2940
   48MOL    H29 5763   3.316   3.455   0.750  0.1399 -0.9767  1.7329
   48MOL    H30 5764   3.462   3.546   0.744 -0.1541 -0.7053 -2.2612
   48MOL    H31 5765   3.386   3.334   0.929 -0.5618  0.5224 -0.4073
   48MOL    C32 5766   3.611   3.365   0.911  0.3619  0.3804  0.4607
   48MOL    C33 5767   3.654   3.335   1.053  0.1451 -0.4458  0.5116
   48MOL   Cl34 5768   3.825   3.326   1.061  0.1792  0.1926 -0.0934
   48MOL    H35 5769   3.665   3.456   0.883  0.2951  0.6271  1.1302
   48MOL    H36 5770   3.620   3.278   0.846 -2.0307  0.0480  0.5169
   48MOL    H37 5771   3.630   3.413   1.126 -0.6829 -1.3610  1.2412
   48MOL    C38 5772   3.592   3.206   1.105  0.5108  0.3750 -0.2066
   48MOL    C39 5773   3.601   3.206   1.257 -0.7544 -0.2050 -0.1901
   48MOL   Cl40 5774   3.613   3.038   1.317  0.0080 -0.6071  0.0214
   48MOL    H41 5775   3.642   3.122   1.058 -3.0619 -2.9121  1.5971
   48MOL    H42 5776   3.487   3.201   1.078  0.5357 -1.5982  0.0309
   48MOL    H43 5777   3.695   3.253   1.286  0.7136 -1.3909 -2.8633
   48MOL    C44 5778   3.481   3.280   1.321 -0.6712  0.3042 -0.2534
   48MOL    C45 5779   3.497   3.308   1.477  0.5821  0.1863  0.5262
   48MOL   Cl46 5780   3.339   3.367   1.537  0.0052 -0.1728  0.0173
   48MOL    H47 5781   3.399   3.218   1.284 -0.8081  1.8360 -2.6476
   48MOL    H48 5782   3.466   3.374   1.267  3.2108  1.2400  0.1543
   48MOL    H49 5783   3.519   3.222   1.539  0.2085 -0.9702 -0.9265
   48MOL    C50 5784   3.595   3.420   1.502  0.1503  0.4044  0.2645
   48MOL    C51 5785   3.619   3.460   1.649  0.8302 -0.5454 -0.3337
   48MOL   Cl52 5786   3.727   3.607   1.682  0.1326 -0.6043 -0.2826
   48MOL    H53 5787   3.565   3.509   1.447  2.0668  1.2474  0.5569
   48MOL    H54 5788   3.694   3.386   1.472 -0.0549 -1.2120  1.3525
   48MOL    H55 5789   3.521   3.495   1.681  1.0403 -0.1075 -0.1680
   48MOL    C56 5790   3.674   3.346   1.741  0.5770  0.9945 -0.0912
   48MOL    C57 5791   3.614   3.317   1.882 -0.5234 -0.1488  0.1514
   48MOL   Cl58 5792   3.441   3.291   1.863  0.4309 -0.0037 -0.1421
   48MOL    H59 5793   3.783   3.347   1.743  0.6672 -1.0999 -1.8944
   48MOL    H60 5794   3.654   3.256   1.682 -2.8901  2.0275 -0.6092
   48MOL    H61 5795   3.650   3.217   1.910 -3.2383 -1.1760  0.0721
   48MOL    C62 5796   3.642   3.419   1.985 -0.3551  0.7997  0.4728
   48MOL    C63 5797   3.657   3.356   2.123 -0.3866 -0.4752 -0.2853
   48MOL   Cl64 5798   3.504   3.268   2.175  0.0163  0.4030  0.0913
   48MOL    H65 5799   3.569   3.500   1.983  1.5543  2.5753  1.0061
   48MOL    H66 5800   3.738   3.466   1.965 -0.3783  1.7322  2.4002
   48MOL    H67 5801   3.739   3.284   2.130 -2.0384 -2.3941 -0.3837
   48MOL    C68 5802   3.698   3.464   2.222  0.1678 -0.1756  0.4749
   48MOL    C69 5803   3.736   3.413   2.368  0.3019 -0.2637  0.4940
   48MOL   Cl70 5804   3.753   3.563   2.461  0.1325  0.3046 -0.3431
   48MOL    H71 5805   3.609   3.525   2.236  0.4399  0.2016  0.5647
   48MOL    H72 5806   3.779   3.530   2.192 -1.2950  0.4638 -2.2077
   48MOL    H73 5807   3.653   3.349   2.395  0.0856 -0.7699 -1.3074
   48MOL    C74 5808   3.860   3.320   2.384  0.6625  0.1733  0.9584
   48MOL    C75 5809   3.900   3.278   2.523 -0.5506  0.5865  0.6808
   48MOL   Cl76 5810   4.078   3.245   2.513 -0.0602 -0.2459 -0.0735
   48MOL    H77 5811   3.947   3.377   2.352  1.0327 -0.6828  0.4155
   48MOL    H78 5812   3.861   3.229   2.324  2.9111  0.1857  0.9259
   48MOL    H79 5813   3.888   3.361   2.592 -2.5731  0.5600  0.3993
   48MOL    C80 5814   3.837   3.144   2.571  0.0878  1.0598  0.3039
   48MOL    C81 5815   3.706   3.171   2.640  0.0742  0.4104 -0.4505
   48MOL   Cl82 5816   3.731   3.236   2.805 -0.0771 -0.1168 -0.0015
   48MOL    H83 5817   3.895   3.103   2.654 -0.6758 -0.6749 -0.0023
   48MOL    H84 5818   3.825   3.072   2.490  0.5222  0.0618  1.1146
   48MOL    H85 5819   3.646   3.250   2.596  1.1404  1.3529 -0.2147
   48MOL    C86 5820   3.622   3.039   2.646  0.2122 -0.2164  0.4104
   48MOL    C87 5821   3.471   3.066   2.670 -0.4666  0.5422 -0.5684
   48MOL   Cl88 5822   3.412   3.141   2.525  0.0460 -0.1096 -0.0811
   48MOL    H89 5823   3.658   2.965   2.717 -1.2337 -1.3818 -0.0371
   48MOL    H90 5824   3.630   2.984   2.552 -1.8069 -1.4874  0.9481
   48MOL    H91 5825   3.425   2.968   2.681 -1.3528  0.8147 -1.7259
   48MOL    C92 5826   3.430   3.148   2.790  0.4887 -0.5730 -0.0665
   48MOL    C93 5827   3.473   3.106   2.933 -0.9231 -0.4953  1.5188
   48MOL   Cl94 5828   3.403   2.938   2.944  0.3420  0.4632  0.4267
   48MOL    H95 5829   3.321   3.142   2.794  0.5845 -3.4531 -0.6815
   48MOL    H96 5830   3.453   3.254   2.777 -1.2314  0.0181  1.5765
   48MOL    H97 5831   3.581   3.096   2.942 -0.6177 -0.2292 -1.1702
   48MOL    C98 5832   3.411   3.179   3.046 -0.2761  0.4299 -0.3269
   48MOL    C99 5833   3.462   3.321   3.074 -0.2406 -0.3155 -0.5584
   48MOL  Cl100 5834   3.638   3.310   3.102 -0.1089  0.0098 -0.0878
   48MOL   H101 5835   3.434   3.118   3.133  1.8637 -1.2031 -1.9861
   48MOL   H102 5836   3.304   3.201   3.041 -0.2337  0.5424 -0.8221
   48MOL   H103 5837   3.444   3.393   2.995  0.3062  0.4124 -0.0243
   48MOL   C104 5838   3.402   3.397   3.200  0.2812  0.2257  0.5292
   48MOL   C105 5839   3.251   3.414   3.194 -1.1463 -0.9122 -0.1771
   48MOL  Cl106 5840   3.185   3.467   3.042  0.2083 -0.3774  0.0250
   48MOL   H107 5841   3.450   3.495   3.211  1.1220 -0.0270 -0.7979
   48MOL   H108 5842   3.440   3.348   3.290  2.1982  1.5338  0.4671
   48MOL   H109 5843   3.208   3.314   3.206 -2.7595 -0.2537 -0.3133
   48MOL   C110 5844   3.189   3.496   3.301  0.1854  0.0469 -0.2062
   48MOL   C111 5845   3.210   3.442   3.445  0.1317 -0.2723 -0.4686
   48MOL  Cl112 5846   3.170   3.264   3.458 -0.1458  0.2892 -0.1717
   48MOL   H113 5847   3.084   3.510   3.277  0.1548  1.0843  0.5165
   48MOL   H114 5848   3.231   3.596   3.289  2.2496 -0.9516 -1.6858
   48MOL   H115 5849   3.316   3.452   3.465 -0.3019  1.3615  1.0916
   48MOL   C116 5850   3.135   3.526   3.559 -0.1421  0.1807 -1.1502
   48MOL   C117 5851   3.168   3.489   3.704  0.3328 -0.4311  0.7859
   48MOL  Cl118 5852   3.058   3.575   3.807  0.0942  0.1769 -0.1347
   48MOL   H119 5853   3.028   3.517   3.543 -0.2051  2.0201 -1.8093
   48MOL   H120 5854   3.166   3.629   3.545  0.8658  0.3557  1.8586
   48MOL   H121 5855   3.137   3.385   3.718  2.7270 -1.4370 -0.9980
   48MOL   H122 5856   3.270   3.499   3.741  1.4479 -0.2257 -2.2374
   49MOL     C1 5857   6.813   4.543   3.429 -0.5842 -0.1178  0.0646
   49MOL     C2 5858   6.814   4.661   3.522  0.1947  0.0816 -0.2680
   49MOL    Cl3 5859   6.745   4.800   3.448 -0.1023 -0.2708 -0.3749
   49MOL     H4 5860   6.844   4.585   3.333  1.1370 -0.0163  0.6582
   49MOL     H5 5861   6.887   4.470   3.459 -0.4072 -0.4765 -1.2522
   49MOL     H6 5862   6.746   4.641   3.605 -1.8879  1.0560 -1.6889
   49MOL     H7 5863   6.715   4.499   3.410 -0.0423 -1.6352  0.7705
   49MOL     C8 5864   6.951   4.703   3.578  0.1416  0.4159 -0.2120
   49MOL     C9 5865   6.946   4.778   3.710  0.5505 -0.1014 -0.8115
   49MOL   Cl10 5866   7.104   4.858   3.735 -0.0880 -0.1523  0.0505
   49MOL    H11 5867   6.990   4.763   3.497  1.8328 -0.4214 -0.0483
   49MOL    H12 5868   7.016   4.618   3.598 -0.8486 -0.3978 -0.4244
   49MOL    H13 5869   6.873   4.857   3.697 -0.1137 -0.0851  2.4672
   49MOL    C14 5870   6.902   4.706   3.845 -0.6937  0.0658  0.0894
   49MOL    C15 5871   6.859   4.803   3.961 -0.7553  0.2406 -0.9667
   49MOL   Cl16 5872   6.844   4.713   4.114  0.1898  0.2928 -0.2463
   49MOL    H17 5873   6.985   4.643   3.878 -1.1381  0.8698  2.8598
   49MOL    H18 5874   6.823   4.635   3.822 -1.2251  1.1693 -1.5708
   49MOL    H19 5875   6.935   4.879   3.979  1.2961 -2.3218  1.7056
   49MOL    C20 5876   6.720   4.865   3.938  0.3139 -0.1434  0.2586
   49MOL    C21 5877   6.690   4.985   4.038  0.1636 -0.6450  0.3999
   49MOL   Cl22 5878   6.515   5.001   4.066 -0.0424  0.3406 -0.2154
   49MOL    H23 5879   6.645   4.795   3.974  0.1951 -0.2120 -0.1285
   49MOL    H24 5880   6.698   4.873   3.832 -1.9798 -0.8402  0.6510
   49MOL    H25 5881   6.725   4.961   4.138  1.9853  2.4462  0.5896
   49MOL    C26 5882   6.760   5.116   3.993  0.6013 -0.0197  0.2423
   49MOL    C27 5883   6.712   5.183   3.858 -0.1442  0.7687  0.3849
   49MOL   Cl28 5884   6.815   5.127   3.715 -0.0628 -0.1231 -0.0213
   49MOL    H29 5885   6.866   5.097   3.975  0.7167  0.3827  0.5175
   49MOL    H30 5886   6.744   5.187   4.074 -2.9662 -0.3650 -0.0630
   49MOL    H31 5887   6.611   5.164   3.821  0.4595  1.0677 -1.5006
   49MOL    C32 5888   6.732   5.334   3.855 -0.1824 -0.2319  0.1849
   49MOL    C33 5889   6.619   5.432   3.898  0.2070  0.0887 -0.2427
   49MOL   Cl34 5890   6.605   5.437   4.079 -0.0878 -0.2647  0.1302
   49MOL    H35 5891   6.757   5.350   3.750  2.1557 -2.1786  0.3986
   49MOL    H36 5892   6.827   5.359   3.902 -0.3606 -2.1906  1.6627
   49MOL    H37 5893   6.648   5.528   3.855  2.5136 -1.9502 -3.4380
   49MOL    C38 5894   6.475   5.401   3.845  0.3170 -0.3736  0.4202
   49MOL    C39 5895   6.379   5.519   3.841  0.2543  0.0734 -0.0067
   49MOL   Cl40 5896   6.454   5.640   3.734  0.4631  0.1896  0.5173
   49MOL    H41 5897   6.435   5.312   3.896  0.5333  0.5331  2.2288
   49MOL    H42 5898   6.482   5.366   3.742  2.6240  0.5126  0.2576
   49MOL    H43 5899   6.301   5.476   3.779  0.0802 -1.0014  0.9378
   49MOL    C44 5900   6.327   5.585   3.963 -0.0438  0.4761 -0.5019
   49MOL    C45 5901   6.191   5.660   3.949 -0.3087 -0.6284  0.3554
   49MOL   Cl46 5902   6.221   5.823   3.876 -0.1093 -0.2158  0.0657
   49MOL    H47 5903   6.396   5.653   4.013  0.1432 -0.6004  0.7335
   49MOL    H48 5904   6.300   5.516   4.043 -1.6975  1.9538  0.2616
   49MOL    H49 5905   6.119   5.607   3.886 -0.2473 -0.8762  0.4948
   49MOL    C50 5906   6.140   5.684   4.090  0.9119  0.6361  0.0182
   49MOL    C51 5907   6.066   5.572   4.157  0.5124 -0.5769  0.9189
   49MOL   Cl52 5908   5.936   5.518   4.048  0.5517 -0.0832 -0.2100
   49MOL    H53 5909   6.073   5.770   4.094 -0.5483 -0.2529 -3.2603
   49MOL    H54 5910   6.219   5.708   4.161 -0.0987  1.9706  0.7042
   49MOL    H55 5911   6.128   5.483   4.166 -0.5684 -1.3608  0.7812
   49MOL    C56 5912   5.997   5.605   4.298 -0.3337 -0.1085 -0.0451
   49MOL    C57 5913   6.088   5.629   4.422 -0.1774  0.5769 -0.3156
   49MOL   Cl58 5914   6.212   5.500   4.431  0.4126  0.1600  0.0218
   49MOL    H59 5915   5.924   5.529   4.326  0.4089 -0.9044 -0.2457
   49MOL    H60 5916   5.937   5.695   4.291 -0.2795  0.0203  0.9759
   49MOL    H61 5917   6.143   5.723   4.415  1.7049 -0.3622  1.2448
   49MOL    C62 5918   6.013   5.629   4.552  0.6492 -0.2588  0.3808
   49MOL    C63 5919   6.089   5.671   4.684 -0.4946  0.2230 -0.4717
   49MOL   Cl64 5920   5.980   5.657   4.823 -0.4367  0.0883 -0.4394
   49MOL    H65 5921   5.979   5.527   4.564  0.6871 -0.3456 -0.2402
   49MOL    H66 5922   5.928   5.693   4.527  1.3272 -0.5071 -2.6828
   49MOL    H67 5923   6.160   5.589   4.698 -0.4528  0.0764 -1.5113
   49MOL    C68 5924   6.152   5.812   4.680  0.6400  0.1902  0.5618
   49MOL    C69 5925   6.266   5.844   4.775  0.1256 -1.0666  0.2810
   49MOL   Cl70 5926   6.319   6.013   4.740  0.0105  0.2578 -0.1313
   49MOL    H71 5927   6.072   5.885   4.688  0.1278 -0.3560  0.4642
   49MOL    H72 5928   6.197   5.824   4.582  0.5505 -1.4158  0.3087
   49MOL    H73 5929   6.237   5.817   4.876 -0.9659 -0.7862  0.0470
   49MOL    C74 5930   6.390   5.760   4.747  0.0348  0.2106 -0.4472
   49MOL    C75 5931   6.517   5.773   4.835 -0.0610  0.1121 -1.1643
   49MOL   Cl76 5932   6.471   5.791   5.006 -0.0700 -0.0470  0.1558
   49MOL    H77 5933   6.422   5.770   4.643  1.5739  0.2428  0.0085
   49MOL    H78 5934   6.363   5.655   4.758  0.2042 -0.0719 -2.5505
   49MOL    H79 5935   6.565   5.675   4.827 -1.4718 -0.5709 -1.4116
   49MOL    C80 5936   6.609   5.890   4.796  0.1205  0.2566  0.3085
   49MOL    C81 5937   6.752   5.866   4.838  0.1130 -0.7805  0.2901
   49MOL   Cl82 5938   6.845   6.022   4.820  0.1145 -0.1478 -0.3078
   49MOL    H83 5939   6.571   5.980   4.845 -0.7344  0.3385 -0.4919
   49MOL    H84 5940   6.602   5.912   4.690 -4.0145 -2.2282  0.0060
   49MOL    H85 5941   6.752   5.841   4.944  1.8345  1.4737  0.8724
   49MOL    C86 5942   6.823   5.758   4.746 -0.2321  0.1350 -0.1371
   49MOL    C87 5943   6.962   5.717   4.797  0.6808  0.0707 -0.4890
   49MOL   Cl88 5944   7.036   5.599   4.670  0.3622  0.3435  0.2455
   49MOL    H89 5945   6.835   5.805   4.648 -0.0504 -1.6980 -1.0087
   49MOL    H90 5946   6.765   5.671   4.717  0.5286 -0.4982  0.2154
   49MOL    H91 5947   7.025   5.807   4.794  2.1669 -0.9037  0.9475
   49MOL    C92 5948   6.959   5.631   4.925 -0.5820  0.7779 -0.2835
   49MOL    C93 5949   7.095   5.579   4.980 -0.2005  1.0279  0.4701
   49MOL   Cl94 5950   7.053   5.423   5.049  0.3427  0.1453 -0.4451
   49MOL    H95 5951   6.895   5.545   4.907 -0.3397 -0.1526  3.0693
   49MOL    H96 5952   6.915   5.689   5.006  0.2002  1.6151 -0.4486
   49MOL    H97 5953   7.171   5.559   4.905 -2.2536  0.3582 -1.4868
   49MOL    C98 5954   7.147   5.671   5.087  0.2317 -0.2607 -0.5731
   49MOL    C99 5955   7.282   5.641   5.143 -0.4188 -0.1370 -0.1155
   49MOL  Cl100 5956   7.311   5.743   5.290 -0.1099  0.6329 -0.0067
   49MOL   H101 5957   7.081   5.669   5.174  0.6724 -3.6388 -0.2356
   49MOL   H102 5958   7.152   5.772   5.045 -0.4955 -1.2279 -3.0915
   49MOL   H103 5959   7.278   5.542   5.189  2.3808  0.6086  1.9308
   49MOL   C104 5960   7.407   5.673   5.049 -0.5749 -0.2119 -0.0908
   49MOL   C105 5961   7.543   5.615   5.113  0.7764  0.1679  0.6171
   49MOL  Cl106 5962   7.678   5.693   5.024  0.2909 -0.3663 -0.0334
   49MOL   H107 5963   7.426   5.780   5.039  0.7988 -0.4328  0.0449
   49MOL   H108 5964   7.400   5.630   4.950 -1.4506  2.7406 -1.3492
   49MOL   H109 5965   7.557   5.638   5.218 -1.0050  0.2687  0.8548
   49MOL   C110 5966   7.552   5.461   5.104 -0.4121  0.0139 -0.5713
   49MOL   C111 5967   7.682   5.390   5.161  0.2152  0.0899 -0.1495
   49MOL  Cl112 5968   7.683   5.221   5.108  0.1747 -0.2895 -0.4269
   49MOL   H113 5969   7.540   5.431   5.000 -2.2046 -0.4419 -0.2472
   49MOL   H114 5970   7.464   5.428   5.160  0.1186 -0.5454 -0.0673
   49MOL   H115 5971   7.763   5.428   5.097 -0.1462 -1.1691 -1.3625
   49MOL   C116 5972   7.708   5.393   5.317  0.5974  0.3425 -0.5604
   49MOL   C117 5973   7.588   5.341   5.402 -0.2294  0.2670  0.4379
   49MOL  Cl118 5974   7.623   5.339   5.576 -0.4637  0.1158 -0.1492
   49MOL   H119 5975   7.734   5.494   5.348 -0.8806  0.8626 -0.9499
   49MOL   H120 5976   7.795   5.330   5.337  1.5732  0.9442 -2.8365
   49MOL   H121 5977   7.489   5.384   5.390  0.0166  1.0170  1.0493
   49MOL   H122 5978   7.589   5.236   5.375 -0.4198  0.1193  0.9982
   50MOL     C1 5979   2.960   3.072   7.336  0.0623 -0.5187  0.5583
   50MOL     C2 5980   2.959   2.928   7.278 -0.4905  0.5839  0.3865
   50MOL    Cl3 5981   3.122   2.864   7.330  0.0121 -0.0660 -0.2133
   50MOL     H4 5982   2.946   3.066   7.444 -0.1885  2.5414  0.7182
   50MOL     H5 5983   3.049   3.131   7.314  1.6650 -1.9065  3.0196
   50MOL     H6 5984   2.895   2.858   7.332  1.2340 -0.8951  0.5652
   50MOL     H7 5985   2.877   3.130   7.296 -1.2808 -1.4967  1.8541
   50MOL     C8 5986   2.937   2.919   7.130  0.1414 -0.4134  0.4019
   50MOL     C9 5987   2.936   2.779   7.064  0.0934 -0.1110  0.3847
   50MOL   Cl10 5988   2.931   2.806   6.891  0.0748 -0.1247  0.0775
   50MOL    H11 5989   3.022   2.967   7.082  1.1342 -3.3119 -0.8674
   50MOL    H12 5990   2.844   2.975   7.117 -1.2759 -1.9920  3.1207
   50MOL    H13 5991   3.033   2.734   7.086 -0.9726 -1.7026  1.9411
   50MOL    C14 5992   2.819   2.699   7.111  0.4262 -0.6050  0.0071
   50MOL    C15 5993   2.847   2.552   7.144  0.6885 -0.0176 -0.3633
   50MOL   Cl16 5994   2.972   2.531   7.269  0.0890 -0.1424  0.1825
   50MOL    H17 5995   2.735   2.709   7.043 -0.5069  1.3854  1.3981
   50MOL    H18 5996   2.779   2.744   7.202  0.8404 -2.2587  1.0324
   50MOL    H19 5997   2.754   2.507   7.179  0.6275 -0.0783 -0.6007
   50MOL    C20 5998   2.886   2.471   7.023 -0.5876  0.2685  0.0590
   50MOL    C21 5999   2.770   2.442   6.932  1.3354  0.3165 -0.7333
   50MOL   Cl22 6000   2.672   2.319   7.020 -0.1451  0.1834 -0.1309
   50MOL    H23 6001   2.915   2.376   7.067 -2.0916 -0.5187 -0.6179
   50MOL    H24 6002   2.976   2.507   6.973 -0.7084  0.9245  0.3101
   50MOL    H25 6003   2.706   2.529   6.918  0.1715 -0.2784  0.6984
   50MOL    C26 6004   2.816   2.395   6.796  0.1323  0.9433 -0.3005
   50MOL    C27 6005   2.881   2.490   6.702  0.0268 -0.2796  0.7684
   50MOL   Cl28 6006   2.748   2.605   6.654 -0.4615 -0.0596  0.0826
   50MOL    H29 6007   2.738   2.349   6.735  0.8731 -1.6197  0.6536
   50MOL    H30 6008   2.883   2.311   6.812 -0.8985 -0.0910 -1.3461
   50MOL    H31 6009   2.954   2.554   6.751 -0.0731  0.4647 -0.0423
   50MOL    C32 6010   2.928   2.423   6.563 -0.2441 -0.6260  0.1423
   50MOL    C33 6011   3.044   2.318   6.576  0.6133  0.0712 -0.9162
   50MOL   Cl34 6012   3.186   2.402   6.634 -0.1048  0.1722 -0.4415
   50MOL    H35 6013   2.957   2.494   6.486 -1.6115 -0.1816  0.0270
   50MOL    H36 6014   2.844   2.371   6.517  0.4990 -0.1169 -1.8695
   50MOL    H37 6015   3.026   2.239   6.649  0.4544 -0.2678 -1.3186
   50MOL    C38 6016   3.070   2.238   6.448  0.6936 -0.4005  0.2731
   50MOL    C39 6017   2.994   2.104   6.423 -0.4695  0.7169  0.5634
   50MOL   Cl40 6018   2.816   2.132   6.422  0.1143  0.0611  0.0862
   50MOL    H41 6019   3.173   2.212   6.422 -0.0530 -1.4974 -1.7257
   50MOL    H42 6020   3.036   2.292   6.360 -0.5572 -0.2323  0.8434
   50MOL    H43 6021   3.025   2.068   6.325  1.9517  0.0571  1.5370
   50MOL    C44 6022   3.029   1.986   6.513  0.0464  0.9414 -0.4673
   50MOL    C45 6023   2.985   1.840   6.472  0.2626 -0.3766  0.3668
   50MOL   Cl46 6024   2.804   1.813   6.478  0.1393 -0.1841 -0.2079
   50MOL    H47 6025   2.989   2.009   6.612  0.9639  0.0955  0.1061
   50MOL    H48 6026   3.137   1.992   6.524  0.2871 -3.1721  0.3000
   50MOL    H49 6027   3.013   1.826   6.367 -0.1905 -0.5641  0.2698
   50MOL    C50 6028   3.044   1.730   6.552 -0.3630  0.4694 -0.2889
   50MOL    C51 6029   3.192   1.690   6.557 -0.7002 -0.7484  0.1242
   50MOL   Cl52 6030   3.253   1.661   6.396  0.0816  0.1304 -0.0391
   50MOL    H53 6031   3.002   1.635   6.519 -1.7830 -0.5389  4.0277
   50MOL    H54 6032   2.993   1.723   6.648  2.1893 -1.2156  1.0398
   50MOL    H55 6033   3.242   1.777   6.599 -2.4001 -0.1271  0.9129
   50MOL    C56 6034   3.214   1.571   6.651 -0.0539 -0.8096  0.3032
   50MOL    C57 6035   3.329   1.581   6.757  0.3546  0.0452  0.4599
   50MOL   Cl58 6036   3.291   1.734   6.840  0.2580  0.0729 -0.3485
   50MOL    H59 6037   3.227   1.482   6.590  0.8463  0.3794 -1.2545
   50MOL    H60 6038   3.124   1.552   6.710  0.6108  0.2067  1.6819
   50MOL    H61 6039   3.328   1.499   6.829  1.6478 -0.0908  0.3339
   50MOL    C62 6040   3.475   1.588   6.702 -0.6710  0.0170 -0.1283
   50MOL    C63 6041   3.521   1.458   6.628 -0.1738 -0.1293 -0.5014
   50MOL   Cl64 6042   3.536   1.339   6.751 -0.2051  0.1567  0.1806
   50MOL    H65 6043   3.547   1.607   6.781  0.4622  1.7118 -1.5417
   50MOL    H66 6044   3.482   1.674   6.635 -1.8436  3.8846  4.4234
   50MOL    H67 6045   3.445   1.420   6.559 -0.1772  0.4264 -0.8049
   50MOL    C68 6046   3.651   1.487   6.549  0.4907  0.3903  0.2229
   50MOL    C69 6047   3.738   1.359   6.523  0.2857 -0.1373  0.6794
   50MOL   Cl70 6048   3.907   1.396   6.489 -0.2310 -0.1622  0.6751
   50MOL    H71 6049   3.707   1.564   6.603  1.0181  0.0138  0.2111
   50MOL    H72 6050   3.632   1.547   6.460  0.3990  0.6941  0.4460
   50MOL    H73 6051   3.747   1.301   6.615 -0.0288  1.3772  1.6678
   50MOL    C74 6052   3.671   1.275   6.407 -0.7249 -0.1211  0.0169
   50MOL    C75 6053   3.752   1.150   6.379  0.1755  0.3783  0.3706
   50MOL   Cl76 6054   3.702   1.093   6.219  0.3243  0.3673 -0.1807
   50MOL    H77 6055   3.649   1.337   6.321  0.5339 -0.9244 -0.8953
   50MOL    H78 6056   3.572   1.243   6.442 -0.5201 -0.8704 -0.0752
   50MOL    H79 6057   3.853   1.186   6.357  0.4562 -1.7523 -1.9904
   50MOL    C80 6058   3.744   1.050   6.499 -1.0336 -0.2441  0.0735
   50MOL    C81 6059   3.869   0.965   6.488  0.9982  0.0932 -0.1569
   50MOL   Cl82 6060   3.843   0.832   6.375 -0.1852 -0.0038 -0.0352
   50MOL    H83 6061   3.655   0.988   6.481  0.2368 -1.7484 -1.1990
   50MOL    H84 6062   3.745   1.099   6.596  0.2571 -1.2732  0.5900
   50MOL    H85 6063   3.952   1.026   6.452 -0.9317  2.1629 -1.2353
   50MOL    C86 6064   3.895   0.911   6.628 -0.0968  0.3036  1.1814
   50MOL    C87 6065   4.001   0.808   6.646 -0.9879  0.7607  0.1846
   50MOL   Cl88 6066   4.013   0.766   6.817 -0.2128 -0.3293 -0.3088
   50MOL    H89 6067   3.801   0.876   6.671 -0.4017  1.5134  1.5212
   50MOL    H90 6068   3.923   1.000   6.685 -1.6830  2.6466 -1.6114
   50MOL    H91 6069   3.973   0.711   6.606  0.5630  0.8521 -1.1757
   50MOL    C92 6070   4.141   0.842   6.582  0.1422  0.5497  0.2781
   50MOL    C93 6071   4.266   0.778   6.638  0.2790  0.2252 -0.2425
   50MOL   Cl94 6072   4.402   0.828   6.536 -0.6300  0.2661  0.6462
   50MOL    H95 6073   4.161   0.949   6.574 -1.5585  0.9253  0.8764
   50MOL    H96 6074   4.142   0.810   6.478 -1.7882  0.6069  0.2247
   50MOL    H97 6075   4.287   0.818   6.737  1.0341  1.2210 -0.7948
   50MOL    C98 6076   4.251   0.621   6.643  0.1650  0.0415 -0.1726
   50MOL    C99 6077   4.380   0.546   6.684 -0.4618  0.4653 -0.5846
   50MOL  Cl100 6078   4.369   0.372   6.647 -0.0073  0.0044 -0.3792
   50MOL   H101 6079   4.208   0.575   6.554 -0.8491  0.1467  0.2545
   50MOL   H102 6080   4.184   0.611   6.728 -1.0443  0.1619 -1.0873
   50MOL   H103 6081   4.465   0.585   6.627 -1.5769  0.2014 -2.4682
   50MOL   C104 6082   4.424   0.561   6.831  0.4138 -0.0025  0.5967
   50MOL   C105 6083   4.552   0.648   6.843 -0.6948  0.1438 -0.3813
   50MOL  Cl106 6084   4.676   0.530   6.809 -0.1731  0.0553  0.0100
   50MOL   H107 6085   4.436   0.471   6.891  2.2861 -0.0760  0.1438
   50MOL   H108 6086   4.349   0.616   6.887  0.0331  0.5576 -0.4375
   50MOL   H109 6087   4.552   0.730   6.770  1.6229 -1.2009 -1.9564
   50MOL   C110 6088   4.579   0.705   6.988 -0.1402 -0.0984  0.3224
   50MOL   C111 6089   4.580   0.612   7.107  0.2359  0.0296 -0.0390
   50MOL  Cl112 6090   4.421   0.570   7.150  0.2461  0.0026  0.0912
   50MOL   H113 6091   4.510   0.788   6.998 -0.5948 -0.3958 -0.2971
   50MOL   H114 6092   4.673   0.757   6.973 -0.7166  0.7216 -0.5269
   50MOL   H115 6093   4.620   0.518   7.068 -2.2396 -0.5648 -1.2832
   50MOL   C116 6094   4.639   0.681   7.233 -0.1243 -0.5709  0.2333
   50MOL   C117 6095   4.648   0.591   7.350 -0.1525  0.8386  0.2863
   50MOL  Cl118 6096   4.745   0.671   7.476  0.2380  0.0488  0.0088
   50MOL   H119 6097   4.585   0.772   7.262  0.0413 -0.8319  1.4203
   50MOL   H120 6098   4.740   0.711   7.207  0.8860  0.2933  4.6988
   50MOL   H121 6099   4.551   0.571   7.395 -0.1113 -2.5767 -0.9651
   50MOL   H122 6100   4.701   0.495   7.340 -2.2436 -0.2699 -0.4602
   51MOL     C1 6101   3.703   2.458   3.619  0.3292 -0.6854 -0.3658
   51MOL     C2 6102   3.761   2.597   3.667  0.7369 -0.0265  0.3359
   51MOL    Cl3 6103   3.832   2.685   3.525  0.1845  0.0707 -0.4345
   51MOL     H4 6104   3.614   2.479   3.559 -0.9229 -0.7779  1.4291
   51MOL     H5 6105   3.768   2.392   3.562 -1.1694 -2.2079 -0.3415
   51MOL     H6 6106   3.676   2.656   3.702  1.3545  2.3211 -1.9141
   51MOL     H7 6107   3.675   2.403   3.709 -1.9268  0.3662 -0.3766
   51MOL     C8 6108   3.861   2.579   3.780  0.0741  0.4799  0.3331
   51MOL     C9 6109   3.811   2.592   3.918 -0.1028 -0.0478  0.0844
   51MOL   Cl10 6110   3.743   2.756   3.943  0.1483 -0.3536  0.1195
   51MOL    H11 6111   3.944   2.645   3.757  0.4716  0.1869  0.9399
   51MOL    H12 6112   3.890   2.474   3.767 -1.0627  0.3170 -1.0879
   51MOL    H13 6113   3.727   2.525   3.932  0.3314 -0.4631  0.7544
   51MOL    C14 6114   3.919   2.562   4.017  0.1419 -0.0591  0.4442
   51MOL    C15 6115   3.880   2.540   4.164 -0.3381 -0.3276  0.2460
   51MOL   Cl16 6116   4.030   2.541   4.263  0.1733 -0.2462  0.0266
   51MOL    H17 6117   4.000   2.633   4.005  0.6214 -0.5181  0.9664
   51MOL    H18 6118   3.973   2.474   3.982  0.4712  0.6002 -0.7427
   51MOL    H19 6119   3.813   2.621   4.191 -1.7819 -1.7020  0.9144
   51MOL    C20 6120   3.807   2.403   4.192 -0.9000  0.7776 -0.4572
   51MOL    C21 6121   3.730   2.393   4.323  0.4449  0.1557  1.2216
   51MOL   Cl22 6122   3.834   2.377   4.460 -0.4138  0.0823 -0.1115
   51MOL    H23 6123   3.879   2.321   4.197  1.0211  2.4181 -0.2152
   51MOL    H24 6124   3.744   2.388   4.104 -2.5533  1.8280  0.5269
   51MOL    H25 6125   3.671   2.485   4.325  0.0695 -0.0707  0.6899
   51MOL    C26 6126   3.617   2.280   4.325  0.0217 -0.2749  0.2953
   51MOL    C27 6127   3.499   2.299   4.226  0.1319  0.1689  0.6805
   51MOL   Cl28 6128   3.391   2.427   4.279 -0.2109  0.2589 -0.0287
   51MOL    H29 6129   3.575   2.274   4.425  0.4181 -3.3945  0.3198
   51MOL    H30 6130   3.667   2.188   4.295  0.3466  0.5170 -1.6849
   51MOL    H31 6131   3.530   2.337   4.129  1.0205  0.2441  0.9881
   51MOL    C32 6132   3.427   2.164   4.230  0.7053 -0.0370 -0.1552
   51MOL    C33 6133   3.477   2.053   4.141  0.1778  0.7595 -0.2355
   51MOL   Cl34 6134   3.469   2.108   3.972 -0.1576 -0.3032 -0.1237
   51MOL    H35 6135   3.324   2.186   4.202  0.4170 -1.9206 -0.6877
   51MOL    H36 6136   3.436   2.122   4.330 -1.0554 -1.2587 -0.4816
   51MOL    H37 6137   3.582   2.037   4.165  0.5712  1.7596 -1.2482
   51MOL    C38 6138   3.389   1.927   4.144  0.7771  0.1285  0.3421
   51MOL    C39 6139   3.444   1.785   4.108  1.1830 -0.5512 -0.5479
   51MOL   Cl40 6140   3.579   1.752   4.219  0.4161 -0.1592  0.0564
   51MOL    H41 6141   3.296   1.938   4.089 -0.6154  1.6668  2.9263
   51MOL    H42 6142   3.355   1.918   4.247  0.2421 -3.2395 -0.0442
   51MOL    H43 6143   3.373   1.706   4.131  1.6386 -0.2697  1.9790
   51MOL    C44 6144   3.497   1.765   3.968  0.2058  0.4579  0.5971
   51MOL    C45 6145   3.404   1.784   3.847 -0.2807 -0.6068  0.3917
   51MOL   Cl46 6146   3.302   1.640   3.825 -0.1491  0.2874  0.2004
   51MOL    H47 6147   3.554   1.674   3.951  1.0604  1.3718 -1.6186
   51MOL    H48 6148   3.571   1.844   3.954  0.8458 -0.4138 -1.1908
   51MOL    H49 6149   3.326   1.861   3.854  0.1383 -0.1695  0.2367
   51MOL    C50 6150   3.472   1.807   3.712 -0.0251  0.0300  0.6902
   51MOL    C51 6151   3.379   1.850   3.601  0.7351  0.1623 -0.0720
   51MOL   Cl52 6152   3.466   1.847   3.445 -0.0140  0.0630 -0.0605
   51MOL    H53 6153   3.528   1.721   3.676  0.5194  0.6163  0.1277
   51MOL    H54 6154   3.556   1.876   3.721  0.3718 -0.3591  0.0288
   51MOL    H55 6155   3.289   1.789   3.602  0.4241  0.6093 -0.4179
   51MOL    C56 6156   3.330   1.997   3.615  0.1190  0.1124  0.5717
   51MOL    C57 6157   3.264   2.069   3.492 -0.1978 -0.7062 -0.4864
   51MOL   Cl58 6158   3.250   2.245   3.532 -0.0535 -0.0272  0.1188
   51MOL    H59 6159   3.416   2.056   3.646 -0.1503  0.2707  1.0183
   51MOL    H60 6160   3.257   2.004   3.696  0.5542  0.2515  0.9490
   51MOL    H61 6161   3.336   2.071   3.411  0.5447  0.5405  0.1846
   51MOL    C62 6162   3.128   2.010   3.457  0.9584 -0.2720  0.7595
   51MOL    C63 6163   3.065   2.056   3.321 -0.3799  0.3205 -0.6105
   51MOL   Cl64 6164   2.904   1.971   3.326 -0.0390  0.0273 -0.1220
   51MOL    H65 6165   3.055   2.041   3.531 -0.8880 -1.9870 -0.3144
   51MOL    H66 6166   3.141   1.902   3.459  0.1853 -0.3686  0.6304
   51MOL    H67 6167   3.034   2.161   3.330 -0.8864  0.2610 -1.6106
   51MOL    C68 6168   3.145   2.025   3.194 -0.5413 -0.0986  0.3405
   51MOL    C69 6169   3.230   2.144   3.133 -0.9432 -0.5234  0.0323
   51MOL   Cl70 6170   3.110   2.275   3.098 -0.2828 -0.5116 -0.0383
   51MOL    H71 6171   3.074   1.996   3.117  0.3543 -3.0494  0.5697
   51MOL    H72 6172   3.203   1.933   3.201  0.2787  0.5435  2.5054
   51MOL    H73 6173   3.294   2.179   3.213 -1.1982  0.4132 -0.1721
   51MOL    C74 6174   3.302   2.103   3.003 -0.1912 -0.2721  0.2942
   51MOL    C75 6175   3.420   2.006   3.014 -0.5823 -0.0397  0.4173
   51MOL   Cl76 6176   3.531   2.035   3.152 -0.0931 -0.0298  0.3775
   51MOL    H77 6177   3.335   2.195   2.956 -0.3285 -0.1683  0.4021
   51MOL    H78 6178   3.226   2.064   2.935  0.3157 -1.3544  0.3307
   51MOL    H79 6179   3.378   1.910   3.044  1.8516 -1.0395  0.7107
   51MOL    C80 6180   3.502   1.981   2.883  0.2403 -0.0767  0.4166
   51MOL    C81 6181   3.602   1.861   2.888 -0.0033 -0.2880 -0.5067
   51MOL   Cl82 6182   3.761   1.922   2.937 -0.0890  0.3336 -0.3241
   51MOL    H83 6183   3.563   2.069   2.860  2.5752 -1.6871  0.3323
   51MOL    H84 6184   3.425   1.957   2.809 -0.2965 -0.1403  0.9926
   51MOL    H85 6185   3.574   1.785   2.962  0.6486 -1.0860 -1.0762
   51MOL    C86 6186   3.617   1.792   2.749 -0.5984 -0.6797 -0.4413
   51MOL    C87 6187   3.709   1.669   2.736 -0.1662 -0.6601 -0.5431
   51MOL   Cl88 6188   3.739   1.642   2.563  0.4855 -0.0200 -0.2230
   51MOL    H89 6189   3.657   1.872   2.687  1.5976 -0.7218  0.8376
   51MOL    H90 6190   3.521   1.775   2.702 -1.5905 -0.4260  1.4280
   51MOL    H91 6191   3.806   1.692   2.780  0.4856  0.0546 -2.2913
   51MOL    C92 6192   3.646   1.538   2.777 -0.1828 -1.3330  0.1530
   51MOL    C93 6193   3.746   1.425   2.792 -0.0134 -0.1310  0.5657
   51MOL   Cl94 6194   3.662   1.270   2.819 -0.1293 -0.1018 -0.3877
   51MOL    H95 6195   3.570   1.516   2.703 -0.4150 -0.6341  0.1840
   51MOL    H96 6196   3.584   1.566   2.862 -0.1597  0.1323 -0.3076
   51MOL    H97 6197   3.793   1.415   2.694 -2.0725 -1.4097 -0.3299
   51MOL    C98 6198   3.863   1.451   2.899  0.6020  0.4231 -0.2336
   51MOL    C99 6199   3.945   1.332   2.942  0.1073 -0.4240 -0.1680
   51MOL  Cl100 6200   4.059   1.389   3.076 -0.0474  0.2698 -0.1212
   51MOL   H101 6201   3.828   1.502   2.989 -0.2949 -0.2406 -0.1959
   51MOL   H102 6202   3.937   1.522   2.863  0.0812  0.8788 -0.4188
   51MOL   H103 6203   3.880   1.253   2.979  0.4357 -1.1116 -1.0403
   51MOL   C104 6204   4.034   1.282   2.826 -0.7351 -0.3948  0.8274
   51MOL   C105 6205   4.006   1.135   2.786 -0.3670  0.0815 -0.0701
   51MOL  Cl106 6206   4.039   1.020   2.919  0.5305 -0.3031 -0.5996
   51MOL   H107 6207   4.139   1.265   2.850  0.3806  1.1744 -2.7159
   51MOL   H108 6208   4.042   1.350   2.741  0.7788 -0.1146  1.1829
   51MOL   H109 6209   3.903   1.117   2.757  0.1435 -1.5502 -0.9549
   51MOL   C110 6210   4.086   1.094   2.655  0.3043 -0.3463 -0.5524
   51MOL   C111 6211   4.236   1.078   2.682  0.0379  0.5222 -0.7081
   51MOL  Cl112 6212   4.323   1.224   2.633 -0.1309 -0.2603 -0.1805
   51MOL   H113 6213   4.082   1.162   2.570  0.0506  0.4457  0.0852
   51MOL   H114 6214   4.038   1.004   2.618  1.8310 -1.1309 -0.6476
   51MOL   H115 6215   4.245   1.077   2.791  0.5604  1.0544 -0.7391
   51MOL   C116 6216   4.304   0.949   2.629  0.6285 -0.0078  0.2001
   51MOL   C117 6217   4.253   0.815   2.694 -0.0765  0.3662 -0.6248
   51MOL  Cl118 6218   4.311   0.679   2.611  0.0951  0.0934 -0.4638
   51MOL   H119 6219   4.412   0.949   2.645  0.4557  3.1803  1.8127
   51MOL   H120 6220   4.291   0.931   2.523 -2.4324  0.4287  0.4419
   51MOL   H121 6221   4.286   0.788   2.795 -1.7669 -1.2306 -0.4768
   51MOL   H122 6222   4.145   0.814   2.689 -0.3199  0.3856  2.8482
   52MOL     C1 6223   2.781   6.594   3.118 -0.0441  0.9037 -0.0043
   52MOL     C2 6224   2.911   6.527   3.079 -0.1749 -0.0313  0.5252
   52MOL    Cl3 6225   3.025   6.655   3.031 -0.3325  0.1505 -0.3099
   52MOL     H4 6226   2.804   6.689   3.166  0.1375  0.1065  1.4968
   52MOL     H5 6227   2.715   6.624   3.036  2.2333 -1.6503 -2.9388
   52MOL     H6 6228   2.964   6.473   3.157 -1.0086 -1.9275 -0.2128
   52MOL     H7 6229   2.730   6.528   3.187  1.1014 -1.1760 -1.0921
   52MOL     C8 6230   2.890   6.452   2.942  0.4719  0.9961  0.4217
   52MOL     C9 6231   2.813   6.323   2.956 -0.7266  0.3481 -0.7805
   52MOL   Cl10 6232   2.911   6.220   3.067  0.0602  0.3644  0.0180
   52MOL    H11 6233   2.981   6.434   2.884 -0.9610 -1.0333 -1.2870
   52MOL    H12 6234   2.832   6.522   2.882 -0.8111 -0.8250 -0.5091
   52MOL    H13 6235   2.726   6.348   3.017 -0.7606 -1.2148 -0.1607
   52MOL    C14 6236   2.777   6.237   2.834  0.8445  0.5777  0.1082
   52MOL    C15 6237   2.688   6.297   2.731 -0.3454  0.9170 -0.2029
   52MOL   Cl16 6238   2.531   6.343   2.794 -0.0783 -0.0096  0.1205
   52MOL    H17 6239   2.724   6.147   2.865 -0.8819  1.6691  0.3430
   52MOL    H18 6240   2.864   6.202   2.778  0.7389  1.5275 -0.6654
   52MOL    H19 6241   2.731   6.389   2.693 -1.3289  1.1701 -0.7316
   52MOL    C20 6242   2.653   6.204   2.613 -0.5438 -0.9955 -0.0085
   52MOL    C21 6243   2.775   6.158   2.536  0.2068  0.5940  0.0643
   52MOL   Cl22 6244   2.839   6.293   2.438  0.2854  0.2017  0.2553
   52MOL    H23 6245   2.581   6.253   2.548  0.2912 -1.3547 -1.2059
   52MOL    H24 6246   2.595   6.121   2.654 -0.7228 -0.0322  1.7549
   52MOL    H25 6247   2.858   6.123   2.596  0.3542 -0.6095 -0.8170
   52MOL    C26 6248   2.758   6.032   2.453 -0.0855  0.0201  0.4217
   52MOL    C27 6249   2.629   6.040   2.357 -0.1548 -0.2401  0.8040
   52MOL   Cl28 6250   2.479   5.995   2.432  0.0568 -0.1834 -0.2361
   52MOL    H29 6251   2.745   5.946   2.519 -0.0784 -1.2907 -1.2320
   52MOL    H30 6252   2.854   6.011   2.404 -0.7645 -1.5820 -0.2520
   52MOL    H31 6253   2.606   6.143   2.331  0.2087  0.4296  2.9868
   52MOL    C32 6254   2.637   5.957   2.230  0.4210  0.2719  0.0188
   52MOL    C33 6255   2.722   6.017   2.119 -0.0571 -0.2961  0.4277
   52MOL   Cl34 6256   2.668   6.185   2.088 -0.3107  0.3047 -0.1138
   52MOL    H35 6257   2.535   5.944   2.193  0.5300 -0.5426 -0.0064
   52MOL    H36 6258   2.665   5.854   2.255 -1.0575 -0.4096 -1.0375
   52MOL    H37 6259   2.825   6.024   2.153  1.0083 -1.8301 -2.2437
   52MOL    C38 6260   2.720   5.936   1.988  0.0740 -0.5829 -0.1456
   52MOL    C39 6261   2.799   5.800   1.998  0.4697 -0.1908 -0.4338
   52MOL   Cl40 6262   2.976   5.828   2.011 -0.2386  0.0905  0.3742
   52MOL    H41 6263   2.779   5.984   1.910  0.5752 -1.9663 -0.6342
   52MOL    H42 6264   2.619   5.933   1.946  0.4424 -0.0593 -1.0981
   52MOL    H43 6265   2.773   5.739   2.085 -0.2658  0.4746 -0.1853
   52MOL    C44 6266   2.772   5.722   1.869  0.0154 -0.1584  0.0009
   52MOL    C45 6267   2.639   5.644   1.878  0.2317  0.4534 -0.2976
   52MOL   Cl46 6268   2.656   5.526   2.015  0.1147  0.0578 -0.2371
   52MOL    H47 6269   2.849   5.652   1.838  1.2860  0.5136  1.5254
   52MOL    H48 6270   2.746   5.796   1.793  0.3969  0.9160  0.8888
   52MOL    H49 6271   2.558   5.714   1.897  0.2576  0.7251 -1.1562
   52MOL    C50 6272   2.618   5.554   1.754  0.2489 -0.7291  0.0052
   52MOL    C51 6273   2.471   5.543   1.710  1.6581 -0.3872 -0.2982
   52MOL   Cl52 6274   2.387   5.452   1.842 -0.0161  0.0416 -0.2764
   52MOL    H53 6275   2.660   5.454   1.750 -0.7614 -1.1605  0.0845
   52MOL    H54 6276   2.677   5.608   1.681  0.0820  0.3628  0.6584
   52MOL    H55 6277   2.427   5.642   1.700  1.0122 -0.7451 -1.0970
   52MOL    C56 6278   2.441   5.473   1.568  0.2519  0.1995 -0.7899
   52MOL    C57 6279   2.535   5.536   1.452  0.3699  0.0873  0.3715
   52MOL   Cl58 6280   2.539   5.719   1.458  0.0868  0.1166  0.0412
   52MOL    H59 6281   2.336   5.497   1.556 -0.4868 -1.1257  2.4265
   52MOL    H60 6282   2.449   5.365   1.582  1.6772  0.6664  2.4843
   52MOL    H61 6283   2.628   5.512   1.505 -0.4987 -2.0188  1.0040
   52MOL    C62 6284   2.523   5.472   1.314 -0.5592  0.0436  0.5988
   52MOL    C63 6285   2.652   5.441   1.230 -0.0437 -0.7704  0.2487
   52MOL   Cl64 6286   2.606   5.435   1.057  0.5642 -0.1236  0.2634
   52MOL    H65 6287   2.448   5.532   1.263  0.5886  1.1667  0.2049
   52MOL    H66 6288   2.468   5.379   1.326 -1.5075  0.7067  1.4713
   52MOL    H67 6289   2.728   5.518   1.245 -0.2368 -0.3005 -1.0713
   52MOL    C68 6290   2.723   5.305   1.257 -0.2782 -0.2549  1.0159
   52MOL    C69 6291   2.815   5.297   1.381 -0.6389 -0.3251 -0.7669
   52MOL   Cl70 6292   2.713   5.270   1.531  0.0408  0.2849  0.0591
   52MOL    H71 6293   2.794   5.284   1.177 -0.4121  1.3904  0.4518
   52MOL    H72 6294   2.657   5.219   1.264  1.6415 -1.9189 -0.4780
   52MOL    H73 6295   2.887   5.217   1.370 -0.6685 -0.3908 -0.4872
   52MOL    C74 6296   2.899   5.430   1.400  0.2777 -0.1124  0.2986
   52MOL    C75 6297   3.018   5.411   1.501 -0.0224 -0.2037 -0.2143
   52MOL   Cl76 6298   2.957   5.470   1.659  0.1125  0.0429 -0.0762
   52MOL    H77 6299   2.837   5.511   1.438  0.1758 -0.6563  1.2965
   52MOL    H78 6300   2.947   5.466   1.309 -0.2905 -1.5601 -0.5964
   52MOL    H79 6301   3.043   5.306   1.517  0.0706 -0.1339  0.1040
   52MOL    C80 6302   3.138   5.497   1.478  0.0690  0.4463  0.2040
   52MOL    C81 6303   3.278   5.451   1.527 -0.0903 -0.2554  0.1678
   52MOL   Cl82 6304   3.316   5.285   1.467 -0.3459 -0.3458  0.1063
   52MOL    H83 6305   3.123   5.600   1.510 -1.4281  0.3228 -0.0486
   52MOL    H84 6306   3.147   5.509   1.370  0.4030  0.9841  0.2959
   52MOL    H85 6307   3.340   5.520   1.471  1.5197 -0.3851  1.7611
   52MOL    C86 6308   3.314   5.455   1.679  0.0314 -0.6244 -0.0434
   52MOL    C87 6309   3.457   5.407   1.714  0.1648  0.3247 -0.0012
   52MOL   Cl88 6310   3.444   5.327   1.878  0.1102  0.1838 -0.2477
   52MOL    H89 6311   3.241   5.405   1.744 -0.3397  1.9180  1.5543
   52MOL    H90 6312   3.296   5.557   1.713 -0.4238 -0.4100 -0.9160
   52MOL    H91 6313   3.487   5.334   1.639  0.4565  0.8341 -0.3876
   52MOL    C92 6314   3.555   5.523   1.717 -0.4449 -0.5061 -0.3329
   52MOL    C93 6315   3.695   5.495   1.756 -0.7208  0.1551  0.4840
   52MOL   Cl94 6316   3.779   5.646   1.783  0.4594 -0.1802  0.0673
   52MOL    H95 6317   3.521   5.595   1.792 -0.3149  0.7354 -1.4469
   52MOL    H96 6318   3.553   5.566   1.617  1.5681  0.6126  0.0638
   52MOL    H97 6319   3.698   5.453   1.857 -1.3011  1.2239  0.9546
   52MOL    C98 6320   3.782   5.410   1.661  0.0936 -0.7319 -0.4790
   52MOL    C99 6321   3.932   5.375   1.695  0.1267 -0.4823 -0.3380
   52MOL  Cl100 6322   4.003   5.316   1.542 -0.0556 -0.1330  0.5915
   52MOL   H101 6323   3.769   5.467   1.568  1.8096 -0.4689 -0.5665
   52MOL   H102 6324   3.744   5.309   1.642 -0.7326 -0.4082 -0.5678
   52MOL   H103 6325   3.991   5.466   1.707  0.2099 -0.7100  1.0242
   52MOL   C104 6326   3.967   5.273   1.809  0.4144 -0.4928 -0.4722
   52MOL   C105 6327   3.907   5.310   1.954 -0.7339 -0.3811  0.2827
   52MOL  Cl106 6328   3.955   5.477   2.000  0.0243  0.0106 -0.1125
   52MOL   H107 6329   4.075   5.261   1.814  0.4688  0.6116  1.1214
   52MOL   H108 6330   3.930   5.172   1.794 -0.3630 -0.4633  1.1597
   52MOL   H109 6331   3.798   5.303   1.955 -0.9483  1.0182 -3.8881
   52MOL   C110 6332   3.969   5.223   2.069  0.3294 -0.0337  0.0861
   52MOL   C111 6333   3.936   5.074   2.059  0.6524  0.2928 -0.3999
   52MOL  Cl112 6334   3.759   5.048   2.038 -0.2152  0.2234 -0.1035
   52MOL   H113 6335   3.932   5.260   2.165 -0.1182 -0.4375  0.0708
   52MOL   H114 6336   4.073   5.255   2.072  0.6815 -1.2435  1.1107
   52MOL   H115 6337   3.983   5.029   1.971 -1.4880 -3.0930  0.1105
   52MOL   C116 6338   3.987   4.997   2.184  0.0429 -0.3528  0.4868
   52MOL   C117 6339   3.978   4.842   2.166  0.1502 -0.3758  0.1333
   52MOL  Cl118 6340   4.111   4.781   2.062  0.0375  0.0517  0.0553
   52MOL   H119 6341   3.935   5.036   2.272 -0.8498 -2.1712  0.7764
   52MOL   H120 6342   4.093   5.020   2.199 -0.1921  2.4236 -1.7326
   52MOL   H121 6343   3.986   4.787   2.260  0.7364 -1.8725 -0.7860
   52MOL   H122 6344   3.882   4.818   2.121  0.4192 -1.0659 -0.0775
   53MOL     C1 6345   7.706   6.002   0.370 -0.2838 -0.2277 -0.3935
   53MOL     C2 6346   7.602   5.930   0.294  0.5733 -0.1474 -0.1275
   53MOL    Cl3 6347   7.607   5.980   0.127 -0.1963  0.1708  0.3412
   53MOL     H4 6348   7.802   5.990   0.320 -1.5321  0.8564 -3.1551
   53MOL     H5 6349   7.685   6.109   0.379 -0.3334 -0.3573  1.2271
   53MOL     H6 6350   7.628   5.825   0.279  0.6597 -0.2689  0.8414
   53MOL     H7 6351   7.699   5.973   0.475 -2.1409 -0.2308 -0.5033
   53MOL     C8 6352   7.458   5.952   0.351  0.0733  0.1369 -0.4409
   53MOL     C9 6353   7.435   5.857   0.469 -0.2312  0.1667  0.1037
   53MOL   Cl10 6354   7.392   5.694   0.411 -0.4615  0.0303 -0.2042
   53MOL    H11 6355   7.384   5.960   0.272 -0.0653  0.5407 -0.2694
   53MOL    H12 6356   7.445   6.052   0.394 -1.6442 -0.5618  0.7205
   53MOL    H13 6357   7.523   5.847   0.532 -1.2171 -3.3117  1.0071
   53MOL    C14 6358   7.314   5.903   0.558 -0.2961  0.0385  0.0575
   53MOL    C15 6359   7.312   5.854   0.705 -0.1281  0.2083  0.3612
   53MOL   Cl16 6360   7.461   5.904   0.775 -0.0348 -0.3519 -0.1228
   53MOL    H17 6361   7.221   5.906   0.503 -0.1693  0.7065 -0.1338
   53MOL    H18 6362   7.321   6.012   0.566  2.1695 -0.1331  0.5709
   53MOL    H19 6363   7.235   5.911   0.758 -0.2536 -1.1243  1.6418
   53MOL    C20 6364   7.292   5.699   0.724  0.2010 -0.7161 -0.0622
   53MOL    C21 6365   7.155   5.633   0.677  0.5909  0.2940 -0.1961
   53MOL   Cl22 6366   7.011   5.735   0.719  0.0564  0.0058  0.3574
   53MOL    H23 6367   7.300   5.675   0.830 -0.6868  0.2198  0.2300
   53MOL    H24 6368   7.371   5.632   0.690 -0.3751 -0.8318 -1.2062
   53MOL    H25 6369   7.153   5.631   0.568  0.5307  1.9253 -0.2434
   53MOL    C26 6370   7.123   5.488   0.728  0.0442 -0.5429 -1.0495
   53MOL    C27 6371   7.224   5.380   0.702  0.0758 -0.2707  0.5608
   53MOL   Cl28 6372   7.299   5.398   0.542  0.0349  0.3146 -0.2356
   53MOL    H29 6373   7.027   5.458   0.687  0.0479 -0.6608 -0.9743
   53MOL    H30 6374   7.102   5.489   0.835  0.6870  0.2150 -0.9201
   53MOL    H31 6375   7.303   5.406   0.772 -0.7364  0.6756  1.1440
   53MOL    C32 6376   7.171   5.238   0.720 -0.4033  0.7387  0.5121
   53MOL    C33 6377   7.282   5.125   0.687  1.1404 -0.0566  0.6316
   53MOL   Cl34 6378   7.210   4.964   0.722 -0.4068 -0.3070  0.0264
   53MOL    H35 6379   7.081   5.234   0.658  1.0001  0.5387 -1.5708
   53MOL    H36 6380   7.133   5.223   0.821  0.5411  2.5196  1.1485
   53MOL    H37 6381   7.321   5.125   0.585 -1.3286  1.1210 -0.3756
   53MOL    C38 6382   7.403   5.149   0.783 -0.5458 -0.1056  0.2991
   53MOL    C39 6383   7.510   5.040   0.761  0.0888  0.1474  0.6328
   53MOL   Cl40 6384   7.637   5.064   0.887  0.2661  0.1581  0.2169
   53MOL    H41 6385   7.377   5.161   0.888  0.4681 -0.9644  0.6616
   53MOL    H42 6386   7.452   5.243   0.756  0.7203 -1.1701 -1.2376
   53MOL    H43 6387   7.468   4.943   0.789 -0.8648 -0.2108 -1.9426
   53MOL    C44 6388   7.592   5.043   0.627 -0.2326  0.1493  0.1867
   53MOL    C45 6389   7.683   4.921   0.607 -0.2368 -0.0024 -0.3085
   53MOL   Cl46 6390   7.832   4.983   0.530 -0.0150 -0.0226  0.1925
   53MOL    H47 6391   7.659   5.129   0.617  1.2716 -0.8695  1.1854
   53MOL    H48 6392   7.529   5.068   0.542  0.5711  0.5735 -0.2867
   53MOL    H49 6393   7.716   4.868   0.696 -0.3715 -0.4992 -0.5498
   53MOL    C50 6394   7.621   4.817   0.511  0.8224 -0.1522  0.2033
   53MOL    C51 6395   7.500   4.733   0.560  0.1299  0.1370 -0.2489
   53MOL   Cl52 6396   7.564   4.655   0.702 -0.2372 -0.0166 -0.0491
   53MOL    H53 6397   7.701   4.748   0.484 -2.0658 -3.2457 -0.8253
   53MOL    H54 6398   7.594   4.862   0.415  0.9757  1.0590  0.7274
   53MOL    H55 6399   7.418   4.795   0.594  0.5760  1.5938 -1.7788
   53MOL    C56 6400   7.452   4.631   0.454  0.3827  0.0917 -0.0766
   53MOL    C57 6401   7.375   4.696   0.335 -0.2285  0.6788  0.2872
   53MOL   Cl58 6402   7.263   4.816   0.398  0.1610  0.1152  0.1017
   53MOL    H59 6403   7.380   4.572   0.511  2.0460 -0.7911  1.1380
   53MOL    H60 6404   7.532   4.567   0.417  0.6072 -0.1486  0.8027
   53MOL    H61 6405   7.446   4.752   0.274  0.5272  1.4931  1.8626
   53MOL    C62 6406   7.296   4.590   0.249 -0.3747 -0.7029 -0.1673
   53MOL    C63 6407   7.390   4.488   0.179 -0.2253 -0.0840  0.2754
   53MOL   Cl64 6408   7.497   4.566   0.054 -0.1721  0.0938 -0.0641
   53MOL    H65 6409   7.228   4.631   0.174  0.1374 -0.8672 -0.7268
   53MOL    H66 6410   7.226   4.546   0.320 -0.2242  0.0338  0.4394
   53MOL    H67 6411   7.461   4.446   0.251 -0.2647  1.0885  1.0099
   53MOL    C68 6412   7.312   4.370   0.112  0.2211 -0.4610  0.2317
   53MOL    C69 6413   7.275   4.252   0.202 -0.7303 -0.9715  0.2064
   53MOL   Cl70 6414   7.429   4.197   0.260 -0.0986  0.0066  0.0466
   53MOL    H71 6415   7.381   4.333   0.036 -1.1287 -0.2627 -1.1283
   53MOL    H72 6416   7.226   4.415   0.063 -0.5413 -0.6102  1.4221
   53MOL    H73 6417   7.223   4.296   0.287  0.4028  0.6634  0.0747
   53MOL    C74 6418   7.187   4.136   0.140 -0.1889  0.4831  1.4379
   53MOL    C75 6419   7.085   4.082   0.242 -0.3051 -0.0564  0.4313
   53MOL   Cl76 6420   7.181   4.001   0.364  0.2000 -0.1449  0.1500
   53MOL    H77 6421   7.257   4.064   0.099 -0.1327 -0.2802  2.8379
   53MOL    H78 6422   7.121   4.171   0.061 -0.3547 -1.1077  0.8514
   53MOL    H79 6423   7.033   4.160   0.298 -1.8068 -1.6955  1.3508
   53MOL    C80 6424   6.999   3.969   0.189 -0.1298  0.8516  0.3222
   53MOL    C81 6425   6.886   3.913   0.287 -0.5914 -0.0275 -0.0917
   53MOL   Cl82 6426   6.809   3.768   0.207 -0.0858 -0.0694  0.2389
   53MOL    H83 6427   7.067   3.895   0.148 -1.1453 -0.2542  0.6029
   53MOL    H84 6428   6.944   3.994   0.098 -2.4290 -1.3618  1.0579
   53MOL    H85 6429   6.924   3.865   0.378 -0.8394 -2.1020 -1.0615
   53MOL    C86 6430   6.771   4.006   0.331 -0.4354 -0.2074 -0.3553
   53MOL    C87 6431   6.681   4.068   0.230  0.7094  0.0369 -0.6056
   53MOL   Cl88 6432   6.768   4.199   0.137 -0.0648 -0.1628  0.5173
   53MOL    H89 6433   6.820   4.081   0.394  0.9076 -1.9078  0.6631
   53MOL    H90 6434   6.699   3.951   0.392 -0.2927  1.4093  1.3007
   53MOL    H91 6435   6.641   3.995   0.160 -1.7761 -0.6858  1.4984
   53MOL    C92 6436   6.551   4.122   0.296 -0.2461  0.4650  0.0324
   53MOL    C93 6437   6.430   4.149   0.209 -0.4004  0.6639  0.2694
   53MOL   Cl94 6438   6.313   4.246   0.306  0.0851 -0.4201 -0.0277
   53MOL    H95 6439   6.587   4.219   0.331  1.9717  0.0739 -1.0980
   53MOL    H96 6440   6.515   4.065   0.381 -0.5955 -0.4166 -0.6994
   53MOL    H97 6441   6.455   4.206   0.120  0.5255 -0.4595 -0.2022
   53MOL    C98 6442   6.372   4.020   0.151 -0.4137 -0.2215  0.0336
   53MOL    C99 6443   6.225   4.023   0.097  0.6957 -0.0320 -1.2791
   53MOL  Cl100 6444   6.170   3.860   0.055 -0.3302 -0.1011 -0.1285
   53MOL   H101 6445   6.375   3.938   0.223  5.9827 -0.4622 -0.2173
   53MOL   H102 6446   6.445   4.003   0.072  0.9498  2.4375  0.6244
   53MOL   H103 6447   6.155   4.043   0.179  0.1559 -0.5128 -1.6193
   53MOL   C104 6448   6.206   4.106   8.495  0.2796 -0.6713 -0.1030
   53MOL   C105 6449   6.177   4.262   8.513  0.5465 -0.0269 -0.2389
   53MOL  Cl106 6450   6.048   4.278   0.111  0.0293 -0.0635  0.0544
   53MOL   H107 6451   6.122   4.062   8.442 -0.5590  2.1187 -1.1540
   53MOL   H108 6452   6.281   4.097   8.416 -0.4290  0.1744 -0.8704
   53MOL   H109 6453   6.262   4.317   0.028  0.4818 -1.1756  1.5495
   53MOL   C110 6454   6.129   4.327   8.387 -0.2790 -0.1591  0.6197
   53MOL   C111 6455   6.236   4.371   8.287  0.2546 -0.2779 -0.5563
   53MOL  Cl112 6456   6.301   4.525   8.361  0.4151  0.2430 -0.5319
   53MOL   H113 6457   6.075   4.419   8.411 -2.6333 -0.8912 -1.6449
   53MOL   H114 6458   6.053   4.272   8.330  0.6316 -0.9237  0.1355
   53MOL   H115 6459   6.311   4.292   8.283 -0.5954 -1.0461 -1.3103
   53MOL   C116 6460   6.178   4.409   8.149 -0.3613 -0.3167  0.4600
   53MOL   C117 6461   6.098   4.540   8.140 -0.0540  0.5432  0.2675
   53MOL  Cl118 6462   6.021   4.567   7.990  0.0930 -0.1213 -0.2449
   53MOL   H119 6463   6.114   4.328   8.113  1.9765 -1.2482 -1.7976
   53MOL   H120 6464   6.253   4.407   8.070 -0.0645  1.6000  0.6747
   53MOL   H121 6465   6.020   4.546   8.216 -0.1248  0.4944  0.1986
   53MOL   H122 6466   6.160   4.629   8.153  0.1158  0.6177 -1.0319
   54MOL     C1 6467   2.408   2.823   5.068  0.0381  0.3538 -0.2305
   54MOL     C2 6468   2.505   2.836   5.186  0.4367  0.3067  0.0841
   54MOL    Cl3 6469   2.423   2.903   5.325 -0.0359 -0.0860 -0.3861
   54MOL     H4 6470   2.364   2.920   5.046 -2.1476 -0.6787 -0.5595
   54MOL     H5 6471   2.462   2.794   4.978  2.5043 -0.4473  1.4667
   54MOL     H6 6472   2.545   2.739   5.214 -0.7388 -0.6664 -1.5355
   54MOL     H7 6473   2.332   2.749   5.095 -0.9056  1.4348  0.0994
   54MOL     C8 6474   2.622   2.934   5.140 -0.1591  0.4106 -0.3904
   54MOL     C9 6475   2.735   2.944   5.245  0.4090 -0.3624  0.0957
   54MOL   Cl10 6476   2.839   3.078   5.193  0.2368 -0.0869  0.0207
   54MOL    H11 6477   2.584   3.030   5.103  2.3242  1.0319 -1.4037
   54MOL    H12 6478   2.669   2.905   5.046  1.8795  0.6404  0.5304
   54MOL    H13 6479   2.689   2.994   5.329  3.1429  3.0760 -0.3208
   54MOL    C14 6480   2.814   2.813   5.278 -0.1639 -0.4425  0.1977
   54MOL    C15 6481   2.910   2.771   5.159  0.0871  0.1298 -0.5265
   54MOL   Cl16 6482   2.807   2.669   5.049  0.3468  0.5228 -0.1034
   54MOL    H17 6483   2.760   2.729   5.323  3.2890 -1.4047  2.8232
   54MOL    H18 6484   2.886   2.844   5.354  0.5408  1.3281 -1.1694
   54MOL    H19 6485   2.948   2.855   5.101 -1.3475  0.8018 -0.5175
   54MOL    C20 6486   3.021   2.681   5.220  0.9270  0.7995  0.3352
   54MOL    C21 6487   3.124   2.620   5.122  0.2645  0.4436 -0.1913
   54MOL   Cl22 6488   3.172   2.739   4.999 -0.3439  0.2064 -0.3853
   54MOL    H23 6489   2.967   2.603   5.273  2.1669  1.2619  2.3637
   54MOL    H24 6490   3.082   2.744   5.286  1.2711  2.6054 -1.6579
   54MOL    H25 6491   3.204   2.589   5.189  0.0127 -1.7145 -0.8663
   54MOL    C26 6492   3.078   2.479   5.060 -0.1333 -0.5148 -0.0245
   54MOL    C27 6493   3.158   2.435   4.938 -0.9089  0.0083  0.6089
   54MOL   Cl28 6494   3.100   2.279   4.890  0.0668  0.4288  0.1461
   54MOL    H29 6495   2.977   2.481   5.020 -0.1563  2.9168  0.0568
   54MOL    H30 6496   3.087   2.405   5.140  4.7055 -0.9125 -0.7682
   54MOL    H31 6497   3.124   2.499   4.858  0.3104  1.0857  0.9338
   54MOL    C32 6498   3.312   2.434   4.959  0.1716 -0.1780  0.1719
   54MOL    C33 6499   3.381   2.474   4.826  0.1689  0.3204  0.3147
   54MOL   Cl34 6500   3.351   2.353   4.697 -0.0016  0.1972  0.3852
   54MOL    H35 6501   3.349   2.335   4.986  0.6961 -0.4183 -1.3581
   54MOL    H36 6502   3.333   2.508   5.037 -2.4395  0.8254 -0.0283
   54MOL    H37 6503   3.331   2.565   4.793 -1.3273  0.0517  1.7813
   54MOL    C38 6504   3.538   2.484   4.844  0.5394 -0.0557 -0.4503
   54MOL    C39 6505   3.611   2.566   4.741 -0.0290  0.7799  0.2646
   54MOL   Cl40 6506   3.781   2.591   4.800 -0.3776 -0.4012  0.0595
   54MOL    H41 6507   3.588   2.389   4.864 -0.9376 -1.5094 -3.3483
   54MOL    H42 6508   3.553   2.541   4.936  0.5432  1.1138 -1.1658
   54MOL    H43 6509   3.632   2.519   4.644  1.0959  1.4788  0.1620
   54MOL    C44 6510   3.546   2.705   4.726  0.3369  1.1781  0.7099
   54MOL    C45 6511   3.470   2.721   4.595  0.4085 -0.0182  0.0316
   54MOL   Cl46 6512   3.583   2.734   4.462  0.5359  0.0002 -0.0019
   54MOL    H47 6513   3.625   2.780   4.724  1.1674  0.3581  2.4409
   54MOL    H48 6514   3.479   2.739   4.805  0.6054  0.8031  1.0932
   54MOL    H49 6515   3.410   2.630   4.584  0.0409 -0.1691  3.0479
   54MOL    C50 6516   3.379   2.841   4.598  0.5564  0.1544  0.3235
   54MOL    C51 6517   3.237   2.834   4.534 -0.3617  0.4196  0.1468
   54MOL   Cl52 6518   3.133   2.734   4.631 -0.2638 -0.2116 -0.3435
   54MOL    H53 6519   3.424   2.931   4.555 -0.5575 -0.5088 -2.3717
   54MOL    H54 6520   3.375   2.872   4.702  1.0694 -0.8760  0.6528
   54MOL    H55 6521   3.195   2.935   4.532  0.4782  0.7909  1.0284
   54MOL    C56 6522   3.236   2.793   4.386 -0.3999 -0.1820  0.7207
   54MOL    C57 6523   3.302   2.889   4.282 -0.2951  0.7111  0.3609
   54MOL   Cl58 6524   3.259   3.058   4.319 -0.0164  0.1895  0.2237
   54MOL    H59 6525   3.135   2.772   4.351 -1.1798  1.3949  1.9520
   54MOL    H60 6526   3.277   2.693   4.374 -2.1294 -0.7832 -0.4300
   54MOL    H61 6527   3.411   2.888   4.293 -0.3457 -0.0472  0.8103
   54MOL    C62 6528   3.271   2.864   4.132 -0.0638  0.0137 -0.2572
   54MOL    C63 6529   3.278   2.725   4.083  0.2680 -0.5605  0.5279
   54MOL   Cl64 6530   3.450   2.680   4.094 -0.0149  0.0449 -0.1388
   54MOL    H65 6531   3.335   2.926   4.070  1.2022 -2.1873 -1.2051
   54MOL    H66 6532   3.168   2.892   4.113  0.3019 -0.4923 -3.3135
   54MOL    H67 6533   3.231   2.655   4.152  0.0537 -0.4103  0.5381
   54MOL    C68 6534   3.222   2.697   3.942 -0.1115  0.0870 -0.0044
   54MOL    C69 6535   3.213   2.545   3.906 -0.1128  0.5142  0.2024
   54MOL   Cl70 6536   3.362   2.471   3.836  0.1694  0.0235 -0.5385
   54MOL    H71 6537   3.278   2.756   3.870  0.7464  0.7589  1.1862
   54MOL    H72 6538   3.121   2.737   3.950 -0.8428 -1.4721 -1.2061
   54MOL    H73 6539   3.197   2.483   3.994 -0.3962 -0.6989 -0.6949
   54MOL    C74 6540   3.088   2.514   3.815 -0.0043  0.3986 -0.1465
   54MOL    C75 6541   3.093   2.565   3.667 -0.3854 -0.5808 -0.4245
   54MOL   Cl76 6542   3.064   2.747   3.671 -0.3198 -0.0470 -0.4243
   54MOL    H77 6543   2.996   2.543   3.865 -0.3509  0.0658 -0.5832
   54MOL    H78 6544   3.077   2.406   3.811  0.4953  0.3247  0.3776
   54MOL    H79 6545   3.198   2.558   3.639  0.4114  0.9321  2.0168
   54MOL    C80 6546   2.989   2.500   3.571 -0.3386 -0.0425  0.5457
   54MOL    C81 6547   2.994   2.556   3.430 -0.2834 -0.7340  0.0516
   54MOL   Cl82 6548   2.890   2.451   3.340  0.0694 -0.0554  0.2981
   54MOL    H83 6549   2.886   2.521   3.601 -0.0762 -0.9786  2.1963
   54MOL    H84 6550   3.008   2.393   3.564 -1.1320 -0.0145 -2.4045
   54MOL    H85 6551   2.957   2.658   3.434  1.5187 -0.0398 -0.2073
   54MOL    C86 6552   3.136   2.555   3.359 -0.0244 -0.5133  0.2764
   54MOL    C87 6553   3.155   2.612   3.218  0.1889 -0.8891  0.7075
   54MOL   Cl88 6554   3.309   2.546   3.148 -0.3330 -0.3529  0.1572
   54MOL    H89 6555   3.170   2.452   3.348 -0.6232 -0.6353 -0.4673
   54MOL    H90 6556   3.210   2.589   3.432  0.8788 -1.1870 -0.3140
   54MOL    H91 6557   3.073   2.580   3.154 -0.4926 -0.6527  1.4601
   54MOL    C92 6558   3.150   2.771   3.202 -0.2628 -0.5732 -0.7561
   54MOL    C93 6559   3.028   2.847   3.249  0.0205 -0.1045  0.2881
   54MOL   Cl94 6560   2.890   2.796   3.147 -0.3262 -0.0347  0.1450
   54MOL    H95 6561   3.168   2.792   3.096  2.1577 -3.0240 -0.8952
   54MOL    H96 6562   3.241   2.806   3.251  0.1070 -3.7546  0.9492
   54MOL    H97 6563   3.014   2.826   3.355  1.5897 -0.4877  0.4216
   54MOL    C98 6564   3.052   2.997   3.237 -0.0418  0.1303 -0.3035
   54MOL    C99 6565   2.926   3.071   3.265  0.3580 -0.2466  0.2559
   54MOL  Cl100 6566   2.949   3.240   3.216 -0.2456 -0.1365  0.1697
   54MOL   H101 6567   3.083   3.028   3.137  0.3337 -0.0154 -0.2333
   54MOL   H102 6568   3.120   3.020   3.319 -2.0445 -0.2000  1.4932
   54MOL   H103 6569   2.839   3.035   3.210  0.6195 -1.9076  0.9083
   54MOL   C104 6570   2.888   3.072   3.413  0.1170 -0.0228 -0.8348
   54MOL   C105 6571   2.756   3.151   3.446 -0.8051 -0.3398 -0.4024
   54MOL  Cl106 6572   2.759   3.160   3.622 -0.3978  0.0079  0.0525
   54MOL   H107 6573   2.965   3.100   3.484  0.4169 -2.3925 -0.1967
   54MOL   H108 6574   2.872   2.971   3.450 -2.3520  0.2671 -1.0379
   54MOL   H109 6575   2.772   3.252   3.408 -2.3798 -0.4234 -1.3202
   54MOL   C110 6576   2.617   3.090   3.399 -0.2385  0.0383  0.7666
   54MOL   C111 6577   2.496   3.182   3.406 -0.8754 -0.1683 -0.4195
   54MOL  Cl112 6578   2.430   3.187   3.570 -0.0807  0.0861  0.3145
   54MOL   H113 6579   2.602   2.991   3.442 -1.9947  0.8357  2.0465
   54MOL   H114 6580   2.629   3.071   3.292 -0.4522  2.7529  0.2174
   54MOL   H115 6581   2.529   3.284   3.390 -0.9098 -0.0140  0.4612
   54MOL   C116 6582   2.385   3.153   3.295  0.4703 -0.6509  0.3801
   54MOL   C117 6583   2.295   3.275   3.274 -0.5894  0.4022 -0.2071
   54MOL  Cl118 6584   2.387   3.397   3.177  0.1111  0.4530 -0.0516
   54MOL   H119 6585   2.331   3.070   3.339  0.9335 -1.1689 -0.0215
   54MOL   H120 6586   2.419   3.103   3.204 -1.4024  0.3951 -0.9182
   54MOL   H121 6587   2.208   3.249   3.215 -1.9367  0.1639  1.8328
   54MOL   H122 6588   2.250   3.315   3.365  0.9721 -2.3237  1.8662
   55MOL     C1 6589   1.049   7.675   7.628  0.0454  0.2618  0.0143
   55MOL     C2 6590   1.180   7.752   7.627 -0.0446 -0.1029  0.9210
   55MOL    Cl3 6591   1.147   7.917   7.553 -0.0534  0.0313  0.1670
   55MOL     H4 6592   1.054   7.574   7.670 -1.1692  0.2495  0.1475
   55MOL     H5 6593   0.963   7.726   7.670  0.3275  0.3511  0.4811
   55MOL     H6 6594   1.225   7.766   7.725  0.9911 -0.9376  0.5707
   55MOL     H7 6595   1.022   7.665   7.522  1.2242  2.3036 -0.5024
   55MOL     C8 6596   1.288   7.672   7.546 -0.0311 -0.4280  0.0735
   55MOL     C9 6597   1.422   7.745   7.531 -0.7005  1.3433 -0.5796
   55MOL   Cl10 6598   1.534   7.646   7.426  0.4341 -0.0099  0.0233
   55MOL    H11 6599   1.252   7.647   7.446  2.0245 -0.4194 -0.7001
   55MOL    H12 6600   1.311   7.578   7.596 -0.8028  0.6319  2.4764
   55MOL    H13 6601   1.391   7.838   7.483 -0.3794  1.1764 -1.1093
   55MOL    C14 6602   1.490   7.761   7.662  0.3085  0.0625 -0.1391
   55MOL    C15 6603   1.607   7.854   7.662  0.0360  0.0822 -0.9820
   55MOL   Cl16 6604   1.587   7.987   7.543 -0.3442  0.1735 -0.2829
   55MOL    H17 6605   1.521   7.668   7.710  1.6460  0.4334 -0.2573
   55MOL    H18 6606   1.417   7.791   7.737  0.4986  0.6572 -0.1941
   55MOL    H19 6607   1.597   7.897   7.761 -0.7317  1.6007 -1.7027
   55MOL    C20 6608   1.748   7.791   7.640 -0.1215 -0.3085 -0.0621
   55MOL    C21 6609   1.857   7.898   7.668 -0.1601  0.8755 -0.1211
   55MOL   Cl22 6610   2.006   7.837   7.597  0.0730 -0.1079  0.3051
   55MOL    H23 6611   1.757   7.771   7.534 -1.1683 -1.1217  0.0075
   55MOL    H24 6612   1.771   7.708   7.707 -1.7580  0.2188  1.2078
   55MOL    H25 6613   1.836   7.987   7.610 -1.0204 -0.8850 -2.5815
   55MOL    C26 6614   1.878   7.929   7.821  0.4846  0.2193  0.7086
   55MOL    C27 6615   1.910   8.073   7.863  0.0071 -0.8228 -0.1498
   55MOL   Cl28 6616   1.761   8.167   7.850  0.0125 -0.5330 -0.1719
   55MOL    H29 6617   1.958   7.868   7.860  1.8009  0.0574 -2.1144
   55MOL    H30 6618   1.804   7.882   7.886  1.8986  0.8546  2.8026
   55MOL    H31 6619   1.917   8.062   7.971  2.6152  0.2897 -0.1554
   55MOL    C32 6620   2.042   8.140   7.802 -0.4874  1.0433  0.3681
   55MOL    C33 6621   2.064   8.289   7.833 -0.0907 -0.8603 -0.5766
   55MOL   Cl34 6622   2.227   8.333   7.776 -0.3293  0.1448  0.2085
   55MOL    H35 6623   2.044   8.111   7.698 -3.3728 -3.4524  1.4247
   55MOL    H36 6624   2.126   8.082   7.840 -2.0533 -0.9540  0.9039
   55MOL    H37 6625   1.991   8.351   7.781 -0.4710 -1.0723 -0.3038
   55MOL    C38 6626   2.049   8.311   7.989 -0.4738 -0.8688 -0.8735
   55MOL    C39 6627   2.074   8.456   8.038  0.2106  0.0327  0.2083
   55MOL   Cl40 6628   2.247   8.466   8.070 -0.0322  0.3132 -0.2856
   55MOL    H41 6629   2.111   8.242   8.046 -0.6919  0.0822  0.5409
   55MOL    H42 6630   1.945   8.287   8.013 -0.1662 -1.3750 -0.0043
   55MOL    H43 6631   2.056   8.522   7.953  1.1019  1.9019  1.4390
   55MOL    C44 6632   1.986   8.508   8.157  0.0385 -0.1116 -0.3771
   55MOL    C45 6633   2.021   0.128   8.203  0.0275 -0.1969 -0.4119
   55MOL   Cl46 6634   1.906   0.166   8.342 -0.3025  0.0117  0.2309
   55MOL    H47 6635   2.000   8.435   8.237 -1.9239 -1.5599 -1.3153
   55MOL    H48 6636   1.881   8.506   8.126 -0.4474 -0.5343  1.2235
   55MOL    H49 6637   2.121   0.112   8.242  0.0401 -0.4700 -0.5557
   55MOL    C50 6638   2.001   0.237   8.095  0.1052 -0.1843  0.3703
   55MOL    C51 6639   2.076   0.377   8.108  0.5419 -0.7915  1.0004
   55MOL   Cl52 6640   2.038   0.468   8.257 -0.3175  0.0107 -0.2630
   55MOL    H53 6641   1.894   0.254   8.097  0.5433  2.6454  0.8729
   55MOL    H54 6642   2.009   0.188   7.998  4.5647 -0.5998  0.8470
   55MOL    H55 6643   2.184   0.359   8.110  0.2001 -3.1508 -0.0286
   55MOL    C56 6644   2.040   0.455   7.977 -0.2035  0.1528  0.4330
   55MOL    C57 6645   2.054   0.394   7.844 -0.5433 -0.1249  0.9472
   55MOL   Cl58 6646   2.221   0.333   7.818  0.3897  0.1442  0.1546
   55MOL    H59 6647   2.103   0.543   7.967 -3.9864  2.8769 -0.3343
   55MOL    H60 6648   1.934   0.479   7.979  0.2757  2.4177  0.1730
   55MOL    H61 6649   1.992   0.306   7.827  1.2774 -1.8516  2.9089
   55MOL    C62 6650   2.023   0.487   7.727 -0.2550 -0.8822  0.2704
   55MOL    C63 6651   1.879   0.554   7.719 -0.0673 -0.5270  0.1989
   55MOL   Cl64 6652   1.758   0.430   7.737 -0.2429  0.3470 -0.2546
   55MOL    H65 6653   2.035   0.422   7.640 -0.2991 -0.5154 -0.0081
   55MOL    H66 6654   2.098   0.566   7.730 -0.6993 -0.4420 -0.1167
   55MOL    H67 6655   1.862   0.617   7.807 -1.1053 -1.5873  0.7690
   55MOL    C68 6656   1.840   0.625   7.579 -0.4699 -0.2202  0.1617
   55MOL    C69 6657   1.919   0.744   7.547 -0.2373 -0.4282  0.1129
   55MOL   Cl70 6658   1.908   0.871   7.677 -0.1728  0.3520  0.0403
   55MOL    H71 6659   1.740   0.668   7.589 -0.2162  0.2792  0.5503
   55MOL    H72 6660   1.847   0.547   7.503  4.6389 -1.0292  1.3240
   55MOL    H73 6661   2.019   0.700   7.544 -0.7076 -1.4215 -2.4573
   55MOL    C74 6662   1.884   0.803   7.405 -0.8770 -0.5178  0.2514
   55MOL    C75 6663   1.935   0.720   7.294  0.1572  0.3055  0.4844
   55MOL   Cl76 6664   2.109   0.753   7.283  0.2039 -0.1985  0.3994
   55MOL    H77 6665   1.929   0.901   7.389 -1.9224  0.1742  1.4749
   55MOL    H78 6666   1.777   0.812   7.388 -1.0198 -2.7440 -0.2361
   55MOL    H79 6667   1.942   0.615   7.324 -0.1289 -0.0239 -0.5690
   55MOL    C80 6668   1.869   0.750   7.159 -0.2737 -0.0222 -0.7488
   55MOL    C81 6669   1.719   0.702   7.138 -0.3418 -0.1365  0.2980
   55MOL   Cl82 6670   1.713   0.522   7.139  0.2137  0.0068  0.1139
   55MOL    H83 6671   1.924   0.702   7.079 -1.3887  0.0814 -1.6031
   55MOL    H84 6672   1.887   0.856   7.141  1.3907  0.2353  2.0212
   55MOL    H85 6673   1.645   0.735   7.211 -0.2167 -0.2869  0.4910
   55MOL    C86 6674   1.668   0.745   7.002  0.6358 -0.9675  0.3574
   55MOL    C87 6675   1.667   0.902   6.970  0.7284 -0.2369 -0.3661
   55MOL   Cl88 6676   1.563   0.972   7.090  0.0624  0.4027  0.0289
   55MOL    H89 6677   1.566   0.707   6.996  0.1770  0.3881 -0.7826
   55MOL    H90 6678   1.736   0.704   6.929  0.7682  0.6863 -0.4836
   55MOL    H91 6679   1.769   0.942   6.978  0.2609  1.2043 -1.3076
   55MOL    C92 6680   1.600   0.931   6.836  0.2504 -0.5221  0.0296
   55MOL    C93 6681   1.579   1.086   6.810  0.1139  0.3385  0.2581
   55MOL   Cl94 6682   1.502   1.097   6.653  0.0293  0.2624 -0.0285
   55MOL    H95 6683   1.501   0.884   6.837 -0.5297  1.0448  1.9924
   55MOL    H96 6684   1.651   0.899   6.746 -0.0404  1.1524 -0.7566
   55MOL    H97 6685   1.510   1.127   6.884 -0.0471 -0.3753  0.5066
   55MOL    C98 6686   1.708   1.177   6.825 -0.0080 -0.0384 -0.1402
   55MOL    C99 6687   1.800   1.166   6.716 -0.3500 -0.1948  0.4214
   55MOL  Cl100 6688   1.888   1.016   6.742 -0.1599  0.0928  0.4263
   55MOL   H101 6689   1.741   1.168   6.928 -0.1786 -2.9471 -0.3170
   55MOL   H102 6690   1.665   1.277   6.825 -0.9639 -0.3033  5.7822
   55MOL   H103 6691   1.746   1.152   6.623  0.5602 -1.2791  0.0434
   55MOL   C104 6692   1.897   1.287   6.707 -0.0866  0.4331  0.2496
   55MOL   C105 6693   2.003   1.274   6.595  0.2683 -1.0396 -0.2269
   55MOL  Cl106 6694   2.082   1.435   6.572  0.2001 -0.4123 -0.4562
   55MOL   H107 6695   1.944   1.313   6.802 -1.0628  1.0334  0.5739
   55MOL   H108 6696   1.839   1.374   6.679  0.1952  0.0931 -1.4418
   55MOL   H109 6697   2.086   1.210   6.625 -1.5880 -3.5331 -0.2415
   55MOL   C110 6698   1.954   1.219   6.454 -0.0475  0.4779 -0.5464
   55MOL   C111 6699   2.059   1.163   6.359 -0.3872  0.5761 -0.3676
   55MOL  Cl112 6700   2.005   1.167   6.191 -0.2132 -0.3833 -0.5832
   55MOL   H113 6701   1.902   1.302   6.406 -1.7343 -0.7342 -0.8437
   55MOL   H114 6702   1.890   1.132   6.462  1.0458 -0.1965  1.5367
   55MOL   H115 6703   2.146   1.229   6.361 -2.1682  2.9810  1.2863
   55MOL   C116 6704   2.091   1.017   6.397  0.4186  0.1927  0.2665
   55MOL   C117 6705   2.216   0.963   6.335  0.5002  0.0481 -1.1131
   55MOL  Cl118 6706   2.359   1.044   6.395 -0.5231 -0.0940 -0.2178
   55MOL   H119 6707   2.001   0.970   6.358  0.5173  0.6388 -0.5083
   55MOL   H120 6708   2.091   1.001   6.505 -0.6924 -0.4742  0.1793
   55MOL   H121 6709   2.231   0.857   6.356  0.0192 -0.2566 -2.3058
   55MOL   H122 6710   2.215   0.965   6.226 -1.5682  1.5911 -1.0914
   56MOL     C1 6711   1.922   1.625   3.130 -0.3931 -0.1922 -0.0331
   56MOL     C2 6712   2.062   1.565   3.101 -0.0979  0.3587 -0.0910
   56MOL    Cl3 6713   2.166   1.688   3.026 -0.2772  0.4420  0.2081
   56MOL     H4 6714   1.853   1.550   3.169  0.0845 -0.7953 -0.3564
   56MOL     H5 6715   1.938   1.710   3.197  0.0603  0.4454 -0.9450
   56MOL     H6 6716   2.114   1.554   3.196  1.3532 -0.9149 -1.0025
   56MOL     H7 6717   1.888   1.665   3.035  1.0883  1.6783  0.2079
   56MOL     C8 6718   2.063   1.445   3.004 -0.5238  0.1625 -0.2160
   56MOL     C9 6719   2.031   1.319   3.082  0.2910  0.2945 -0.8938
   56MOL   Cl10 6720   2.151   1.286   3.217  0.2656 -0.1969  0.0054
   56MOL    H11 6721   2.163   1.431   2.964 -0.3652 -2.1800  0.8917
   56MOL    H12 6722   1.999   1.457   2.917 -0.7454 -3.3209 -0.5925
   56MOL    H13 6723   1.931   1.312   3.126 -0.4796 -0.9885 -2.8275
   56MOL    C14 6724   2.023   1.196   2.982 -0.9939 -0.6680 -0.0176
   56MOL    C15 6725   1.977   1.059   3.023  0.9220 -0.0388 -0.2279
   56MOL   Cl16 6726   1.995   0.966   2.880  0.0704 -0.0244  0.0336
   56MOL    H17 6727   2.127   1.184   2.951 -0.9285 -0.0189 -0.0536
   56MOL    H18 6728   1.966   1.225   2.894 -1.2042  1.0790  0.6858
   56MOL    H19 6729   2.047   1.016   3.095  0.7038  0.7909  0.4830
   56MOL    C20 6730   1.841   1.046   3.090  0.1528 -0.7057 -0.0769
   56MOL    C21 6731   1.783   0.911   3.135  0.4037 -0.0228  0.3762
   56MOL   Cl22 6732   1.907   0.809   3.203  0.4226  0.1310  0.2611
   56MOL    H23 6733   1.771   1.085   3.017 -0.4416  0.6295  1.1818
   56MOL    H24 6734   1.834   1.098   3.185  1.5025 -0.7948  0.0816
   56MOL    H25 6735   1.710   0.923   3.214 -1.9677 -0.9026 -1.6044
   56MOL    C26 6736   1.715   0.831   3.019 -0.6480 -0.2522 -0.3683
   56MOL    C27 6737   1.572   0.877   2.986  0.1237 -0.1178 -0.5656
   56MOL   Cl28 6738   1.475   0.812   3.128  0.3874  0.1750  0.0081
   56MOL    H29 6739   1.708   0.726   3.047 -2.1733 -0.0592  0.0216
   56MOL    H30 6740   1.779   0.825   2.932 -1.4288 -3.1913 -0.8067
   56MOL    H31 6741   1.551   0.984   2.979 -0.2288 -0.1647 -0.2443
   56MOL    C32 6742   1.529   0.794   2.854 -0.4162 -0.0431  0.0788
   56MOL    C33 6743   1.611   0.801   2.721  0.2081  0.9428 -0.6365
   56MOL   Cl34 6744   1.645   0.971   2.696 -0.0059  0.3305 -0.0464
   56MOL    H35 6745   1.428   0.832   2.835  0.3174  2.7029  1.3294
   56MOL    H36 6746   1.528   0.686   2.866  0.1069  0.0356  0.8482
   56MOL    H37 6747   1.708   0.755   2.739  0.5356  1.4549 -1.0644
   56MOL    C38 6748   1.538   0.737   2.600  0.1139 -0.4374  0.6631
   56MOL    C39 6749   1.532   0.588   2.577 -0.3171  0.7100  0.1649
   56MOL   Cl40 6750   1.691   0.511   2.546  0.2509 -0.1385  0.1169
   56MOL    H41 6751   1.598   0.775   2.517  0.0533 -1.3173  0.2116
   56MOL    H42 6752   1.440   0.784   2.587  0.8488  1.1418  0.6954
   56MOL    H43 6753   1.489   0.543   2.667 -1.1206  1.2349  0.0569
   56MOL    C44 6754   1.445   0.564   2.453 -0.2426  0.1358 -0.7988
   56MOL    C45 6755   1.339   0.445   2.468  0.0007  0.2691  0.0521
   56MOL   Cl46 6756   1.289   0.399   2.303 -0.0240  0.1509 -0.1023
   56MOL    H47 6757   1.511   0.542   2.369  0.7044  3.1273 -0.8978
   56MOL    H48 6758   1.379   0.647   2.426  0.0834  0.9897  0.9569
   56MOL    H49 6759   1.370   0.350   2.511 -0.4991  0.0845 -0.0008
   56MOL    C50 6760   1.216   0.499   2.552  0.5639  0.4037 -0.1333
   56MOL    C51 6761   1.101   0.403   2.588 -0.2068 -0.1969  0.2299
   56MOL   Cl52 6762   0.960   0.499   2.624  0.0126  0.4453 -0.0488
   56MOL    H53 6763   1.167   0.577   2.495  1.1454  0.4928 -0.5155
   56MOL    H54 6764   1.252   0.547   2.643  1.0535 -1.3927  0.6585
   56MOL    H55 6765   1.063   0.338   2.509 -1.3577  0.6263  0.0927
   56MOL    C56 6766   1.147   0.310   2.708 -0.4443  0.0129  0.0063
   56MOL    C57 6767   1.198   0.172   2.662  0.2254 -0.1536  0.0932
   56MOL   Cl58 6768   1.061   0.077   2.605 -0.7064 -0.0450 -0.3559
   56MOL    H59 6769   1.064   0.289   2.775  0.9436 -1.1784  1.3916
   56MOL    H60 6770   1.211   0.370   2.772  0.7400  0.1738 -1.2902
   56MOL    H61 6771   1.259   0.184   2.573 -0.7781 -2.7216 -0.9951
   56MOL    C62 6772   1.278   0.095   2.769  0.6075  0.6530 -0.3135
   56MOL    C63 6773   1.204   0.037   2.889 -0.0698 -1.0942 -0.1824
   56MOL   Cl64 6774   1.128   0.162   2.997  0.0414  0.5557 -0.0681
   56MOL    H65 6775   1.369   0.148   2.798 -1.3553  3.6209  0.5532
   56MOL    H66 6776   1.312   0.000   2.725 -0.4250 -2.2077  4.6923
   56MOL    H67 6777   1.119   8.500   2.862  0.1113 -2.7353  2.8512
   56MOL    C68 6778   1.309   8.482   2.974  0.2674  0.4660 -0.1882
   56MOL    C69 6779   1.257   8.385   3.081  0.1348  0.4823  0.3041
   56MOL   Cl70 6780   1.397   8.336   3.181  0.4430  0.2357  0.1352
   56MOL    H71 6781   1.391   0.021   3.006  3.1133 -2.7041 -0.8873
   56MOL    H72 6782   1.351   8.412   2.902 -1.0554  0.5835 -1.1040
   56MOL    H73 6783   1.192   8.442   3.147 -0.0881  0.7031 -0.1020
   56MOL    C74 6784   1.174   8.267   3.041 -0.3323 -0.1847  0.2114
   56MOL    C75 6785   1.109   8.168   3.142 -0.2756  0.2989  0.7165
   56MOL   Cl76 6786   1.024   8.046   3.043 -0.1828  0.2200  0.4062
   56MOL    H77 6787   1.233   8.202   2.977  1.6178  1.1594  0.6178
   56MOL    H78 6788   1.102   8.304   2.968  1.6298 -0.7396 -2.0574
   56MOL    H79 6789   1.181   8.120   3.208 -0.9671  0.1757  1.3745
   56MOL    C80 6790   0.997   8.242   3.219  0.1062  0.2411 -0.0068
   56MOL    C81 6791   0.914   8.148   3.312 -0.2427  0.9480  0.2281
   56MOL   Cl82 6792   0.742   8.170   3.278  0.0784  0.0121 -0.3562
   56MOL    H83 6793   0.933   8.283   3.141  0.4605  1.3095  0.2461
   56MOL    H84 6794   1.034   8.326   3.278 -1.4915  0.8596  0.1551
   56MOL    H85 6795   0.943   8.044   3.298 -1.5732  0.6973 -0.7101
   56MOL    C86 6796   0.940   8.180   3.461  0.2493  0.5951 -0.4999
   56MOL    C87 6797   1.083   8.150   3.516  0.3809 -0.0984 -0.2966
   56MOL   Cl88 6798   1.109   7.969   3.528 -0.1809  0.3313 -0.0566
   56MOL    H89 6799   0.867   8.116   3.509 -0.8177  0.8149 -1.8053
   56MOL    H90 6800   0.912   8.281   3.489 -0.8415 -0.5126  2.5406
   56MOL    H91 6801   1.154   8.177   3.439  1.3018  3.0252  1.5351
   56MOL    C92 6802   1.116   8.214   3.653 -0.2003 -0.6279 -0.5069
   56MOL    C93 6803   1.120   8.372   3.663 -0.6385 -0.0229 -0.1809
   56MOL   Cl94 6804   1.193   8.440   3.521 -0.0385 -0.0325 -0.0240
   56MOL    H95 6805   1.204   8.166   3.696 -1.1115 -0.6564  1.3711
   56MOL    H96 6806   1.041   8.170   3.718 -0.0047 -0.7741 -0.3773
   56MOL    H97 6807   1.017   8.408   3.662 -0.7944 -0.4724 -0.4198
   56MOL    C98 6808   1.207   8.414   3.789 -0.8510  0.0805  0.0821
   56MOL    C99 6809   1.162   8.362   3.927 -0.4234 -0.4553  0.0958
   56MOL  Cl100 6810   1.025   8.467   3.972 -0.1825 -0.2173 -0.0524
   56MOL   H101 6811   1.195   8.522   3.783  0.6012  0.2705  0.4975
   56MOL   H102 6812   1.311   8.391   3.770 -0.9974  0.1977 -0.8832
   56MOL   H103 6813   1.131   8.258   3.935 -0.8182 -0.2661  1.0614
   56MOL   C104 6814   1.280   8.393   4.025  0.6620  0.3234  0.2652
   56MOL   C105 6815   1.394   8.298   4.026 -0.2219 -0.5149  0.1153
   56MOL  Cl106 6816   1.341   8.126   4.040  0.0294  0.3046 -0.2858
   56MOL   H107 6817   1.237   8.398   4.125 -0.9341  0.1320 -0.3985
   56MOL   H108 6818   1.304   8.496   3.997 -0.4233  0.1108 -1.5268
   56MOL   H109 6819   1.449   8.309   3.933 -0.1068  0.3493  0.2845
   56MOL   C110 6820   1.500   8.328   4.134 -0.3983 -0.1190 -0.5456
   56MOL   C111 6821   1.586   8.460   4.114  0.0734 -0.3422  0.1146
   56MOL  Cl112 6822   1.658   8.469   3.947 -0.1433 -0.4701 -0.3952
   56MOL   H113 6823   1.557   8.237   4.147 -2.3905 -1.0489  2.0649
   56MOL   H114 6824   1.448   8.346   4.229 -1.5175 -0.2872 -1.1103
   56MOL   H115 6825   1.521   0.022   4.115  1.6708  0.8543  0.5963
   56MOL   C116 6826   1.694   8.488   4.217 -0.4494 -0.3052 -0.0195
   56MOL   C117 6827   1.661   8.463   4.358 -0.1617  0.0551  0.5983
   56MOL  Cl118 6828   1.497   0.013   4.392 -0.2232  0.3325  0.4510
   56MOL   H119 6829   1.730   0.066   4.212  1.5827 -1.0855 -2.5398
   56MOL   H120 6830   1.773   8.416   4.195  1.1998  1.8067 -1.2285
   56MOL   H121 6831   1.656   8.357   4.383 -1.7381 -0.6373 -2.4177
   56MOL   H122 6832   1.732   8.508   4.427 -1.3437  1.6992  0.7690
   57MOL     C1 6833   1.890   4.862   7.980  0.7019  0.0373 -0.3800
   57MOL     C2 6834   2.012   4.810   7.907  0.2717 -0.7082  0.0504
   57MOL    Cl3 6835   2.153   4.917   7.920  0.3113 -0.1231  0.0479
   57MOL     H4 6836   1.805   4.800   7.953  1.4764  0.0281 -2.9444
   57MOL     H5 6837   1.910   4.855   8.087  1.0180  2.3214 -0.2661
   57MOL     H6 6838   2.036   4.710   7.945 -0.8743 -0.9132  0.2448
   57MOL     H7 6839   1.870   4.966   7.952  1.8517  1.2920  3.2403
   57MOL     C8 6840   1.976   4.800   7.755  0.1173 -0.1856  0.2791
   57MOL     C9 6841   1.934   4.661   7.702 -0.4649 -0.5286 -0.9429
   57MOL   Cl10 6842   2.063   4.544   7.725  0.2384  0.1014 -0.3605
   57MOL    H11 6843   2.061   4.830   7.694  1.2191 -2.0929  0.8501
   57MOL    H12 6844   1.897   4.871   7.730 -1.7541 -2.2269  0.2656
   57MOL    H13 6845   1.851   4.627   7.764  0.3823  1.6082  1.4149
   57MOL    C14 6846   1.896   4.659   7.550 -0.2355  1.3244 -0.1114
   57MOL    C15 6847   1.872   4.517   7.493  0.1083 -0.6165 -0.6276
   57MOL   Cl16 6848   1.852   4.542   7.315  0.1586  0.0197 -0.0754
   57MOL    H17 6849   1.960   4.721   7.487  1.3358  0.1599  0.2972
   57MOL    H18 6850   1.803   4.712   7.530 -1.7286 -1.3459 -0.4287
   57MOL    H19 6851   1.959   4.453   7.503  0.3891  0.0921  1.7780
   57MOL    C20 6852   1.759   4.448   7.577 -0.1482  0.2517  1.0425
   57MOL    C21 6853   1.695   4.328   7.505  0.4517  0.1808 -0.2132
   57MOL   Cl22 6854   1.536   4.307   7.586 -0.2955 -0.2988 -0.1120
   57MOL    H23 6855   1.675   4.517   7.585  0.1606  0.3995  3.3609
   57MOL    H24 6856   1.808   4.423   7.670  0.7757  0.1259  0.5291
   57MOL    H25 6857   1.665   4.354   7.403 -1.8056 -1.7581 -0.1005
   57MOL    C26 6858   1.772   4.193   7.511 -0.2438  0.0568  0.1945
   57MOL    C27 6859   1.695   4.081   7.433  0.1918 -0.1289  0.7271
   57MOL   Cl28 6860   1.647   3.959   7.553  0.0336  0.1852 -0.0431
   57MOL    H29 6861   1.798   4.155   7.609 -0.5347 -2.4187 -0.6592
   57MOL    H30 6862   1.864   4.214   7.456  0.4533 -0.7106  1.0572
   57MOL    H31 6863   1.598   4.120   7.403 -0.1564  1.0854  3.2565
   57MOL    C32 6864   1.778   4.022   7.319  0.3804 -0.7979 -0.3285
   57MOL    C33 6865   1.802   4.121   7.200 -0.6316 -0.1459 -0.1931
   57MOL   Cl34 6866   1.650   4.157   7.105 -0.2681  0.3314  0.0427
   57MOL    H35 6867   1.726   3.943   7.266  0.0512 -0.4784 -0.4816
   57MOL    H36 6868   1.874   3.991   7.362 -0.3009  0.0266  1.8674
   57MOL    H37 6869   1.836   4.219   7.233 -0.3732  1.1358 -3.9792
   57MOL    C38 6870   1.898   4.064   7.091  0.2865  0.3146 -0.5267
   57MOL    C39 6871   1.935   4.173   6.983 -0.3687 -0.0376 -0.4957
   57MOL   Cl40 6872   2.072   4.110   6.896  0.0492  0.0383  0.0055
   57MOL    H41 6873   1.862   3.972   7.045  1.4326 -0.3477 -0.1196
   57MOL    H42 6874   1.984   4.035   7.150 -1.1201  3.0421  3.1347
   57MOL    H43 6875   1.859   4.180   6.905  0.5881 -2.7075 -1.7393
   57MOL    C44 6876   1.972   4.318   7.034  0.4145  0.4641  0.1645
   57MOL    C45 6877   1.999   4.422   6.930  0.5661  0.1262 -1.4702
   57MOL   Cl46 6878   2.109   4.535   7.013 -0.0199  0.2930 -0.0065
   57MOL    H47 6879   2.060   4.305   7.097 -0.8848 -0.8535  1.7577
   57MOL    H48 6880   1.885   4.353   7.091 -0.4925 -1.9600  0.3392
   57MOL    H49 6881   2.054   4.376   6.848 -0.2292 -0.2016 -1.8240
   57MOL    C50 6882   1.877   4.504   6.875 -0.4602 -0.1317  0.4702
   57MOL    C51 6883   1.770   4.446   6.787 -0.0849  0.4521 -0.3730
   57MOL   Cl52 6884   1.855   4.379   6.643 -0.4696 -0.0490  0.1132
   57MOL    H53 6885   1.923   4.582   6.814 -1.1206 -0.9664 -1.1070
   57MOL    H54 6886   1.833   4.558   6.959  0.4637 -0.3608  1.1161
   57MOL    H55 6887   1.728   4.355   6.830  1.4035 -0.6884 -1.2837
   57MOL    C56 6888   1.655   4.534   6.742 -0.2056  0.1702  0.8085
   57MOL    C57 6889   1.547   4.567   6.846  0.3524 -0.1939 -0.8179
   57MOL   Cl58 6890   1.476   4.422   6.921 -0.3719  0.0692 -0.1891
   57MOL    H59 6891   1.609   4.496   6.651  0.0992  1.0408  0.2866
   57MOL    H60 6892   1.702   4.620   6.696  0.6475 -0.9760 -0.4997
   57MOL    H61 6893   1.594   4.610   6.935 -0.9337  1.0658 -0.7399
   57MOL    C62 6894   1.436   4.659   6.791  0.0099  0.0022 -0.0662
   57MOL    C63 6895   1.492   4.792   6.722 -0.0858  0.1366 -1.0828
   57MOL   Cl64 6896   1.636   4.863   6.812 -0.2126 -0.1423 -0.0741
   57MOL    H65 6897   1.375   4.691   6.876  0.9430  0.1231  0.5588
   57MOL    H66 6898   1.361   4.619   6.722  1.6441  0.1456 -1.9641
   57MOL    H67 6899   1.518   4.766   6.619  0.8814  0.8844 -1.0260
   57MOL    C68 6900   1.390   4.905   6.726 -0.0896  0.1950  0.0583
   57MOL    C69 6901   1.253   4.887   6.666  0.1141 -0.6020 -0.1365
   57MOL   Cl70 6902   1.281   4.834   6.499 -0.0195  0.0404 -0.0280
   57MOL    H71 6903   1.433   4.995   6.681 -1.0196  0.7943  0.3425
   57MOL    H72 6904   1.382   4.930   6.832 -0.3489  2.5192 -0.4820
   57MOL    H73 6905   1.204   4.804   6.716 -0.3007 -0.6026 -0.5434
   57MOL    C74 6906   1.173   5.018   6.668 -0.4400 -0.6481 -0.6823
   57MOL    C75 6907   1.028   5.009   6.655 -0.3801  0.3570 -0.1384
   57MOL   Cl76 6908   0.965   4.901   6.779  0.4852 -0.2033  0.1030
   57MOL    H77 6909   1.197   5.080   6.582 -1.7442  1.6404  0.5450
   57MOL    H78 6910   1.205   5.069   6.759 -1.3295 -0.7053 -0.3363
   57MOL    H79 6911   0.986   5.106   6.681 -1.6901 -0.2717  0.1416
   57MOL    C80 6912   0.978   4.946   6.515  0.6058 -0.1872 -0.8105
   57MOL    C81 6913   0.832   4.962   6.467 -0.2517  0.2044  0.2513
   57MOL   Cl82 6914   0.794   5.134   6.445 -0.0859  0.2668  0.2311
   57MOL    H83 6915   0.999   4.840   6.529 -1.9210 -0.5849  0.1282
   57MOL    H84 6916   1.043   4.986   6.437 -1.6717  1.0055 -2.1437
   57MOL    H85 6917   0.832   4.924   6.365  2.3352 -1.1625  0.7294
   57MOL    C86 6918   0.715   4.903   6.552 -0.1088  0.2079  0.1281
   57MOL    C87 6919   0.708   4.749   6.546  0.3210 -0.1892 -0.1759
   57MOL   Cl88 6920   0.664   4.688   6.387 -0.2993 -0.2889  0.0498
   57MOL    H89 6921   0.615   4.934   6.522 -1.1878 -0.3977  3.0155
   57MOL    H90 6922   0.723   4.945   6.652  1.5046  1.5574 -0.5310
   57MOL    H91 6923   0.805   4.702   6.562 -0.6628 -1.4338  2.4841
   57MOL    C92 6924   0.620   4.696   6.661 -0.3206  0.1217  0.2592
   57MOL    C93 6925   0.636   4.550   6.705  0.3087 -0.2350 -0.7283
   57MOL   Cl94 6926   0.799   4.509   6.770 -0.1214 -0.0502 -0.0895
   57MOL    H95 6927   0.515   4.711   6.638 -0.1964 -1.3749 -1.3639
   57MOL    H96 6928   0.653   4.757   6.746 -0.0428  0.2134  0.0846
   57MOL    H97 6929   0.560   4.537   6.782 -0.9091 -2.2123 -2.2234
   57MOL    C98 6930   0.598   4.444   6.598 -0.2986 -1.0964 -0.3132
   57MOL    C99 6931   0.454   4.451   6.541  0.1429 -0.0389 -0.1242
   57MOL  Cl100 6932   0.329   4.455   6.668 -0.0298  0.0728 -0.3369
   57MOL   H101 6933   0.598   4.346   6.645 -0.3444 -0.6862  0.5677
   57MOL   H102 6934   0.674   4.450   6.521 -1.3827  2.0001 -1.2304
   57MOL   H103 6935   0.443   4.548   6.493  1.8907  0.4157  0.3667
   57MOL   C104 6936   0.428   4.333   6.446 -0.4348  0.1970  0.9730
   57MOL   C105 6937   0.502   4.334   6.309  0.7900 -0.5720  0.9631
   57MOL  Cl106 6938   0.445   4.469   6.208 -0.0591  0.0326 -0.3758
   57MOL   H107 6939   0.322   4.343   6.421 -0.6511 -0.3938  1.6360
   57MOL   H108 6940   0.441   4.234   6.491 -2.3024  0.1150  1.3888
   57MOL   H109 6941   0.610   4.346   6.320  0.1708  4.1521  2.8577
   57MOL   C110 6942   0.470   4.204   6.232  0.0845  0.3804  0.2065
   57MOL   C111 6943   0.535   4.199   6.092 -0.3327 -0.6504 -0.3034
   57MOL  Cl112 6944   0.450   4.067   6.004 -0.3461 -0.2323 -0.3354
   57MOL   H113 6945   0.363   4.194   6.214 -0.5030 -0.4049  3.6584
   57MOL   H114 6946   0.507   4.119   6.290  2.6798 -0.0488 -2.0000
   57MOL   H115 6947   0.535   4.299   6.048 -0.9349  0.1026  1.3877
   57MOL   C116 6948   0.677   4.146   6.109 -0.2507  0.0726 -0.3611
   57MOL   C117 6949   0.761   4.159   5.975 -0.5219  0.8435  0.1055
   57MOL  Cl118 6950   0.819   4.329   5.956 -0.0887 -0.6469  0.2215
   57MOL   H119 6951   0.671   4.041   6.137  1.1715 -0.1898 -1.0158
   57MOL   H120 6952   0.719   4.188   6.201 -0.5383 -1.9267  0.7093
   57MOL   H121 6953   0.846   4.092   5.972  0.6391  2.3170 -0.4566
   57MOL   H122 6954   0.705   4.133   5.884 -0.5273 -0.7965  0.5667
   58MOL     C1 6955   1.431   2.615   5.758 -0.6802 -0.6408  0.3458
   58MOL     C2 6956   1.354   2.609   5.886  0.5267 -0.3634  0.3320
   58MOL    Cl3 6957   1.240   2.748   5.889 -0.1652  0.4905  0.1705
   58MOL     H4 6958   1.375   2.591   5.668  0.8173 -0.0263 -0.7755
   58MOL     H5 6959   1.476   2.713   5.745  0.2437 -1.3075 -1.7034
   58MOL     H6 6960   1.294   2.518   5.895 -0.8870  0.5488  0.2880
   58MOL     H7 6961   1.518   2.549   5.754 -0.0562  0.1279  0.8957
   58MOL     C8 6962   1.449   2.630   6.005 -0.3747 -0.2453 -0.3092
   58MOL     C9 6963   1.527   2.507   6.049  0.8077 -0.0526  0.4257
   58MOL   Cl10 6964   1.399   2.386   6.111 -0.0454 -0.1348 -0.2479
   58MOL    H11 6965   1.387   2.665   6.088 -1.6955 -2.3754 -0.3638
   58MOL    H12 6966   1.513   2.710   5.970  1.4495 -1.9368 -0.8985
   58MOL    H13 6967   1.573   2.444   5.973 -0.0248  1.1292 -1.0721
   58MOL    C14 6968   1.612   2.530   6.171 -0.3408 -0.1321  0.3580
   58MOL    C15 6969   1.729   2.634   6.162 -0.3959 -0.3381 -0.1684
   58MOL   Cl16 6970   1.845   2.601   6.031  0.0050 -0.1818  0.0295
   58MOL    H17 6971   1.660   2.437   6.201 -3.0976 -1.0350  2.2508
   58MOL    H18 6972   1.550   2.556   6.258  0.6764 -0.1051  1.0811
   58MOL    H19 6973   1.698   2.735   6.136 -0.4076 -0.9632 -2.6921
   58MOL    C20 6974   1.818   2.650   6.289 -0.4410  1.0333  0.4782
   58MOL    C21 6975   1.738   2.697   6.415  0.3784  0.2834  0.2773
   58MOL   Cl22 6976   1.663   2.849   6.374 -0.2458 -0.2684  0.2032
   58MOL    H23 6977   1.902   2.717   6.272  3.5438 -3.9681 -0.5788
   58MOL    H24 6978   1.874   2.559   6.309 -1.5726  0.0068 -0.8804
   58MOL    H25 6979   1.654   2.632   6.439  1.1709  0.1298  2.7646
   58MOL    C26 6980   1.833   2.727   6.540  1.2519 -0.1310  0.0657
   58MOL    C27 6981   1.771   2.742   6.679 -0.7707  0.1249 -0.3910
   58MOL   Cl28 6982   1.621   2.834   6.673  0.3353 -0.1489  0.5989
   58MOL    H29 6983   1.897   2.812   6.516  1.7272 -0.0812  1.4440
   58MOL    H30 6984   1.903   2.646   6.557  2.1823  1.1520  2.6085
   58MOL    H31 6985   1.742   2.643   6.713  0.1091 -0.7350 -2.0695
   58MOL    C32 6986   1.865   2.796   6.784  0.0397 -0.2068 -0.5164
   58MOL    C33 6987   1.818   2.834   6.931 -0.4020 -0.2009  0.2906
   58MOL   Cl34 6988   1.751   2.999   6.923  0.1827  0.0177  0.2109
   58MOL    H35 6989   1.909   2.890   6.750  0.1282 -0.7094 -1.8573
   58MOL    H36 6990   1.947   2.725   6.792  0.3977  0.1355 -1.0674
   58MOL    H37 6991   1.729   2.777   6.959  0.1455 -2.3376 -2.1154
   58MOL    C38 6992   1.933   2.836   7.034  0.1003 -0.5230 -0.0221
   58MOL    C39 6993   1.901   2.883   7.177  0.8018 -0.1234  0.1641
   58MOL   Cl40 6994   2.055   2.889   7.265 -0.3365 -0.2196 -0.8701
   58MOL    H41 6995   2.014   2.889   6.983 -0.3715 -1.1381 -1.4401
   58MOL    H42 6996   1.958   2.731   7.046 -0.1085 -0.4207  1.3141
   58MOL    H43 6997   1.877   2.988   7.160 -3.0044 -0.9535 -0.0203
   58MOL    C44 6998   1.800   2.796   7.263  0.3282 -0.0054 -0.4548
   58MOL    C45 6999   1.731   2.864   7.391  0.6847  0.3162 -0.6587
   58MOL   Cl46 7000   1.673   2.732   7.494  0.0255 -0.0495  0.3198
   58MOL    H47 7001   1.852   2.710   7.307 -1.6016  0.0591  2.0702
   58MOL    H48 7002   1.727   2.750   7.197 -1.0792  1.7852 -0.1917
   58MOL    H49 7003   1.810   2.906   7.453 -2.3994 -0.4392  4.0124
   58MOL    C50 7004   1.617   2.957   7.373  0.5134 -0.2309  0.4883
   58MOL    C51 7005   1.638   3.097   7.309 -0.2054 -0.0830  0.5301
   58MOL   Cl52 7006   1.777   3.188   7.380 -0.1791  0.3654  0.1403
   58MOL    H53 7007   1.563   2.971   7.466 -0.7608 -0.9828 -0.1167
   58MOL    H54 7008   1.551   2.916   7.296 -1.9062  1.8276  1.4181
   58MOL    H55 7009   1.673   3.074   7.209  0.4367 -2.0409  1.1698
   58MOL    C56 7010   1.510   3.189   7.319  0.7624  0.3613 -0.5106
   58MOL    C57 7011   1.471   3.273   7.193 -0.4003 -0.2842 -0.0227
   58MOL   Cl58 7012   1.304   3.326   7.224  0.4021 -0.6432  0.1253
   58MOL    H59 7013   1.526   3.252   7.407  0.3068  2.4616 -1.9028
   58MOL    H60 7014   1.424   3.125   7.339 -0.9156  2.2395 -1.6476
   58MOL    H61 7015   1.538   3.358   7.199  0.6021 -1.1592  1.7602
   58MOL    C62 7016   1.475   3.188   7.067 -0.5304  0.1644  0.1912
   58MOL    C63 7017   1.417   3.247   6.935 -0.3380  0.3580  0.4035
   58MOL   Cl64 7018   1.424   3.115   6.814  0.3124  0.1195 -0.0546
   58MOL    H65 7019   1.417   3.097   7.083  1.1500 -0.4635  3.1610
   58MOL    H66 7020   1.580   3.168   7.043 -0.5356  0.9046 -0.4506
   58MOL    H67 7021   1.310   3.268   6.940 -1.0397 -2.8941  0.2814
   58MOL    C68 7022   1.501   3.366   6.879 -1.0027  0.2249 -0.0279
   58MOL    C69 7023   1.436   3.440   6.763  0.4481 -0.1535  0.3576
   58MOL   Cl70 7024   1.555   3.536   6.679  0.0800 -0.0320 -0.3951
   58MOL    H71 7025   1.598   3.325   6.852 -2.1721 -0.6723 -3.1912
   58MOL    H72 7026   1.512   3.436   6.961  0.3678 -1.6909  1.4583
   58MOL    H73 7027   1.413   3.359   6.694  1.1446 -0.9289  1.0195
   58MOL    C74 7028   1.308   3.528   6.790  0.4806 -0.2442 -0.1341
   58MOL    C75 7029   1.221   3.569   6.669  0.1354  0.8092 -0.1672
   58MOL   Cl76 7030   1.070   3.667   6.716  0.2973  0.4427  0.4925
   58MOL    H77 7031   1.338   3.613   6.851  0.1078  0.0011 -0.2926
   58MOL    H78 7032   1.242   3.469   6.854  1.9297  0.7036  2.2964
   58MOL    H79 7033   1.275   3.645   6.613 -0.1204  0.9273 -0.2560
   58MOL    C80 7034   1.194   3.461   6.562  0.1691 -0.5537  0.1963
   58MOL    C81 7035   1.129   3.323   6.602  0.0569 -0.1389  0.1927
   58MOL   Cl82 7036   1.183   3.207   6.484  0.1103 -0.2967 -0.3570
   58MOL    H83 7037   1.293   3.448   6.518 -0.3700  0.7937 -1.4982
   58MOL    H84 7038   1.140   3.495   6.474 -0.7678 -1.1640  0.5325
   58MOL    H85 7039   1.177   3.284   6.692 -0.4235 -0.0222  0.4999
   58MOL    C86 7040   0.981   3.320   6.616  0.3642  0.2232 -0.4726
   58MOL    C87 7041   0.921   3.177   6.667 -0.7203  1.2958 -0.3013
   58MOL   Cl88 7042   0.764   3.164   6.583  0.1035  0.3034 -0.8403
   58MOL    H89 7043   0.926   3.361   6.531 -2.0631 -2.7215 -0.4219
   58MOL    H90 7044   0.961   3.394   6.693  3.0882 -0.2240  0.7241
   58MOL    H91 7045   0.981   3.092   6.635 -1.5307 -0.4072  2.5717
   58MOL    C92 7046   0.898   3.160   6.822  0.2149 -0.3316 -0.8516
   58MOL    C93 7047   1.027   3.136   6.910 -0.1359 -0.8532 -0.3204
   58MOL   Cl94 7048   1.114   2.996   6.866  0.0385 -0.1972 -0.0634
   58MOL    H95 7049   0.824   3.081   6.832 -0.5553  0.5336  0.4627
   58MOL    H96 7050   0.846   3.253   6.846  0.2581  0.2017 -2.7040
   58MOL    H97 7051   1.087   3.226   6.897 -2.7114  0.6095 -2.6822
   58MOL    C98 7052   1.001   3.124   7.056  0.2328 -0.0979 -0.0621
   58MOL    C99 7053   0.920   3.244   7.117 -0.0502  0.2158  0.9681
   58MOL  Cl100 7054   1.012   3.394   7.096 -0.3689  0.0587  0.0510
   58MOL   H101 7055   1.095   3.124   7.112  1.2670 -1.2393 -1.7703
   58MOL   H102 7056   0.947   3.031   7.079 -0.3558  0.6023  1.4652
   58MOL   H103 7057   0.824   3.252   7.066  0.0956 -3.0340  0.0442
   58MOL   C104 7058   0.891   3.229   7.269 -0.0820 -0.1041  0.4662
   58MOL   C105 7059   0.809   3.349   7.327 -0.4604  0.6380  0.2275
   58MOL  Cl106 7060   0.782   3.305   7.492  0.2221  0.2059  0.2808
   58MOL   H107 7061   0.982   3.221   7.328  1.0589 -1.2642 -1.4279
   58MOL   H108 7062   0.841   3.132   7.277 -2.2898  0.6757 -2.7760
   58MOL   H109 7063   0.868   3.441   7.325 -0.9620  1.0754  3.2495
   58MOL   C110 7064   0.670   3.376   7.265 -0.5064  0.3983 -0.3185
   58MOL   C111 7065   0.582   3.496   7.310 -0.2469  0.1800 -0.1816
   58MOL  Cl112 7066   0.433   3.504   7.217 -0.2861 -0.1478 -0.0965
   58MOL   H113 7067   0.612   3.283   7.268 -0.9724  0.6646 -1.0453
   58MOL   H114 7068   0.681   3.393   7.158  0.4830  0.6413 -0.1805
   58MOL   H115 7069   0.542   3.471   7.409 -0.8358 -2.2417 -0.9904
   58MOL   C116 7070   0.647   3.632   7.303 -0.4076  0.3370  0.4901
   58MOL   C117 7071   0.723   3.674   7.428 -0.4979 -0.1395  0.5812
   58MOL  Cl118 7072   0.876   3.754   7.381 -0.0629  0.0549 -0.1572
   58MOL   H119 7073   0.585   3.719   7.279 -0.4798  0.4705  1.1743
   58MOL   H120 7074   0.721   3.622   7.223 -0.1054  0.2368  0.7813
   58MOL   H121 7075   0.677   3.745   7.496 -0.6955 -0.1893  0.5011
   58MOL   H122 7076   0.756   3.596   7.496  2.8517 -0.1654 -0.9632
   59MOL     C1 7077   6.201   6.027   1.001 -0.0271 -0.9086 -0.0619
   59MOL     C2 7078   6.286   6.121   0.911 -0.0945 -0.7574  0.5927
   59MOL    Cl3 7079   6.245   6.108   0.738 -0.0769 -0.2565 -0.1764
   59MOL     H4 7080   6.234   5.924   0.994  0.4048 -0.6804 -1.5160
   59MOL     H5 7081   6.218   6.058   1.104 -0.8394  1.1614 -0.5193
   59MOL     H6 7082   6.249   6.220   0.937  0.8363 -0.6573  1.5795
   59MOL     H7 7083   6.094   6.035   0.985 -0.2509  0.5627  1.9667
   59MOL     C8 7084   6.433   6.109   0.948 -0.2071  0.6357  0.3263
   59MOL     C9 7085   6.533   6.212   0.901  0.2999  0.2612  0.7464
   59MOL   Cl10 7086   6.500   6.369   0.961  0.2507  0.0777 -0.1883
   59MOL    H11 7087   6.474   6.015   0.910  0.2384  0.9083  0.1257
   59MOL    H12 7088   6.441   6.102   1.056  0.4311  1.7839  0.3623
   59MOL    H13 7089   6.630   6.185   0.943  0.0622  0.3674  1.3704
   59MOL    C14 7090   6.548   6.228   0.742 -0.2278 -0.0089 -0.2086
   59MOL    C15 7091   6.568   6.099   0.663 -0.1029  0.1546 -0.1348
   59MOL   Cl16 7092   6.706   6.008   0.725  0.1156 -0.3235 -0.1281
   59MOL    H17 7093   6.637   6.286   0.719  1.1043 -1.3034  1.5575
   59MOL    H18 7094   6.461   6.282   0.705  1.4433  2.4313 -0.7281
   59MOL    H19 7095   6.482   6.035   0.680  0.2439 -0.2640  0.0474
   59MOL    C20 7096   6.576   6.113   0.512 -0.2685  0.2744 -0.0182
   59MOL    C21 7097   6.698   6.203   0.477  0.5860  0.4635 -0.4997
   59MOL   Cl22 7098   6.661   6.383   0.472  0.3713 -0.1128 -0.0021
   59MOL    H23 7099   6.483   6.146   0.465  0.1886  0.4961 -0.7904
   59MOL    H24 7100   6.585   6.016   0.462  0.3633 -0.5453  1.6643
   59MOL    H25 7101   6.785   6.192   0.542 -0.8089 -1.5348  1.0686
   59MOL    C26 7102   6.773   6.176   0.339 -0.0759 -0.6580  0.1936
   59MOL    C27 7103   6.828   6.034   0.317  0.2803 -0.5912  0.3609
   59MOL   Cl28 7104   6.963   6.001   0.431  0.3914  0.0181 -0.4191
   59MOL    H29 7105   6.856   6.245   0.326 -1.3636  1.0914  1.1562
   59MOL    H30 7106   6.708   6.195   0.253 -1.1988 -1.4757  0.8439
   59MOL    H31 7107   6.752   5.959   0.337  0.6691 -1.3973 -1.1409
   59MOL    C32 7108   6.871   6.029   0.168  0.3581 -0.0773  0.1009
   59MOL    C33 7109   6.897   5.882   0.115 -0.3952  0.3872  0.1527
   59MOL   Cl34 7110   6.745   5.793   0.102  0.2962 -0.0063 -0.0574
   59MOL    H35 7111   6.949   6.101   0.145  0.8033 -0.9237 -1.0951
   59MOL    H36 7112   6.796   6.071   0.101 -0.1694  0.9155  1.2960
   59MOL    H37 7113   6.931   5.889   0.012  0.3669  3.0813  0.5572
   59MOL    C38 7114   7.014   5.800   0.186  0.3627 -0.4377  0.1072
   59MOL    C39 7115   7.102   5.714   0.092 -0.3760  0.0385 -0.7447
   59MOL   Cl40 7116   7.183   5.807   8.490 -0.0087  0.0803  0.1591
   59MOL    H41 7117   6.967   5.751   0.271  1.2961 -1.7411 -0.1269
   59MOL    H42 7118   7.075   5.877   0.234 -0.8255 -0.2151  1.3082
   59MOL    H43 7119   7.185   5.678   0.153 -1.3053 -1.2764 -0.2259
   59MOL    C44 7120   7.030   5.599   0.023  0.2806 -0.9493 -0.2268
   59MOL    C45 7121   6.948   5.515   0.121 -0.3141 -0.0017  0.3249
   59MOL   Cl46 7122   7.051   5.447   0.253  0.1891 -0.1954 -0.1022
   59MOL    H47 7123   7.100   5.536   8.493 -0.6953 -0.2643 -2.2876
   59MOL    H48 7124   6.971   5.651   8.473  1.6321  0.9819  0.0196
   59MOL    H49 7125   6.865   5.568   0.168 -2.0437 -1.9397 -0.4254
   59MOL    C50 7126   6.875   5.399   0.041  0.1525 -0.4490  0.1790
   59MOL    C51 7127   6.782   5.296   0.125  0.3194 -0.5399  0.1188
   59MOL   Cl52 7128   6.704   5.181   0.017 -0.0171  0.1835  0.4182
   59MOL    H53 7129   6.951   5.344   8.510 -0.4280 -0.1152 -0.9484
   59MOL    H54 7130   6.804   5.447   8.499 -0.4321 -1.4045  0.1054
   59MOL    H55 7131   6.846   5.243   0.195  0.8000  0.1972  0.2418
   59MOL    C56 7132   6.677   5.360   0.215  0.4079 -0.1452 -0.1889
   59MOL    C57 7133   6.648   5.288   0.359 -0.1831  0.6257 -0.4231
   59MOL   Cl58 7134   6.798   5.259   0.448 -0.0323 -0.1642 -0.1799
   59MOL    H59 7135   6.581   5.383   0.170  1.2857  0.2884 -1.8667
   59MOL    H60 7136   6.717   5.459   0.237  2.1525 -1.0442  0.8641
   59MOL    H61 7137   6.593   5.357   0.422  0.6869  0.7970  0.1633
   59MOL    C62 7138   6.580   5.154   0.350 -0.1782 -0.2254  0.0699
   59MOL    C63 7139   6.461   5.125   0.434  0.1602 -0.7846 -0.2044
   59MOL   Cl64 7140   6.323   5.223   0.375  0.1759 -0.1260 -0.0484
   59MOL    H65 7141   6.642   5.065   0.363  0.1937 -0.2599 -1.8071
   59MOL    H66 7142   6.527   5.142   0.255 -0.7207  0.7848  0.2397
   59MOL    H67 7143   6.425   5.025   0.412 -0.1134 -0.7138 -0.0829
   59MOL    C68 7144   6.473   5.135   0.588 -0.7647 -0.9525  0.2680
   59MOL    C69 7145   6.546   5.024   0.647  0.0357 -0.1167 -0.8113
   59MOL   Cl70 7146   6.433   4.878   0.649  0.0728 -0.1093  0.0382
   59MOL    H71 7147   6.372   5.146   0.628 -0.3147 -0.4979  1.3102
   59MOL    H72 7148   6.535   5.223   0.603 -0.9204 -0.8096  0.0517
   59MOL    H73 7149   6.627   5.000   0.578  1.7611  1.3287  0.6685
   59MOL    C74 7150   6.595   5.045   0.794  0.5938  0.1136  0.4514
   59MOL    C75 7151   6.722   5.140   0.819  0.3085  0.5272 -0.0880
   59MOL   Cl76 7152   6.858   5.061   0.737 -0.0727  0.1637 -0.1061
   59MOL    H77 7153   6.615   4.948   0.840 -1.2210 -0.6534 -0.3316
   59MOL    H78 7154   6.503   5.079   0.842  0.5355 -0.4582  0.7490
   59MOL    H79 7155   6.700   5.230   0.761  0.1216  0.9592  0.6323
   59MOL    C80 7156   6.750   5.182   0.970 -0.1944  0.2308 -0.6076
   59MOL    C81 7157   6.843   5.295   0.991 -0.3668  0.3793 -0.5612
   59MOL   Cl82 7158   6.868   5.315   1.170  0.1728  0.2186 -0.1455
   59MOL    H83 7159   6.801   5.096   1.014 -0.3009  0.6043  0.2687
   59MOL    H84 7160   6.657   5.186   1.026 -1.1007 -3.6955 -1.7334
   59MOL    H85 7161   6.939   5.275   0.943  0.3858 -0.0339  1.0852
   59MOL    C86 7162   6.791   5.428   0.924 -0.7268  0.1435 -0.1980
   59MOL    C87 7163   6.663   5.495   0.985  0.2356  0.0516  0.3716
   59MOL   Cl88 7164   6.509   5.447   0.892 -0.0323 -0.2221 -0.1764
   59MOL    H89 7165   6.792   5.423   0.816 -1.1840  2.8598 -0.3803
   59MOL    H90 7166   6.869   5.503   0.942 -0.4176 -0.3280  0.4494
   59MOL    H91 7167   6.647   5.451   1.083  0.5263 -1.1021 -0.0907
   59MOL    C92 7168   6.663   5.650   0.997 -0.4945 -0.0481  0.0776
   59MOL    C93 7169   6.665   5.700   1.139 -0.4832 -0.1007 -1.0847
   59MOL   Cl94 7170   6.496   5.701   1.197 -0.3263  0.3232 -0.3426
   59MOL    H95 7171   6.567   5.689   0.962 -0.5377 -0.2441 -0.0214
   59MOL    H96 7172   6.735   5.696   0.930  0.7010 -0.1279  1.2850
   59MOL    H97 7173   6.722   5.627   1.197  1.1273  0.5971 -1.7632
   59MOL    C98 7174   6.714   5.846   1.140  0.2607 -0.1301 -1.0498
   59MOL    C99 7175   6.725   5.909   1.286 -0.5696 -0.6488 -0.0528
   59MOL  Cl100 7176   6.745   6.092   1.276  0.2913 -0.1499 -0.0714
   59MOL   H101 7177   6.644   5.908   1.083 -1.2041  2.5913  3.4555
   59MOL   H102 7178   6.811   5.844   1.090  0.0280  0.5750 -1.5483
   59MOL   H103 7179   6.630   5.892   1.337 -3.2734  1.8645 -3.9851
   59MOL   C104 7180   6.830   5.846   1.370 -0.7999  0.4622  0.3742
   59MOL   C105 7181   6.851   5.897   1.505  0.1789 -0.5926  0.0359
   59MOL  Cl106 7182   6.996   5.817   1.575 -0.0755  0.0530  0.0010
   59MOL   H107 7183   6.921   5.866   1.314 -1.9169  2.8495 -0.6408
   59MOL   H108 7184   6.817   5.738   1.382  2.9482 -0.1289 -0.2467
   59MOL   H109 7185   6.880   6.002   1.508 -1.1551 -0.2021 -0.5424
   59MOL   C110 7186   6.730   5.872   1.607  0.4754 -0.2227  0.4037
   59MOL   C111 7187   6.717   5.957   1.737  0.0395  0.5020 -0.1408
   59MOL  Cl112 7188   6.666   6.115   1.676 -0.2342  0.1474 -0.1513
   59MOL   H113 7189   6.737   5.767   1.633  0.9390 -0.5375 -0.9358
   59MOL   H114 7190   6.634   5.868   1.557  0.8242  1.9103 -0.4930
   59MOL   H115 7191   6.631   5.921   1.795 -1.0517  0.4409 -1.7712
   59MOL   C116 7192   6.846   5.985   1.816 -0.2247  1.0619  0.1679
   59MOL   C117 7193   6.830   6.086   1.929 -0.3275 -0.7229  1.0004
   59MOL  Cl118 7194   6.990   6.102   2.005  0.0521  0.3779  0.5776
   59MOL   H119 7195   6.935   6.000   1.756 -1.4232  1.5741 -1.5387
   59MOL   H120 7196   6.870   5.894   1.871  2.1119  1.0791 -0.7956
   59MOL   H121 7197   6.796   6.186   1.903  0.5092 -1.0889 -1.6978
   59MOL   H122 7198   6.757   6.051   2.001 -0.2824 -1.4432  0.7055
   60MOL     C1 7199   6.113   0.283   0.669  0.5325 -0.6234 -0.5407
   60MOL     C2 7200   6.004   0.263   0.561 -0.8136 -0.6662  0.4749
   60MOL    Cl3 7201   5.871   0.368   0.614 -0.1672  0.3623  0.1839
   60MOL     H4 7202   6.140   0.388   0.681 -1.8605 -0.3258  3.2863
   60MOL     H5 7203   6.089   0.246   0.769  1.3574  0.4101  0.0621
   60MOL     H6 7204   6.038   0.302   0.465 -0.4390  2.0397  1.6567
   60MOL     H7 7205   6.205   0.230   0.643  0.0767 -1.5135 -0.3516
   60MOL     C8 7206   5.964   0.114   0.545  0.5272 -0.0440  0.3469
   60MOL     C9 7207   6.069   0.019   0.494 -0.7335  0.1531 -0.1514
   60MOL   Cl10 7208   6.112   0.063   0.327 -0.0323 -0.2772 -0.0640
   60MOL    H11 7209   5.880   0.108   0.475  0.0332  0.3412  0.9025
   60MOL    H12 7210   5.916   0.078   0.636  0.1488  0.7486  0.4654
   60MOL    H13 7211   6.157   0.034   0.555 -1.4957 -1.8488  1.4937
   60MOL    C14 7212   6.022   8.397   0.500 -0.2257  0.4745 -0.3553
   60MOL    C15 7213   6.128   8.292   0.475  0.2800  0.5476  0.3449
   60MOL   Cl16 7214   6.065   8.141   0.400  0.2104  0.0586 -0.1396
   60MOL    H17 7215   5.943   8.381   0.428 -1.2328 -0.0659  0.8608
   60MOL    H18 7216   5.969   8.384   0.594 -1.7114  0.5553 -1.1640
   60MOL    H19 7217   6.201   8.332   0.404 -0.1804  0.6937 -0.0447
   60MOL    C20 7218   6.180   8.237   0.607 -0.4207 -0.6116 -0.4411
   60MOL    C21 7219   6.295   8.144   0.586 -0.4768 -0.0848  0.0742
   60MOL   Cl22 7220   6.315   8.046   0.733 -0.3368 -0.3877 -0.4473
   60MOL    H23 7221   6.100   8.185   0.659 -0.1223 -2.0794 -1.4237
   60MOL    H24 7222   6.222   8.313   0.673  2.4516 -0.7052 -2.1177
   60MOL    H25 7223   6.274   8.058   0.523  2.6380 -0.5180 -0.4470
   60MOL    C26 7224   6.432   8.207   0.553 -0.2017  0.1171 -0.9957
   60MOL    C27 7225   6.542   8.109   0.525  0.1603  0.1629  0.1187
   60MOL   Cl28 7226   6.692   8.198   0.482 -0.2863  0.0521  0.3777
   60MOL    H29 7227   6.461   8.269   0.638 -3.1305  1.3728 -0.8701
   60MOL    H30 7228   6.423   8.271   0.466 -1.0551  0.8541 -0.3773
   60MOL    H31 7229   6.556   8.070   0.626 -2.4060  2.1001  1.2567
   60MOL    C32 7230   6.511   8.007   0.412 -0.2932 -0.2521  0.4434
   60MOL    C33 7231   6.448   7.870   0.442  0.5039  0.8248 -0.6041
   60MOL   Cl34 7232   6.555   7.780   0.545 -0.1746 -0.0094 -0.0586
   60MOL    H35 7233   6.599   7.995   0.349  0.4567  3.0227  0.7697
   60MOL    H36 7234   6.443   8.059   0.344 -0.4301 -1.3716 -0.2858
   60MOL    H37 7235   6.353   7.878   0.495  0.1810  0.8872 -1.1903
   60MOL    C38 7236   6.428   7.765   0.317  0.4827 -0.5016 -0.4635
   60MOL    C39 7237   6.308   7.799   0.228 -0.0602  0.5939 -0.0854
   60MOL   Cl40 7238   6.158   7.753   0.316  0.1200  0.0088 -0.1293
   60MOL    H41 7239   6.414   7.668   0.363 -0.9905 -0.4492 -0.7840
   60MOL    H42 7240   6.525   7.762   0.267  0.6145  1.4914 -0.3758
   60MOL    H43 7241   6.295   7.904   0.199 -2.4207  0.6445  0.9905
   60MOL    C44 7242   6.297   7.711   0.098 -0.2396  0.3573  0.0034
   60MOL    C45 7243   6.379   7.754   8.497  0.2829  0.1529  0.3533
   60MOL   Cl46 7244   6.313   7.905   8.433 -0.3526  0.1015 -0.1614
   60MOL    H47 7245   6.193   7.691   0.073 -0.9151 -1.0510  3.6681
   60MOL    H48 7246   6.334   7.614   0.130  1.2463  0.4892 -1.2223
   60MOL    H49 7247   6.485   7.759   8.520  0.4298  3.0909 -0.7899
   60MOL    C50 7248   6.366   7.643   8.387 -0.5486 -0.5368  0.0482
   60MOL    C51 7249   6.462   7.637   8.272 -0.5912 -1.5267  0.0589
   60MOL   Cl52 7250   6.627   7.634   8.323  0.0598  0.0135 -0.0189
   60MOL    H53 7251   6.266   7.638   8.344 -0.1653 -0.7011 -0.8241
   60MOL    H54 7252   6.380   7.548   8.438 -1.5257 -0.8270 -0.2094
   60MOL    H55 7253   6.448   7.538   8.227  0.5178 -1.1395 -1.1666
   60MOL    C56 7254   6.446   7.743   8.160 -0.5088  0.2181 -0.8852
   60MOL    C57 7255   6.307   7.737   8.087 -0.4910 -0.2874 -0.1616
   60MOL   Cl58 7256   6.304   7.581   8.004  0.0014  0.2573 -0.2277
   60MOL    H59 7257   6.518   7.711   8.085  1.2298  0.7306  0.5187
   60MOL    H60 7258   6.473   7.846   8.182 -0.4808  0.2997 -1.3056
   60MOL    H61 7259   6.223   7.744   8.155 -0.8004  1.0700 -0.6747
   60MOL    C62 7260   6.284   7.854   7.984  0.0125  0.5042  1.0321
   60MOL    C63 7261   6.156   7.843   7.894 -0.9516  0.0207  0.2600
   60MOL   Cl64 7262   6.147   7.996   7.812 -0.0446 -0.6742 -0.2865
   60MOL    H65 7263   6.368   7.863   7.915  0.9420  0.5613  2.1762
   60MOL    H66 7264   6.274   7.943   8.045 -2.9309  0.5130  0.6088
   60MOL    H67 7265   6.173   7.772   7.813 -1.4373 -0.4839  0.5936
   60MOL    C68 7266   6.021   7.816   7.969 -0.4836 -0.7260 -0.4565
   60MOL    C69 7267   5.915   7.744   7.894 -0.9291 -0.7880 -0.0955
   60MOL   Cl70 7268   5.852   7.859   7.780 -0.1297  0.0291 -0.1623
   60MOL    H71 7269   5.989   7.914   8.004  1.7918 -0.2439  0.3604
   60MOL    H72 7270   6.043   7.769   8.065  0.1270 -0.0488 -0.2622
   60MOL    H73 7271   5.958   7.660   7.840 -0.2722 -0.1892 -0.5146
   60MOL    C74 7272   5.794   7.700   7.978  0.6929 -0.1887  0.0287
   60MOL    C75 7273   5.806   7.574   8.061  0.0630 -0.2368  0.1512
   60MOL   Cl76 7274   5.849   7.440   7.946  0.0859  0.3092  0.1043
   60MOL    H77 7275   5.716   7.684   7.903  2.9484 -0.0889 -2.4000
   60MOL    H78 7276   5.767   7.781   8.046 -0.0750 -1.3293  1.1061
   60MOL    H79 7277   5.891   7.587   8.128 -0.3635  0.1877  0.6153
   60MOL    C80 7278   5.678   7.541   8.144 -0.2100  0.4266  0.1661
   60MOL    C81 7279   5.697   7.426   8.254  0.4187 -0.4795 -0.2195
   60MOL   Cl82 7280   5.734   7.270   8.178  0.1244 -0.2734 -0.1974
   60MOL    H83 7281   5.582   7.535   8.094  0.0409  1.0639 -0.4092
   60MOL    H84 7282   5.661   7.630   8.205  0.3869  0.9779 -0.4486
   60MOL    H85 7283   5.783   7.454   8.315  0.1423 -1.0212  0.4230
   60MOL    C86 7284   5.573   7.399   8.345  0.4711 -0.2426  0.6668
   60MOL    C87 7285   5.607   7.348   8.486  0.1103  0.3820  0.0224
   60MOL   Cl88 7286   5.712   7.473   0.041 -0.0369 -0.1760 -0.0657
   60MOL    H89 7287   5.509   7.325   8.297  1.0480  0.3157 -1.0210
   60MOL    H90 7288   5.528   7.499   8.339  0.0602 -0.2525  3.0221
   60MOL    H91 7289   5.512   7.345   0.014  0.1908 -1.2052  0.0988
   60MOL    C92 7290   5.670   7.210   8.495 -0.0152  0.2026 -0.8409
   60MOL    C93 7291   5.650   7.125   0.099 -0.2772 -0.0792 -0.0075
   60MOL   Cl94 7292   5.741   6.975   0.068  0.3428  0.1261  0.3855
   60MOL    H95 7293   5.775   7.221   8.469  0.1080 -1.3147 -1.0318
   60MOL    H96 7294   5.627   7.150   8.415  0.1225  0.5339 -1.1599
   60MOL    H97 7295   5.694   7.181   0.182 -2.9480  1.6839  0.2908
   60MOL    C98 7296   5.499   7.092   0.122 -0.1007 -0.5037  0.4071
   60MOL    C99 7297   5.457   7.024   0.252 -0.4989  0.3243 -0.0133
   60MOL  Cl100 7298   5.472   6.841   0.241 -0.0097 -0.1532 -0.3445
   60MOL   H101 7299   5.446   7.046   0.039 -0.0729 -1.0622  0.6928
   60MOL   H102 7300   5.442   7.184   0.131 -1.7470 -1.6462  2.2127
   60MOL   H103 7301   5.521   7.059   0.332  1.3939  0.6245 -1.6175
   60MOL   C104 7302   5.312   7.052   0.290  0.4414 -0.7810 -0.0315
   60MOL   C105 7303   5.265   7.014   0.438 -0.5063  0.3309 -0.0160
   60MOL  Cl106 7304   5.368   7.100   0.556 -0.1109 -0.0537  0.1021
   60MOL   H107 7305   5.262   6.999   0.209  2.1682 -2.1197 -0.2450
   60MOL   H108 7306   5.298   7.158   0.266 -0.2855 -0.9025 -0.1405
   60MOL   H109 7307   5.162   7.041   0.462 -0.5006 -1.1580  1.8220
   60MOL   C110 7308   5.268   6.871   0.485  0.5470 -0.9820  0.1815
   60MOL   C111 7309   5.176   6.772   0.414 -0.4513  0.5734  0.6078
   60MOL  Cl112 7310   5.014   6.797   0.452 -0.4737 -0.0298  0.1646
   60MOL   H113 7311   5.235   6.876   0.589 -1.6844 -0.4219 -0.5102
   60MOL   H114 7312   5.372   6.844   0.498  1.1435  0.0673 -2.1464
   60MOL   H115 7313   5.197   6.779   0.308  0.9804 -0.1385  0.8398
   60MOL   C116 7314   5.211   6.630   0.456  0.0829  0.2880 -0.1427
   60MOL   C117 7315   5.118   6.515   0.408  0.0935  0.2557  0.7579
   60MOL  Cl118 7316   5.111   6.509   0.232  0.1665  0.0356  0.0630
   60MOL   H119 7317   5.207   6.631   0.565  2.2509 -2.7364  0.0425
   60MOL   H120 7318   5.318   6.608   0.452 -0.2461 -1.1465 -1.7205
   60MOL   H121 7319   5.174   6.427   0.439  0.3012 -0.3694 -1.2937
   60MOL   H122 7320   5.017   6.502   0.446  0.2594 -1.6200  0.5987
   61MOL     C1 7321   6.725   1.226   6.777 -0.4462  0.1133 -0.7361
   61MOL     C2 7322   6.824   1.182   6.892  0.2416  1.2319  0.0282
   61MOL    Cl3 7323   6.825   1.308   7.013  0.4481 -0.2516  0.0521
   61MOL     H4 7324   6.752   1.319   6.728  1.7426 -0.3412 -0.4519
   61MOL     H5 7325   6.717   1.149   6.700 -2.2628 -0.5253  0.0555
   61MOL     H6 7326   6.787   1.091   6.938  0.4718  1.1946  0.1382
   61MOL     H7 7327   6.621   1.227   6.811 -0.0591 -1.1769  0.5823
   61MOL     C8 7328   6.966   1.158   6.849  0.1560  0.2851  0.0906
   61MOL     C9 7329   7.060   1.124   6.958 -0.2007 -0.2441 -0.1542
   61MOL   Cl10 7330   7.227   1.137   6.910  0.2907 -0.0590  0.2718
   61MOL    H11 7331   7.005   1.247   6.798  0.6180  0.6444  1.0663
   61MOL    H12 7332   6.980   1.082   6.772  0.8959 -1.0525  1.5300
   61MOL    H13 7333   7.056   1.204   7.031  3.2668  0.9161 -1.1767
   61MOL    C14 7334   7.036   0.976   7.019 -0.1572 -0.7502  0.3757
   61MOL    C15 7335   7.099   0.967   7.162  0.1001  0.1671  0.0174
   61MOL   Cl16 7336   7.193   0.813   7.183 -0.1977 -0.0781 -0.0793
   61MOL    H17 7337   7.084   0.901   6.956  0.2131  1.0991 -1.6068
   61MOL    H18 7338   6.931   0.948   7.023 -0.2102 -0.6747 -0.3618
   61MOL    H19 7339   7.179   1.041   7.164 -0.2754  0.5570  0.4499
   61MOL    C20 7340   7.002   0.975   7.273  0.3214 -0.1643 -0.2686
   61MOL    C21 7341   7.069   0.992   7.405  0.6670  0.5329  0.0452
   61MOL   Cl22 7342   6.942   0.982   7.532 -0.8019 -0.3074 -0.1089
   61MOL    H23 7343   6.954   0.877   7.274  0.8581 -0.4228  0.8476
   61MOL    H24 7344   6.928   1.047   7.238 -0.1709 -0.5222  0.0311
   61MOL    H25 7345   7.125   0.900   7.419 -1.1259 -0.6427 -0.3673
   61MOL    C26 7346   7.150   1.121   7.417 -0.0859  0.4688  0.6269
   61MOL    C27 7347   7.188   1.183   7.553 -0.2745 -0.3424  0.4192
   61MOL   Cl28 7348   7.185   1.355   7.547  0.0181 -0.1504 -0.0003
   61MOL    H29 7349   7.081   1.197   7.380 -0.7327 -0.2543  0.3543
   61MOL    H30 7350   7.240   1.129   7.356  0.3154  1.1393  1.2909
   61MOL    H31 7351   7.127   1.156   7.640  2.0890 -0.6310  2.0452
   61MOL    C32 7352   7.331   1.144   7.607  0.1413 -0.1335 -0.3119
   61MOL    C33 7353   7.363   0.996   7.638  0.2723  0.0349 -0.0618
   61MOL   Cl34 7354   7.232   0.945   7.749 -0.0045 -0.2257  0.1072
   61MOL    H35 7355   7.353   1.199   7.698  0.9661  0.3347 -0.7808
   61MOL    H36 7356   7.404   1.179   7.533 -1.0250  0.2736 -1.2789
   61MOL    H37 7357   7.335   0.943   7.546  0.4384  0.3074 -0.2704
   61MOL    C38 7358   7.507   0.974   7.690  0.1336 -0.1322  0.3670
   61MOL    C39 7359   7.531   0.837   7.738 -0.0742 -0.0558 -0.2745
   61MOL   Cl40 7360   7.701   0.839   7.800  0.1573  0.1359  0.2973
   61MOL    H41 7361   7.516   1.047   7.770  2.8039  0.0295 -0.0319
   61MOL    H42 7362   7.583   1.004   7.619  1.7789 -1.8393  1.3703
   61MOL    H43 7363   7.464   0.815   7.821 -1.7175  2.8553 -0.7634
   61MOL    C44 7364   7.510   0.734   7.627  0.2955  0.6213 -0.3329
   61MOL    C45 7365   7.530   0.586   7.650 -0.3899 -0.4488 -0.7615
   61MOL   Cl46 7366   7.424   0.545   7.781 -0.2837  0.0815  0.0765
   61MOL    H47 7367   7.578   0.763   7.546  1.7593  2.5036  1.5242
   61MOL    H48 7368   7.411   0.737   7.582  0.0054 -1.3780  0.1268
   61MOL    H49 7369   7.493   0.539   7.559  0.9986  1.8968 -2.5594
   61MOL    C50 7370   7.680   0.530   7.684 -0.1527  0.5379  0.4019
   61MOL    C51 7371   7.796   0.554   7.577 -0.5975  1.1077  0.1597
   61MOL   Cl52 7372   7.777   0.447   7.446  0.0707  0.3345 -0.1585
   61MOL    H53 7373   7.660   0.423   7.682 -0.1736  0.5436 -2.9857
   61MOL    H54 7374   7.724   0.556   7.780  0.5907  2.0844 -0.3437
   61MOL    H55 7375   7.792   0.650   7.526  0.0646  0.3598 -1.3336
   61MOL    C56 7376   7.937   0.528   7.635  0.1375  0.6873  0.7273
   61MOL    C57 7377   8.005   0.657   7.684 -0.2512  0.2233 -0.2264
   61MOL   Cl58 7378   8.037   0.763   7.547  0.2775 -0.2942 -0.2427
   61MOL    H59 7379   8.007   0.485   7.564 -1.7022 -0.0043 -0.7100
   61MOL    H60 7380   7.940   0.459   7.719  0.4780 -0.9636 -0.6237
   61MOL    H61 7381   7.949   0.709   7.762  0.7300  0.8261  0.0889
   61MOL    C62 7382   8.146   0.643   7.747 -0.2591  0.0740  0.7225
   61MOL    C63 7383   8.160   0.551   7.870 -0.4838 -0.5523 -0.1843
   61MOL   Cl64 7384   8.121   0.633   8.025 -0.2055  0.1331  0.0666
   61MOL    H65 7385   8.191   0.739   7.769 -0.1744 -0.2400  1.9550
   61MOL    H66 7386   8.211   0.607   7.667 -1.8318  0.4768 -0.7595
   61MOL    H67 7387   8.093   0.466   7.855 -0.0206 -1.2871  1.7190
   61MOL    C68 7388   8.307   0.497   7.876 -0.6581  0.6654 -0.0276
   61MOL    C69 7389   8.342   0.375   7.780 -0.4982  0.6804 -0.8260
   61MOL   Cl70 7390   8.239   0.239   7.835  0.0767 -0.0338  0.1078
   61MOL    H71 7391   8.329   0.472   7.980 -0.5508  0.4769 -0.0968
   61MOL    H72 7392   8.377   0.576   7.849 -0.3784 -0.1785 -1.7867
   61MOL    H73 7393   8.310   0.389   7.677  0.9915  1.2354 -1.2154
   61MOL    C74 7394   8.492   0.336   7.784 -0.4284  0.3883  0.6085
   61MOL    C75 7395   0.019   0.253   7.660 -0.1706 -0.1441  0.8843
   61MOL   Cl76 7396   0.161   0.164   7.712  0.2133 -0.0322 -0.2656
   61MOL    H77 7397   8.504   0.281   7.878  0.9139  0.9410  0.7745
   61MOL    H78 7398   0.025   0.428   7.793  0.0896  0.0443  0.8153
   61MOL    H79 7399   8.466   0.184   7.630 -1.0829  0.8358  0.9866
   61MOL    C80 7400   0.065   0.343   7.539  0.1055  0.0215 -0.8234
   61MOL    C81 7401   8.493   0.440   7.473  0.0772 -0.3499  0.4933
   61MOL   Cl82 7402   8.363   0.345   7.395  0.1523 -0.1637  0.1181
   61MOL    H83 7403   0.099   0.277   7.459 -3.4967 -0.1405 -2.3219
   61MOL    H84 7404   0.157   0.394   7.566 -0.6322  0.4680  0.9261
   61MOL    H85 7405   8.449   0.502   7.551 -0.5868 -1.9807  1.4531
   61MOL    C86 7406   0.037   0.528   7.368  0.1634  0.0204 -0.3962
   61MOL    C87 7407   8.472   0.637   7.314 -0.2482 -0.2004  0.7572
   61MOL   Cl88 7408   0.057   0.757   7.227  0.2583  0.1804 -0.3334
   61MOL    H89 7409   0.051   0.467   7.279 -0.1234  0.3220 -0.6470
   61MOL    H90 7410   0.129   0.569   7.409  0.0380 -0.9045  0.8521
   61MOL    H91 7411   8.409   0.591   7.237  1.0256 -0.9087  0.1161
   61MOL    C92 7412   8.386   0.723   7.414 -0.1644  0.0196  0.0905
   61MOL    C93 7413   8.475   0.811   7.504 -0.2685 -0.6635 -0.8552
   61MOL   Cl94 7414   8.491   0.746   7.658 -0.2090 -0.1078 -0.1793
   61MOL    H95 7415   8.303   0.679   7.469  1.2171  0.5379  2.6880
   61MOL    H96 7416   8.338   0.788   7.340  0.6498  1.8258  1.1005
   61MOL    H97 7417   0.057   0.805   7.482 -0.0437 -0.8142  0.2741
   61MOL    C98 7418   8.436   0.960   7.506 -0.0447 -0.1231  0.0245
   61MOL    C99 7419   8.507   1.051   7.402  0.0808  0.0648  0.0256
   61MOL  Cl100 7420   0.156   1.050   7.444 -0.1723 -0.4133  0.1417
   61MOL   H101 7421   8.457   1.001   7.604  0.4123  0.3093 -0.2508
   61MOL   H102 7422   8.328   0.961   7.492 -0.2146 -0.6661  1.2348
   61MOL   H103 7423   8.493   1.010   7.302  0.1210 -0.1402  0.1045
   61MOL   C104 7424   8.467   1.198   7.413  0.0634 -0.3162 -0.0044
   61MOL   C105 7425   8.523   1.301   7.315  0.0008 -0.3307  0.1242
   61MOL  Cl106 7426   8.465   1.262   7.147 -0.1140 -0.3724 -0.2841
   61MOL   H107 7427   8.494   1.221   7.516 -0.3581  0.1320  0.0121
   61MOL   H108 7428   8.359   1.214   7.407  0.3786  1.5115 -1.2059
   61MOL   H109 7429   8.466   1.390   7.343 -0.3936 -0.9136  1.2419
   61MOL   C110 7430   0.145   1.340   7.321  0.1863  0.1555 -0.3653
   61MOL   C111 7431   0.205   1.395   7.456  0.5906  0.1790 -0.1999
   61MOL  Cl112 7432   0.109   1.537   7.498 -0.1603 -0.2142 -0.4314
   61MOL   H113 7433   0.163   1.415   7.244 -0.8471  0.8345  0.0391
   61MOL   H114 7434   0.204   1.253   7.294  0.1245 -0.6369  1.9642
   61MOL   H115 7435   0.203   1.314   7.530 -0.0736  1.2343  0.9523
   61MOL   C116 7436   0.349   1.428   7.439  0.0942 -0.0573 -0.0920
   61MOL   C117 7437   0.408   1.477   7.574 -0.1580  0.1666  0.9463
   61MOL  Cl118 7438   0.564   1.572   7.544  0.1065 -0.3797  0.0139
   61MOL   H119 7439   0.358   1.500   7.358  0.9464  0.9952  0.9128
   61MOL   H120 7440   0.400   1.338   7.404  0.4093 -1.0167  2.7056
   61MOL   H121 7441   0.342   1.533   7.640 -1.0183 -0.4563  0.6125
   61MOL   H122 7442   0.429   1.387   7.631 -1.8103 -0.2219  0.9481
   62MOL     C1 7443   1.324   4.962   1.725  0.3530  0.5515 -0.1613
   62MOL     C2 7444   1.444   5.060   1.718  0.2683 -0.5454  0.7511
   62MOL    Cl3 7445   1.588   4.970   1.671  0.2479  0.0257 -0.0953
   62MOL     H4 7446   1.365   4.883   1.788  0.4709  0.1143 -0.7716
   62MOL     H5 7447   1.240   5.003   1.780  0.5596 -2.7503  2.7860
   62MOL     H6 7448   1.426   5.138   1.644  0.8175  0.1246  1.3184
   62MOL     H7 7449   1.297   4.914   1.630  0.4105  0.4860 -0.1443
   62MOL     C8 7450   1.471   5.118   1.858 -0.4276  0.6401  0.5748
   62MOL     C9 7451   1.385   5.247   1.877  0.6174  0.2148  0.1579
   62MOL   Cl10 7452   1.440   5.365   1.759  0.0204  0.2599  0.3376
   62MOL    H11 7453   1.577   5.141   1.871 -0.3631  1.8813 -1.8466
   62MOL    H12 7454   1.457   5.045   1.938 -0.7143  0.6543  0.5380
   62MOL    H13 7455   1.281   5.221   1.861  0.1872  1.7496  0.3694
   62MOL    C14 7456   1.398   5.309   2.016  0.0774  0.2940 -0.0488
   62MOL    C15 7457   1.345   5.228   2.142 -0.0161 -0.2170 -0.2618
   62MOL   Cl16 7458   1.168   5.245   2.155  0.0907 -0.1069 -0.2370
   62MOL    H17 7459   1.345   5.402   1.996  0.0537  0.1731 -0.5862
   62MOL    H18 7460   1.504   5.332   2.020  0.2838 -0.7062  0.3173
   62MOL    H19 7461   1.371   5.122   2.137  0.9499 -0.0818  1.5810
   62MOL    C20 7462   1.399   5.295   2.264 -0.2339 -0.1465 -0.8694
   62MOL    C21 7463   1.555   5.300   2.281  0.5298  0.6366  0.1462
   62MOL   Cl22 7464   1.622   5.137   2.253  0.1274  0.2632  0.1074
   62MOL    H23 7465   1.344   5.264   2.353  0.6527 -0.8458 -0.5558
   62MOL    H24 7466   1.368   5.399   2.273 -0.8627 -0.5220  1.6720
   62MOL    H25 7467   1.609   5.361   2.208  0.8630  1.0864  0.7666
   62MOL    C26 7468   1.582   5.340   2.428  0.4459 -0.8924  0.3956
   62MOL    C27 7469   1.599   5.495   2.443  0.2949 -0.7828  0.8396
   62MOL   Cl28 7470   1.770   5.518   2.410 -0.0128  0.1180  0.4080
   62MOL    H29 7471   1.674   5.288   2.457  2.3896  0.6963 -2.6873
   62MOL    H30 7472   1.516   5.296   2.503 -1.8893 -0.5454 -1.4364
   62MOL    H31 7473   1.542   5.546   2.366 -2.3839 -0.4225  2.9957
   62MOL    C32 7474   1.560   5.550   2.581 -0.3584 -0.2758 -0.3935
   62MOL    C33 7475   1.405   5.541   2.601  0.4633  0.2439  0.2972
   62MOL   Cl34 7476   1.325   5.679   2.501  0.1652  0.3063 -0.1775
   62MOL    H35 7477   1.583   5.655   2.598 -1.4712 -0.1410  0.3951
   62MOL    H36 7478   1.624   5.502   2.655 -0.6163  0.2961  0.2125
   62MOL    H37 7479   1.362   5.450   2.562  4.5663 -0.3731 -3.1295
   62MOL    C38 7480   1.357   5.565   2.746  0.4048 -0.0702  0.0545
   62MOL    C39 7481   1.386   5.453   2.846 -0.4646  0.2591 -0.3466
   62MOL   Cl40 7482   1.312   5.299   2.792 -0.2853 -0.3791  0.4497
   62MOL    H41 7483   1.251   5.590   2.751  0.6055  0.7033  0.4966
   62MOL    H42 7484   1.394   5.660   2.786 -2.2609  0.2897  1.8290
   62MOL    H43 7485   1.492   5.430   2.857 -0.4789  0.7722  0.9682
   62MOL    C44 7486   1.319   5.488   2.981 -0.4873  0.5460 -0.3096
   62MOL    C45 7487   1.356   5.391   3.096  0.2123  0.4095 -0.4580
   62MOL   Cl46 7488   1.253   5.432   3.236  0.2340 -0.1086  0.3782
   62MOL    H47 7489   1.211   5.494   2.983 -0.6972 -2.6124  1.9624
   62MOL    H48 7490   1.355   5.586   3.013  0.7273  0.3781 -1.1026
   62MOL    H49 7491   1.317   5.297   3.058 -2.7742  0.4667  2.2164
   62MOL    C50 7492   1.507   5.382   3.135 -0.4273 -0.1356  0.4514
   62MOL    C51 7493   1.528   5.273   3.235  0.0611  0.8663  0.2921
   62MOL   Cl52 7494   1.703   5.292   3.288  0.0424 -0.2039  0.2198
   62MOL    H53 7495   1.550   5.478   3.163 -0.3167 -0.6526  2.0956
   62MOL    H54 7496   1.552   5.363   3.038 -1.5049 -0.1588 -0.0535
   62MOL    H55 7497   1.468   5.286   3.325  0.6990  2.3815  0.5208
   62MOL    C56 7498   1.511   5.130   3.179  0.2635 -1.7974 -0.0583
   62MOL    C57 7499   1.525   5.009   3.282  0.2625 -0.3636  0.0534
   62MOL   Cl58 7500   1.499   4.860   3.192 -0.4363  0.0574  0.2222
   62MOL    H59 7501   1.567   5.099   3.090 -1.4925 -4.7898 -0.1771
   62MOL    H60 7502   1.410   5.121   3.139  0.0651  0.4868 -0.1168
   62MOL    H61 7503   1.628   4.994   3.314 -0.1110 -1.5704  0.7614
   62MOL    C62 7504   1.426   5.008   3.394  0.5111 -0.1898  0.4862
   62MOL    C63 7505   1.430   4.894   3.500 -0.3015 -0.4728  0.1754
   62MOL   Cl64 7506   1.273   4.889   3.578 -0.4385  0.3281 -0.0810
   62MOL    H65 7507   1.324   5.026   3.361  0.3044  1.1220  1.7817
   62MOL    H66 7508   1.455   5.096   3.451 -0.8674 -0.5692  1.7965
   62MOL    H67 7509   1.446   4.797   3.453  1.1048 -0.3421  0.3593
   62MOL    C68 7510   1.538   4.912   3.613  0.1522  1.0036 -0.0932
   62MOL    C69 7511   1.680   4.912   3.565 -0.0279  0.0749 -0.5630
   62MOL   Cl70 7512   1.717   4.770   3.465  0.3636 -0.3200  0.1318
   62MOL    H71 7513   1.514   4.831   3.682 -0.7364 -0.8496 -2.5136
   62MOL    H72 7514   1.522   5.005   3.668 -0.6231  0.8657 -0.0782
   62MOL    H73 7515   1.705   4.999   3.504 -3.1659  0.9363 -0.7268
   62MOL    C74 7516   1.782   4.903   3.677  0.2318  0.0043  0.2012
   62MOL    C75 7517   1.792   5.034   3.757  0.1988  0.2065 -0.1881
   62MOL   Cl76 7518   1.854   5.158   3.640  0.0909 -0.0927  0.1135
   62MOL    H77 7519   1.880   4.875   3.638  1.1544  2.4079  0.6943
   62MOL    H78 7520   1.739   4.827   3.743 -0.0651  0.4784  0.5566
   62MOL    H79 7521   1.696   5.067   3.795  0.1025  1.6293 -1.6011
   62MOL    C80 7522   1.888   5.017   3.883  0.0859  0.2023 -0.0820
   62MOL    C81 7523   1.814   4.962   4.009  0.4211 -0.0350 -0.3673
   62MOL   Cl82 7524   1.725   5.106   4.063  0.0024 -0.1193  0.1938
   62MOL    H83 7525   1.922   5.120   3.898 -0.8673  0.4619  0.2985
   62MOL    H84 7526   1.977   4.957   3.861  0.8287  0.7623  1.3177
   62MOL    H85 7527   1.736   4.889   3.984 -0.3807  0.3693  0.9478
   62MOL    C86 7528   1.912   4.900   4.106  0.2374  0.7387 -0.1544
   62MOL    C87 7529   2.019   4.787   4.061 -0.3683 -0.0286  0.2183
   62MOL   Cl88 7530   1.929   4.630   4.052  0.3881 -0.0787  0.2333
   62MOL    H89 7531   1.858   4.866   4.195  0.5315 -3.4234 -1.5008
   62MOL    H90 7532   1.965   4.983   4.154 -0.2731  1.2238 -0.4275
   62MOL    H91 7533   2.077   4.801   3.969 -1.1647 -0.0011 -0.2822
   62MOL    C92 7534   2.121   4.771   4.176  0.6564  0.2302  0.2398
   62MOL    C93 7535   2.229   4.662   4.158  0.3453 -0.4411 -0.2169
   62MOL   Cl94 7536   2.172   4.509   4.210  0.3831 -0.0231  0.3297
   62MOL    H95 7537   2.064   4.757   4.267 -0.3238 -1.3956 -0.5905
   62MOL    H96 7538   2.166   4.869   4.193  1.5258  0.0746 -1.0989
   62MOL    H97 7539   2.243   4.652   4.050 -1.9927 -0.0749 -0.5840
   62MOL    C98 7540   2.369   4.690   4.217 -0.1746  0.7049  0.0029
   62MOL    C99 7541   2.440   4.796   4.128 -0.0985 -0.3537  0.4002
   62MOL  Cl100 7542   2.491   4.714   3.984 -0.4577  0.5614 -0.2602
   62MOL   H101 7543   2.426   4.599   4.237  0.3508  0.9635 -0.3115
   62MOL   H102 7544   2.362   4.724   4.320 -0.9217  0.6020 -0.0066
   62MOL   H103 7545   2.364   4.868   4.100 -1.2509 -0.7179  2.4421
   62MOL   C104 7546   2.566   4.854   4.196 -0.4660 -0.4973 -0.6587
   62MOL   C105 7547   2.635   4.964   4.120  0.3271  0.4400 -0.0913
   62MOL  Cl106 7548   2.763   5.051   4.206  0.4252  0.1842 -0.0355
   62MOL   H107 7549   2.636   4.776   4.226  0.5971  0.3499 -0.8973
   62MOL   H108 7550   2.540   4.899   4.291  1.8158  0.0312 -0.2658
   62MOL   H109 7551   2.691   4.907   4.044 -1.6659 -0.2014 -1.1100
   62MOL   C110 7552   2.543   5.056   4.049  0.4997  0.4515 -0.4224
   62MOL   C111 7553   2.599   5.172   3.963  0.1378 -0.2968  0.1005
   62MOL  Cl112 7554   2.473   5.290   3.921 -0.1612  0.2942 -0.2303
   62MOL   H113 7555   2.469   5.097   4.119 -0.1529 -1.1452 -0.1596
   62MOL   H114 7556   2.483   4.997   3.980 -1.1969  0.3032  1.1228
   62MOL   H115 7557   2.665   5.232   4.025 -0.2491 -0.8261  1.0325
   62MOL   C116 7558   2.670   5.126   3.834 -0.0719  0.1803 -0.3981
   62MOL   C117 7559   2.753   5.223   3.763 -0.2095 -0.4251 -0.0296
   62MOL  Cl118 7560   2.778   5.144   3.602 -0.1349  0.3425 -0.0889
   62MOL   H119 7561   2.606   5.071   3.765  0.4080  0.4722 -1.0720
   62MOL   H120 7562   2.736   5.043   3.861 -0.9709 -0.2673  0.4691
   62MOL   H121 7563   2.700   5.317   3.743  2.9908  1.5627  0.5595
   62MOL   H122 7564   2.856   5.238   3.793  0.0336  0.8508 -1.3899
   63MOL     C1 7565   8.294   4.696   1.703  0.0467  0.4838 -0.0377
   63MOL     C2 7566   8.297   4.843   1.679  0.0061  0.6944  0.3220
   63MOL    Cl3 7567   8.456   4.907   1.731 -0.4894 -0.0716  0.0783
   63MOL     H4 7568   8.370   4.641   1.647 -0.6784 -2.7345  1.9961
   63MOL     H5 7569   8.307   4.668   1.807 -0.2165  1.1491  0.1772
   63MOL     H6 7570   8.286   4.871   1.575 -0.7537  0.5058  0.3489
   63MOL     H7 7571   8.204   4.642   1.670  0.6931 -0.7981  0.2589
   63MOL     C8 7572   8.187   4.912   1.760 -0.4316 -0.3730  0.4708
   63MOL     C9 7573   8.042   4.867   1.753  1.1023 -0.1345 -0.4904
   63MOL   Cl10 7574   8.005   4.852   1.576 -0.2277 -0.3244  0.7465
   63MOL    H11 7575   8.186   5.021   1.747 -0.6389 -0.6349 -1.9587
   63MOL    H12 7576   8.215   4.898   1.864  1.1578 -1.8028 -0.1294
   63MOL    H13 7577   8.022   4.764   1.780  0.0052 -0.3408 -2.0181
   63MOL    C14 7578   7.939   4.961   1.827  0.1593  0.0816  0.2882
   63MOL    C15 7579   7.935   4.949   1.987  0.4829  0.7415 -0.5871
   63MOL   Cl16 7580   7.846   4.784   2.022 -0.3628  0.0080  0.3433
   63MOL    H17 7581   7.836   4.942   1.796  0.4117 -0.0982 -0.4270
   63MOL    H18 7582   7.974   5.059   1.796  0.5023 -0.6346 -1.6479
   63MOL    H19 7583   8.031   4.941   2.038  0.1621 -1.3336 -0.2861
   63MOL    C20 7584   7.849   5.068   2.041 -0.3104 -0.5213 -0.9738
   63MOL    C21 7585   7.824   5.079   2.196 -0.1450 -0.2831 -0.7303
   63MOL   Cl22 7586   7.684   5.194   2.209 -0.0994 -0.2061 -0.3343
   63MOL    H23 7587   7.751   5.075   1.994 -1.2733 -3.1818  0.4986
   63MOL    H24 7588   7.904   5.158   2.016 -0.4321 -0.5648 -1.4003
   63MOL    H25 7589   7.776   4.989   2.233  2.0653  0.1728  3.5588
   63MOL    C26 7590   7.950   5.136   2.269  0.3996 -0.0426 -0.6135
   63MOL    C27 7591   7.966   5.110   2.422  0.3976  0.2135 -0.4513
   63MOL   Cl28 7592   7.969   4.936   2.444 -0.3674 -0.0497 -0.0504
   63MOL    H29 7593   7.961   5.243   2.249  0.8235  0.2163  0.9363
   63MOL    H30 7594   8.034   5.083   2.226  0.0573 -3.0604  2.2477
   63MOL    H31 7595   8.065   5.141   2.456  0.0102 -0.7489  1.5761
   63MOL    C32 7596   7.861   5.173   2.518 -0.7934  0.5972 -0.1928
   63MOL    C33 7597   7.845   5.326   2.503 -0.0842 -0.1259  0.2004
   63MOL   Cl34 7598   8.002   5.403   2.529 -0.4526 -0.7699 -0.5141
   63MOL    H35 7599   7.881   5.142   2.621  0.1931 -0.9537 -0.8378
   63MOL    H36 7600   7.767   5.129   2.487 -0.0597 -1.8123  0.9008
   63MOL    H37 7601   7.832   5.348   2.397 -1.1123 -1.7550 -0.0210
   63MOL    C38 7602   7.728   5.391   2.582  0.2443 -0.0270 -0.8598
   63MOL    C39 7603   7.709   5.538   2.536  0.0314  0.0380 -0.5422
   63MOL   Cl40 7604   7.608   5.619   2.656  0.5913 -0.0459  0.1854
   63MOL    H41 7605   7.764   5.387   2.685 -0.1165 -1.6241 -0.7754
   63MOL    H42 7606   7.631   5.342   2.582 -1.5847  3.4512 -1.2797
   63MOL    H43 7607   7.810   5.578   2.543  0.0542 -0.2628  1.0460
   63MOL    C44 7608   7.647   5.553   2.393  0.7984  0.4731 -0.0105
   63MOL    C45 7609   7.697   5.688   2.317  0.0176  0.1165  0.5750
   63MOL   Cl46 7610   7.873   5.672   2.293 -0.4483 -0.1590  0.0733
   63MOL    H47 7611   7.538   5.556   2.398  0.7539  0.9600 -1.0899
   63MOL    H48 7612   7.655   5.467   2.327 -1.1723  0.3846 -0.1605
   63MOL    H49 7613   7.648   5.682   2.220 -0.2176 -0.1554  0.7071
   63MOL    C50 7614   7.647   5.816   2.391  0.7746  0.2063 -0.0756
   63MOL    C51 7615   7.661   5.952   2.316 -0.1108 -0.4543 -0.5691
   63MOL   Cl52 7616   7.537   5.964   2.182 -0.7684 -0.0331  0.3570
   63MOL    H53 7617   7.695   5.836   2.486  1.2757  0.2507 -0.3344
   63MOL    H54 7618   7.542   5.798   2.414  0.7684  1.4946  0.9218
   63MOL    H55 7619   7.632   6.034   2.382  4.0977 -0.2615  1.2472
   63MOL    C56 7620   7.794   5.989   2.262  0.3515 -0.1882  0.1650
   63MOL    C57 7621   7.822   6.136   2.222 -0.0291  0.4533 -0.5367
   63MOL   Cl58 7622   7.962   6.144   2.118 -0.2512  0.4871 -0.0776
   63MOL    H59 7623   7.824   5.935   2.172  1.1917 -1.4664  1.1973
   63MOL    H60 7624   7.875   5.972   2.333 -0.8350  0.8846  1.8035
   63MOL    H61 7625   7.732   6.161   2.167 -0.7996  0.0398  0.5290
   63MOL    C62 7626   7.840   6.230   2.340 -0.1825 -0.3168 -0.8191
   63MOL    C63 7627   7.835   6.379   2.305 -0.5616 -0.0179 -0.0985
   63MOL   Cl64 7628   7.882   6.458   2.456 -0.5617  0.1261  0.2957
   63MOL    H65 7629   7.930   6.211   2.398  0.4923 -1.2328 -2.1266
   63MOL    H66 7630   7.754   6.213   2.406 -1.2462 -0.6484 -2.2602
   63MOL    H67 7631   7.917   6.403   2.237  1.2551  1.6180  2.5515
   63MOL    C68 7632   7.703   6.434   2.253 -0.2188 -0.3969 -0.6503
   63MOL    C69 7633   7.693   6.583   2.207 -0.5709  0.6055 -0.5956
   63MOL   Cl70 7634   7.646   6.691   2.342 -0.1020 -0.0922 -0.0459
   63MOL    H71 7635   7.628   6.415   2.330  1.8083  0.2684  1.5057
   63MOL    H72 7636   7.669   6.368   2.173  0.5154 -1.7168  0.1031
   63MOL    H73 7637   7.795   6.614   2.183 -0.8575  0.5255 -1.9979
   63MOL    C74 7638   7.596   6.612   2.091 -0.2103  0.4031 -0.7262
   63MOL    C75 7639   7.597   6.746   2.022  0.6687  0.2998 -0.2514
   63MOL   Cl76 7640   7.500   6.746   1.873  0.4434 -0.1024  0.5219
   63MOL    H77 7641   7.495   6.599   2.129  0.5245  1.7394  1.8386
   63MOL    H78 7642   7.605   6.536   2.014  2.0721  0.4986 -0.6014
   63MOL    H79 7643   7.553   6.813   2.097  1.1937  0.1507  0.1936
   63MOL    C80 7644   7.735   6.791   1.982 -0.0041  0.2723 -0.5767
   63MOL    C81 7645   7.745   6.933   1.910 -0.1376 -0.6880 -0.9692
   63MOL   Cl82 7646   7.909   6.954   1.844  0.2280 -0.0176  0.4368
   63MOL    H83 7647   7.784   6.716   1.920 -1.1899 -1.7560  0.8861
   63MOL    H84 7648   7.800   6.806   2.069 -0.6785 -1.2865  0.2084
   63MOL    H85 7649   7.682   6.941   1.821  1.2522 -1.8385 -2.0784
   63MOL    C86 7650   7.700   7.058   1.991  0.1278  0.7368  0.2073
   63MOL    C87 7651   7.787   7.114   2.114 -0.7688 -0.4373 -0.1298
   63MOL   Cl88 7652   7.773   6.997   2.247 -0.2483  0.3963  0.4549
   63MOL    H89 7653   7.602   7.033   2.031  0.2865 -0.1975  0.0472
   63MOL    H90 7654   7.687   7.139   1.920  1.3036  0.0997 -0.7633
   63MOL    H91 7655   7.888   7.131   2.077 -1.0828  1.3331 -0.2119
   63MOL    C92 7656   7.753   7.257   2.159  1.0596 -0.3788 -1.1460
   63MOL    C93 7657   7.619   7.281   2.226  0.4705  0.6332 -0.2922
   63MOL   Cl94 7658   7.487   7.298   2.107 -0.1065  0.9029 -0.5339
   63MOL    H95 7659   7.759   7.336   2.084 -0.2150  1.2984  0.4711
   63MOL    H96 7660   7.832   7.281   2.229  0.2268 -1.4323  0.1709
   63MOL    H97 7661   7.590   7.199   2.291  2.9445  0.7557  1.0074
   63MOL    C98 7662   7.614   7.418   2.300  0.4327 -0.1918 -1.2227
   63MOL    C99 7663   7.711   7.433   2.421  0.1142  0.2108 -0.5407
   63MOL  Cl100 7664   7.705   7.309   2.549  0.1791  0.0581  0.2385
   63MOL   H101 7665   7.513   7.434   2.337  1.2247 -0.4967  1.1329
   63MOL   H102 7666   7.630   7.488   2.218  1.2154  1.0015 -0.0821
   63MOL   H103 7667   7.810   7.426   2.375  0.4733  1.1681  0.0753
   63MOL   C104 7668   7.704   7.571   2.482  0.4632  0.0646  0.4641
   63MOL   C105 7669   7.799   7.603   2.602 -0.6519  0.2289  0.1790
   63MOL  Cl106 7670   7.740   7.747   2.666  0.0587  0.1915 -0.4803
   63MOL   H107 7671   7.605   7.563   2.525  0.1604 -2.6883 -0.6746
   63MOL   H108 7672   7.700   7.649   2.405  0.3719 -1.0982 -0.7130
   63MOL   H109 7673   7.800   7.528   2.681 -2.2209  0.6976  0.6531
   63MOL   C110 7674   7.944   7.629   2.548 -0.2337 -0.3555  0.1777
   63MOL   C111 7675   8.039   7.692   2.648  0.0567 -0.6781  0.2082
   63MOL  Cl112 7676   8.044   7.869   2.618 -0.2520 -0.3802  0.0394
   63MOL   H113 7677   7.951   7.689   2.457  0.5654 -1.3323 -0.4224
   63MOL   H114 7678   7.977   7.530   2.515 -0.4521 -0.2738 -0.3014
   63MOL   H115 7679   8.008   7.668   2.750 -0.9188  1.2169  0.3832
   63MOL   C116 7680   8.185   7.644   2.641  0.5361 -0.8821 -0.7572
   63MOL   C117 7681   8.248   7.669   2.499 -0.1387  0.2150  0.7594
   63MOL  Cl118 7682   8.423   7.633   2.507 -0.4648  0.1131  0.1326
   63MOL   H119 7683   8.192   7.540   2.670  0.7980 -0.7259 -0.2411
   63MOL   H120 7684   8.247   7.707   2.705  0.9220 -2.2965  0.2804
   63MOL   H121 7685   8.217   7.601   2.419  0.8222  0.4703  0.1552
   63MOL   H122 7686   8.240   7.774   2.471  1.6606 -0.2116 -1.5280
   64MOL     C1 7687   1.915   2.531   4.500 -0.0349 -0.5960 -0.4574
   64MOL     C2 7688   1.830   2.515   4.623  0.0327 -0.5173 -0.4960
   64MOL    Cl3 7689   1.787   2.353   4.643 -0.0339 -0.3961  0.1169
   64MOL     H4 7690   2.015   2.487   4.511  0.9297  0.9691 -2.6368
   64MOL     H5 7691   1.875   2.474   4.417  0.1338 -0.2676 -0.7654
   64MOL     H6 7692   1.874   2.545   4.718 -2.7216 -0.6990  0.8822
   64MOL     H7 7693   1.936   2.636   4.479  1.5294 -1.1259 -1.6429
   64MOL     C8 7694   1.693   2.589   4.617  0.3001 -0.2561  0.1130
   64MOL     C9 7695   1.694   2.748   4.616 -0.1303  0.3305 -0.1503
   64MOL   Cl10 7696   1.776   2.803   4.769 -0.1106 -0.1091 -0.0570
   64MOL    H11 7697   1.641   2.554   4.706  1.9997  0.3972  1.3926
   64MOL    H12 7698   1.631   2.556   4.534 -0.5170  0.7581  0.3100
   64MOL    H13 7699   1.749   2.792   4.533 -0.8047  2.1217  0.3261
   64MOL    C14 7700   1.550   2.816   4.618  0.0556  0.9917 -0.5139
   64MOL    C15 7701   1.475   2.816   4.487  0.6173 -0.2734  0.3468
   64MOL   Cl16 7702   1.572   2.888   4.360 -0.0780 -0.2921  0.3228
   64MOL    H17 7703   1.560   2.920   4.650  3.3892  0.1491  1.4961
   64MOL    H18 7704   1.484   2.769   4.691  3.9601 -0.1218  2.5125
   64MOL    H19 7705   1.451   2.711   4.467 -1.0581  0.2995 -0.8005
   64MOL    C20 7706   1.343   2.897   4.507  0.0234  0.1490 -0.1576
   64MOL    C21 7707   1.228   2.838   4.426  0.7557  0.8402 -0.6515
   64MOL   Cl22 7708   1.254   2.862   4.255 -0.2424 -0.1587 -0.1894
   64MOL    H23 7709   1.358   2.998   4.470 -1.6131  0.5027  0.1211
   64MOL    H24 7710   1.314   2.902   4.612 -0.0123  0.9092 -0.2007
   64MOL    H25 7711   1.233   2.732   4.452  0.0887  1.5151  2.4833
   64MOL    C26 7712   1.082   2.891   4.468  0.4496 -0.0160  0.3748
   64MOL    C27 7713   1.038   2.846   4.609 -0.2995  0.0843  0.2664
   64MOL   Cl28 7714   1.060   2.669   4.632  0.0181 -0.4848  0.2116
   64MOL    H29 7715   1.004   2.859   4.398  0.9958  0.8777 -0.6613
   64MOL    H30 7716   1.078   3.000   4.465  2.4780  0.0560 -0.8621
   64MOL    H31 7717   1.106   2.894   4.679 -0.4024  0.5620  0.0413
   64MOL    C32 7718   0.888   2.892   4.633  0.2045 -0.3239  0.2608
   64MOL    C33 7719   0.836   2.912   4.774  0.0205  0.1130  0.4036
   64MOL   Cl34 7720   0.945   3.014   4.877 -0.1615 -0.0848 -0.3112
   64MOL    H35 7721   0.828   2.819   4.580  0.5431 -0.7078  0.4060
   64MOL    H36 7722   0.863   2.992   4.597  2.5617  0.6606  1.2616
   64MOL    H37 7723   0.738   2.961   4.776 -2.2258 -3.9279 -2.2543
   64MOL    C38 7724   0.812   2.776   4.841  0.4486  0.0900 -0.5968
   64MOL    C39 7725   0.733   2.776   4.970 -0.1158  0.0614 -0.6591
   64MOL   Cl40 7726   0.714   2.608   5.023  0.1483 -0.0822  0.3298
   64MOL    H41 7727   0.899   2.717   4.870  0.2655  0.1423  0.0808
   64MOL    H42 7728   0.760   2.711   4.771  0.7709  0.5893 -1.2981
   64MOL    H43 7729   0.798   2.814   5.049 -1.0256 -1.8597  1.0396
   64MOL    C44 7730   0.601   2.845   4.979  0.0929 -0.0238 -0.4768
   64MOL    C45 7731   0.474   2.792   4.899 -0.0680 -0.0279 -0.4228
   64MOL   Cl46 7732   0.485   2.840   4.729  0.1210  0.1150  0.0124
   64MOL    H47 7733   0.624   2.950   4.960 -1.4471  0.4830  0.3654
   64MOL    H48 7734   0.565   2.859   5.081  0.5461  0.2664 -0.3492
   64MOL    H49 7735   0.485   2.684   4.891  1.6182  0.1703 -1.1085
   64MOL    C50 7736   0.345   2.837   4.969  0.1280  0.2329 -0.5211
   64MOL    C51 7737   0.221   2.773   4.901  0.0824 -0.4749  0.0316
   64MOL   Cl52 7738   0.163   2.887   4.781  0.0305 -0.3849  0.0889
   64MOL    H53 7739   0.332   2.945   4.973  1.2845  0.3686 -0.3220
   64MOL    H54 7740   0.344   2.806   5.074  2.0856 -1.1629 -0.8899
   64MOL    H55 7741   0.254   2.683   4.848  2.5107  0.0927  0.5070
   64MOL    C56 7742   0.121   2.737   5.005  0.1791  0.2761 -0.5697
   64MOL    C57 7743   0.006   2.632   4.972  0.1689  0.7734 -0.3202
   64MOL   Cl58 7744   8.412   2.712   4.866  0.2180  0.1755  0.1222
   64MOL    H59 7745   0.068   2.827   5.035 -0.4267 -0.1372 -0.3861
   64MOL    H60 7746   0.163   2.696   5.097 -0.2692 -2.1761 -1.4085
   64MOL    H61 7747   0.065   2.552   4.929  4.3722  3.3225  0.3860
   64MOL    C62 7748   8.466   2.584   5.108 -0.6804 -0.5552 -0.1548
   64MOL    C63 7749   8.347   2.499   5.098 -0.5903  0.2316 -0.1177
   64MOL   Cl64 7750   8.336   2.432   5.256 -0.4588  0.3795  0.1707
   64MOL    H65 7751   8.441   2.679   5.155 -0.1260 -0.8313  0.7044
   64MOL    H66 7752   0.022   2.531   5.158 -0.9406 -1.1968 -0.4100
   64MOL    H67 7753   8.261   2.559   5.068 -0.0292  0.1827 -1.9258
   64MOL    C68 7754   8.373   2.376   4.999 -0.0282  0.4514 -0.2981
   64MOL    C69 7755   8.253   2.276   5.002 -0.4618 -0.1848 -0.0809
   64MOL   Cl70 7756   8.303   2.132   4.900 -0.3030 -0.1435 -0.1972
   64MOL    H71 7757   8.456   2.323   5.046 -1.5464  0.8622  2.9597
   64MOL    H72 7758   8.417   2.402   4.903 -0.0701 -0.4419 -0.5644
   64MOL    H73 7759   8.224   2.239   5.100 -0.8547  0.7113  0.1489
   64MOL    C74 7760   8.129   2.337   4.935 -0.9160 -0.1438  0.3038
   64MOL    C75 7761   8.138   2.411   4.802 -0.5493 -0.5753 -0.7475
   64MOL   Cl76 7762   8.011   2.544   4.790  0.3181  0.0190 -0.1953
   64MOL    H77 7763   8.088   2.414   5.001 -0.8512 -0.7753  1.0823
   64MOL    H78 7764   8.050   2.262   4.927 -0.1669 -0.9073  0.0156
   64MOL    H79 7765   8.231   2.467   4.791 -0.9318 -0.1025 -1.6423
   64MOL    C80 7766   8.109   2.309   4.683 -0.7081 -0.2828  0.2706
   64MOL    C81 7767   8.192   2.333   4.559 -0.5032  0.3135 -0.2411
   64MOL   Cl82 7768   8.360   2.311   4.606 -0.0107 -0.0127 -0.1186
   64MOL    H83 7769   8.003   2.297   4.661 -0.6838 -1.0960  0.5632
   64MOL    H84 7770   8.129   2.209   4.723  2.5249  0.5866  0.9166
   64MOL    H85 7771   8.165   2.257   4.485 -1.9543  1.2075 -0.6493
   64MOL    C86 7772   8.171   2.468   4.494  0.4238 -0.0435 -0.0369
   64MOL    C87 7773   8.034   2.462   4.415  0.3301  0.5839 -0.0606
   64MOL   Cl88 7774   8.052   2.336   4.294  0.1232 -0.0666 -0.1615
   64MOL    H89 7775   8.252   2.487   4.423  1.9110  2.7409  2.2960
   64MOL    H90 7776   8.175   2.554   4.561 -4.4337  0.5235 -0.2585
   64MOL    H91 7777   7.954   2.422   4.477  3.3649 -1.9841  2.4125
   64MOL    C92 7778   8.012   2.602   4.361  0.1382  0.4310 -0.1016
   64MOL    C93 7779   7.861   2.639   4.329 -0.5708  0.2855 -0.2358
   64MOL   Cl94 7780   7.755   2.614   4.476 -0.1545 -0.0063  0.1368
   64MOL    H95 7781   8.083   2.613   4.279  1.1737 -1.0811  0.5798
   64MOL    H96 7782   8.045   2.671   4.439  1.0748  1.5665 -1.4672
   64MOL    H97 7783   7.874   2.745   4.310  0.5323  0.3750  0.9674
   64MOL    C98 7784   7.800   2.563   4.212  0.0858 -0.5791 -0.4245
   64MOL    C99 7785   7.892   2.541   4.089  0.4179  0.0479 -0.0055
   64MOL  Cl100 7786   7.946   2.702   4.026  0.2399  0.1668 -0.2676
   64MOL   H101 7787   7.711   2.616   4.179 -0.8115 -2.0977 -0.5065
   64MOL   H102 7788   7.767   2.472   4.262  1.8158 -0.4191  1.0498
   64MOL   H103 7789   7.985   2.488   4.110  0.3316 -0.5677 -1.1378
   64MOL   C104 7790   7.812   2.462   3.977 -0.0328 -0.4436 -0.3557
   64MOL   C105 7791   7.904   2.431   3.851 -0.5862  0.1033 -0.1715
   64MOL  Cl106 7792   7.789   2.388   3.714 -0.1452 -0.0715  0.0079
   64MOL   H107 7793   7.724   2.524   3.961 -0.1356  0.7545  4.0971
   64MOL   H108 7794   7.774   2.371   4.022 -0.3906  0.1352  0.5173
   64MOL   H109 7795   7.965   2.514   3.815 -0.9229  0.4066 -0.0486
   64MOL   C110 7796   7.989   2.306   3.877  0.3316 -0.4457 -0.2956
   64MOL   C111 7797   8.089   2.274   3.771 -0.0629 -0.2383  0.2382
   64MOL  Cl112 7798   8.110   2.102   3.772 -0.1098  0.0369 -0.4939
   64MOL   H113 7799   7.933   2.216   3.901 -1.1863 -0.1310 -2.4396
   64MOL   H114 7800   8.050   2.319   3.966  0.8984  1.2947 -0.9082
   64MOL   H115 7801   8.053   2.295   3.671  0.7146 -2.7869 -0.6115
   64MOL   C116 7802   8.226   2.346   3.800  0.2150 -0.2714 -0.4248
   64MOL   C117 7803   8.318   2.345   3.676 -0.1515  0.0056 -0.4715
   64MOL  Cl118 7804   8.460   2.449   3.716 -0.1012  0.2650 -0.0841
   64MOL   H119 7805   8.267   2.299   3.890  0.0566 -2.6133 -1.5330
   64MOL   H120 7806   8.214   2.452   3.823  3.7471  0.6085 -2.3507
   64MOL   H121 7807   8.351   2.245   3.648  0.0829  0.3111 -1.3202
   64MOL   H122 7808   8.262   2.398   3.598  0.5771  1.8150  0.2168
   65MOL     C1 7809   1.356   6.506   2.113  0.1721  0.5874  0.2788
   65MOL     C2 7810   1.347   6.547   2.259 -0.0419  0.0288 -0.2741
   65MOL    Cl3 7811   1.341   6.722   2.264  0.1142 -0.0184 -0.0558
   65MOL     H4 7812   1.440   6.552   2.061  0.0108  0.1574 -0.3722
   65MOL     H5 7813   1.383   6.402   2.099  1.0537  0.9644 -0.9316
   65MOL     H6 7814   1.259   6.508   2.310 -0.1687  1.4947  0.6616
   65MOL     H7 7815   1.262   6.535   2.066 -0.1208 -0.6174  0.1142
   65MOL     C8 7816   1.470   6.487   2.340  0.3800 -0.5408  0.4441
   65MOL     C9 7817   1.484   6.551   2.477 -0.1425  0.4787  0.4706
   65MOL   Cl10 7818   1.635   6.474   2.546  0.1773  0.3230 -0.2132
   65MOL    H11 7819   1.548   6.505   2.266 -1.2811 -0.2226 -1.2398
   65MOL    H12 7820   1.451   6.380   2.343  0.2586 -0.5257  0.2316
   65MOL    H13 7821   1.520   6.653   2.465  0.0726  0.3311 -0.1205
   65MOL    C14 7822   1.368   6.526   2.573 -0.2580 -0.4091 -0.0557
   65MOL    C15 7823   1.359   6.603   2.703  0.5921  0.2818 -0.2471
   65MOL   Cl16 7824   1.235   6.522   2.808 -0.0042 -0.6818 -0.4184
   65MOL    H17 7825   1.378   6.419   2.589 -0.4441 -0.5367 -0.7953
   65MOL    H18 7826   1.277   6.549   2.519  0.3662  3.4662  0.4079
   65MOL    H19 7827   1.450   6.590   2.761 -0.0221 -0.7340  0.5286
   65MOL    C20 7828   1.333   6.753   2.686 -0.1506 -0.6581 -0.2024
   65MOL    C21 7829   1.356   6.851   2.812  0.5821 -0.3791 -0.1471
   65MOL   Cl22 7830   1.234   6.812   2.933 -0.0194  0.1383 -0.3398
   65MOL    H23 7831   1.229   6.771   2.656 -0.0732 -0.9908 -0.6844
   65MOL    H24 7832   1.391   6.800   2.607  1.4292  1.7190  2.2999
   65MOL    H25 7833   1.453   6.834   2.858  1.5584 -1.9049 -2.6770
   65MOL    C26 7834   1.348   7.007   2.798  0.4063  0.1921 -0.1164
   65MOL    C27 7835   1.449   7.079   2.712  0.1058  0.1985 -0.0195
   65MOL   Cl28 7836   1.607   7.043   2.778 -0.1368 -0.2608  0.1513
   65MOL    H29 7837   1.342   7.051   2.898 -2.5076 -0.5016  0.0511
   65MOL    H30 7838   1.256   7.027   2.743  1.6007  0.9252 -1.9119
   65MOL    H31 7839   1.448   7.039   2.611 -2.8811  1.5100 -0.5675
   65MOL    C32 7840   1.427   7.233   2.712  0.0160 -0.8887 -0.4521
   65MOL    C33 7841   1.510   7.320   2.619  0.0525 -0.3010  0.2532
   65MOL   Cl34 7842   1.514   7.258   2.458 -0.0196  0.0636  0.2032
   65MOL    H35 7843   1.415   7.280   2.810 -2.3092  0.6722 -1.4444
   65MOL    H36 7844   1.321   7.231   2.685  0.0295  1.1020 -0.7155
   65MOL    H37 7845   1.446   7.407   2.610  0.3167 -0.1526 -0.2124
   65MOL    C38 7846   1.653   7.359   2.667 -0.1234 -0.0343  1.0183
   65MOL    C39 7847   1.650   7.428   2.801  0.3165  0.6509 -0.1305
   65MOL   Cl40 7848   1.598   7.596   2.776 -0.0923  0.0529 -0.4963
   65MOL    H41 7849   1.703   7.423   2.595 -0.5827 -0.3848  0.3849
   65MOL    H42 7850   1.718   7.272   2.674 -0.2960 -0.1817  0.8099
   65MOL    H43 7851   1.574   7.390   2.870  0.8103  0.9536  0.5848
   65MOL    C44 7852   1.787   7.412   2.882 -0.3735  0.8388  0.2955
   65MOL    C45 7853   1.785   7.450   3.028  0.2147 -0.3593 -0.5060
   65MOL   Cl46 7854   1.777   7.625   3.041  0.0985  0.1204  0.2035
   65MOL    H47 7855   1.874   7.456   2.833  0.3126 -1.0170 -0.2185
   65MOL    H48 7856   1.817   7.307   2.874 -1.7517  0.3295  1.4955
   65MOL    H49 7857   1.694   7.408   3.071  1.2384 -0.3680  1.7476
   65MOL    C50 7858   1.894   7.397   3.118  0.6082 -0.2985 -0.5121
   65MOL    C51 7859   2.030   7.446   3.085 -0.5498 -0.0291  0.1929
   65MOL   Cl52 7860   2.102   7.358   2.949  0.1956 -0.1204 -0.0942
   65MOL    H53 7861   1.893   7.288   3.108 -1.1268 -0.0815 -2.9182
   65MOL    H54 7862   1.871   7.416   3.223 -3.8844  0.5928 -1.5441
   65MOL    H55 7863   2.030   7.550   3.052 -1.0453  0.0586  0.4683
   65MOL    C56 7864   2.134   7.445   3.198  0.4825 -0.3451  0.0341
   65MOL    C57 7865   2.196   7.315   3.254 -0.6590  0.4901  0.5948
   65MOL   Cl58 7866   2.059   7.228   3.324  0.4167 -0.0933 -0.1073
   65MOL    H59 7867   2.097   7.506   3.281  0.7063 -0.0954 -0.0483
   65MOL    H60 7868   2.212   7.506   3.153  1.2721  0.9522  2.9853
   65MOL    H61 7869   2.240   7.245   3.183  0.8635  2.5839 -0.5861
   65MOL    C62 7870   2.300   7.350   3.358  0.2790  0.3220  0.7141
   65MOL    C63 7871   2.382   7.243   3.429  0.3061  0.4648 -1.4403
   65MOL   Cl64 7872   2.469   7.326   3.565 -0.1902 -0.2488 -0.2019
   65MOL    H65 7873   2.245   7.406   3.434  0.5738 -0.4809  1.5231
   65MOL    H66 7874   2.378   7.421   3.330  0.0831  0.4400  0.4539
   65MOL    H67 7875   2.315   7.173   3.478  0.8793  0.5407 -0.5147
   65MOL    C68 7876   2.489   7.169   3.340  0.6107  0.6048  0.4573
   65MOL    C69 7877   2.577   7.067   3.413 -0.7239  0.1970  0.2441
   65MOL   Cl70 7878   2.678   6.979   3.292  0.3313 -0.5255  0.4919
   65MOL    H71 7879   2.553   7.247   3.300  0.1815  2.1941  2.7348
   65MOL    H72 7880   2.428   7.120   3.264  0.5038  1.0244  0.2701
   65MOL    H73 7881   2.650   7.124   3.470  1.5138 -1.5102 -0.8420
   65MOL    C74 7882   2.500   6.966   3.498 -0.7912  0.6444 -0.0484
   65MOL    C75 7883   2.403   6.876   3.416  0.4616  0.4865 -0.2864
   65MOL   Cl76 7884   2.237   6.947   3.398  0.5413 -0.0982  0.2372
   65MOL    H77 7885   2.455   7.006   3.589  0.1991  0.4076  0.5659
   65MOL    H78 7886   2.578   6.898   3.534  0.8448  1.6254 -1.7026
   65MOL    H79 7887   2.435   6.857   3.314  1.1956  2.4031 -0.4368
   65MOL    C80 7888   2.368   6.746   3.485  0.1121 -0.1898  0.0311
   65MOL    C81 7889   2.296   6.754   3.623  0.0311 -0.1359  0.7813
   65MOL   Cl82 7890   2.417   6.708   3.745 -0.1671  0.2807  0.3877
   65MOL    H83 7891   2.453   6.678   3.487 -1.6072 -2.4464 -0.8139
   65MOL    H84 7892   2.298   6.689   3.423 -0.1181  1.9881 -1.7776
   65MOL    H85 7893   2.259   6.851   3.655 -1.8717 -0.8356  0.7883
   65MOL    C86 7894   2.178   6.656   3.643  0.0105  0.4818  0.1407
   65MOL    C87 7895   2.045   6.675   3.572 -0.5958 -0.0985  0.1657
   65MOL   Cl88 7896   1.975   6.836   3.611 -0.1888  0.2405  0.0869
   65MOL    H89 7897   2.161   6.653   3.751 -0.6824 -0.2426  0.0134
   65MOL    H90 7898   2.216   6.554   3.636 -2.1637 -0.2812 -0.8410
   65MOL    H91 7899   2.067   6.672   3.465 -0.3091  1.1366  0.1741
   65MOL    C92 7900   1.944   6.572   3.625  0.3418  0.2182  0.0349
   65MOL    C93 7901   1.968   6.430   3.567  0.0384 -0.2616 -0.2823
   65MOL   Cl94 7902   1.887   6.424   3.408  0.4189 -0.2053 -0.0273
   65MOL    H95 7903   1.843   6.609   3.602 -0.5000 -1.7391  0.4659
   65MOL    H96 7904   1.956   6.574   3.733  1.2681 -2.2726 -0.0024
   65MOL    H97 7905   2.075   6.419   3.554  0.3620  2.4498 -0.2353
   65MOL    C98 7906   1.916   6.311   3.646  0.2670 -0.1404  0.4920
   65MOL    C99 7907   1.977   6.293   3.783 -0.2454  0.2484  0.3098
   65MOL  Cl100 7908   2.157   6.303   3.781 -0.4489 -0.0580  0.3562
   65MOL   H101 7909   1.928   6.222   3.583 -2.3355 -0.7409  0.7779
   65MOL   H102 7910   1.808   6.315   3.662  0.0733 -1.2686 -0.4512
   65MOL   H103 7911   1.942   6.375   3.846  0.3414  0.5363  0.2548
   65MOL   C104 7912   1.945   6.151   3.837 -0.3425  0.5969 -0.2102
   65MOL   C105 7913   1.801   6.116   3.880  0.4727  0.8058 -0.2543
   65MOL  Cl106 7914   1.756   6.231   4.011  0.3821 -0.1750 -0.1437
   65MOL   H107 7915   2.010   6.133   3.923  1.2994 -0.5075 -1.6513
   65MOL   H108 7916   1.977   6.083   3.759  0.4760  1.2007 -0.4110
   65MOL   H109 7917   1.739   6.133   3.793  0.4913 -3.6566 -1.2359
   65MOL   C110 7918   1.782   5.965   3.920  0.1400  0.0591 -0.6216
   65MOL   C111 7919   1.649   5.945   3.998 -0.0715 -0.3508  0.8197
   65MOL  Cl112 7920   1.634   5.770   4.030 -0.4984  0.0717  0.0881
   65MOL   H113 7921   1.865   5.945   3.988 -1.5237  1.2889  1.8479
   65MOL   H114 7922   1.793   5.892   3.840 -0.7114 -1.5106  0.6528
   65MOL   H115 7923   1.652   6.001   4.092 -2.8282  1.0400  0.1461
   65MOL   C116 7924   1.528   5.997   3.919  0.0683 -0.9560  0.1163
   65MOL   C117 7925   1.394   5.951   3.971 -0.1369  0.2518 -0.2477
   65MOL  Cl118 7926   1.359   6.047   4.123  0.2319 -0.3397  0.0228
   65MOL   H119 7927   1.528   5.975   3.813 -0.2231  0.5043 -0.1932
   65MOL   H120 7928   1.529   6.105   3.930  0.7840 -0.9722  0.2130
   65MOL   H121 7929   1.315   5.979   3.901 -0.2997  2.6924  0.8589
   65MOL   H122 7930   1.389   5.843   3.980 -1.3121  0.2659 -0.6432
   66MOL     C1 7931   1.475   5.409   3.971  0.1727  0.3927  0.3377
   66MOL     C2 7932   1.436   5.358   3.834  0.2703 -0.3514  0.4344
   66MOL    Cl3 7933   1.409   5.181   3.856  0.2617 -0.1637  0.1927
   66MOL     H4 7934   1.489   5.517   3.983 -3.1952  1.2514 -2.8523
   66MOL     H5 7935   1.394   5.392   4.042 -1.1385 -1.7689 -1.6255
   66MOL     H6 7936   1.339   5.395   3.801 -0.2009 -0.1553  2.0123
   66MOL     H7 7937   1.563   5.353   4.004  0.5560  0.6507 -0.2329
   66MOL     C8 7938   1.527   5.387   3.711  0.6817  0.2479 -0.6154
   66MOL     C9 7939   1.539   5.535   3.674 -0.5683  0.2825  0.3222
   66MOL   Cl10 7940   1.384   5.576   3.595  0.0232  0.0813  0.1610
   66MOL    H11 7941   1.524   5.315   3.629  0.2217 -0.6262  0.1604
   66MOL    H12 7942   1.623   5.360   3.755  0.7870 -1.4568 -1.8110
   66MOL    H13 7943   1.541   5.589   3.769 -0.5572  1.3704 -0.2920
   66MOL    C14 7944   1.657   5.583   3.587 -0.2478  0.2558 -0.4221
   66MOL    C15 7945   1.801   5.555   3.643 -0.3590  0.6497 -0.3079
   66MOL   Cl16 7946   1.813   5.608   3.818  0.5267  0.1248  0.2035
   66MOL    H17 7947   1.632   5.689   3.595 -2.1587 -0.0826 -1.5484
   66MOL    H18 7948   1.638   5.564   3.481  0.7997  1.0528 -0.7585
   66MOL    H19 7949   1.824   5.448   3.641  0.7960  0.8936 -0.1848
   66MOL    C20 7950   1.916   5.619   3.565  0.5340  0.1861  0.0167
   66MOL    C21 7951   1.925   5.560   3.419 -0.4446 -0.4381 -0.3185
   66MOL   Cl22 7952   1.983   5.388   3.443  0.2493 -0.1587 -0.0931
   66MOL    H23 7953   2.009   5.594   3.617  0.8024  1.2662  0.0771
   66MOL    H24 7954   1.905   5.727   3.563 -0.4844  0.0776 -0.4441
   66MOL    H25 7955   1.825   5.566   3.375  0.0081  0.0997 -1.2734
   66MOL    C26 7956   2.037   5.641   3.340  0.2396  0.6901 -0.0603
   66MOL    C27 7957   2.066   5.584   3.200  0.1619  0.3908 -0.1415
   66MOL   Cl28 7958   2.188   5.668   3.115  0.0646 -0.3989 -0.0919
   66MOL    H29 7959   2.129   5.630   3.397 -0.3098 -0.4491  0.6381
   66MOL    H30 7960   2.022   5.748   3.330  1.4737  0.7961 -0.8085
   66MOL    H31 7961   2.110   5.485   3.204 -0.3111  0.1849 -0.0822
   66MOL    C32 7962   1.932   5.579   3.113  0.0481  0.2447  0.5626
   66MOL    C33 7963   1.949   5.541   2.963 -0.0001  0.5937 -0.3418
   66MOL   Cl34 7964   1.790   5.570   2.883  0.2368 -0.0003  0.3204
   66MOL    H35 7965   1.898   5.682   3.120 -0.2976  0.1860 -0.2480
   66MOL    H36 7966   1.858   5.507   3.149  1.1772 -1.0793  0.2824
   66MOL    H37 7967   2.023   5.595   2.903  1.1827  0.9449  1.4036
   66MOL    C38 7968   1.992   5.390   2.951  0.0935  0.9523  0.7622
   66MOL    C39 7969   1.966   5.326   2.812  0.4702  0.3904 -0.1349
   66MOL   Cl40 7970   1.796   5.257   2.810  0.3026 -0.2815 -0.0335
   66MOL    H41 7971   1.957   5.319   3.025  2.0723 -1.2693 -0.3891
   66MOL    H42 7972   2.101   5.394   2.958  0.2579 -0.4112 -0.7198
   66MOL    H43 7973   1.970   5.406   2.738 -1.8398  0.9892  0.3265
   66MOL    C44 7974   2.063   5.203   2.777 -0.8749 -0.0091  0.3893
   66MOL    C45 7975   2.055   5.132   2.642  0.5430  0.5330 -0.3172
   66MOL   Cl46 7976   2.180   5.008   2.627  0.0409 -0.5129 -0.3591
   66MOL    H47 7977   2.059   5.127   2.855  1.3771 -0.4077  0.1794
   66MOL    H48 7978   2.167   5.238   2.778 -1.0537  0.5265  0.5776
   66MOL    H49 7979   1.964   5.072   2.648  0.2892  1.0311  1.2210
   66MOL    C50 7980   2.069   5.227   2.512  0.1504  0.4425 -0.5963
   66MOL    C51 7981   2.071   5.140   2.375 -0.2271 -0.1359  0.8221
   66MOL   Cl52 7982   2.129   5.265   2.257  0.0538  0.1263 -0.2971
   66MOL    H53 7983   2.164   5.280   2.515  0.9743 -0.9960 -0.3315
   66MOL    H54 7984   1.984   5.295   2.509 -0.5883 -0.3690  0.9874
   66MOL    H55 7985   2.146   5.060   2.377 -1.1039 -0.9768  0.5190
   66MOL    C56 7986   1.925   5.098   2.336  0.6897 -0.3146 -0.3694
   66MOL    C57 7987   1.918   4.958   2.275 -0.3541  0.0648 -0.1901
   66MOL   Cl58 7988   1.949   4.835   2.405 -0.5093 -0.1561  0.1276
   66MOL    H59 7989   1.887   5.167   2.261 -0.1053  0.7682  1.0361
   66MOL    H60 7990   1.852   5.103   2.416  0.5269  1.2175 -0.6166
   66MOL    H61 7991   1.815   4.933   2.251 -0.6596  2.8774 -2.0298
   66MOL    C62 7992   2.007   4.913   2.154 -0.4292  0.1140 -0.0346
   66MOL    C63 7993   1.991   4.990   2.017  0.3705  0.2548  0.3249
   66MOL   Cl64 7994   1.822   4.980   1.964  0.1192  0.1991 -0.0455
   66MOL    H65 7995   1.986   4.809   2.129  0.6817 -0.3022  0.7068
   66MOL    H66 7996   2.111   4.906   2.186  0.4405 -1.2695 -2.9535
   66MOL    H67 7997   2.003   5.098   2.025  0.0008  0.1008  3.3101
   66MOL    C68 7998   2.091   4.944   1.914 -0.3618  0.3836  0.5860
   66MOL    C69 7999   2.242   4.985   1.924 -0.3277 -0.0807  0.4365
   66MOL   Cl70 8000   2.272   5.157   1.887 -0.4604  0.2029  0.0330
   66MOL    H71 8001   2.066   4.986   1.816  0.1868 -1.4754 -0.3622
   66MOL    H72 8002   2.078   4.838   1.895 -2.7541  0.1810  3.0645
   66MOL    H73 8003   2.282   4.963   2.023 -0.6373 -1.3274  0.2885
   66MOL    C74 8004   2.331   4.904   1.819  0.3606 -0.3336 -0.1104
   66MOL    C75 8005   2.328   4.748   1.817  0.0222 -0.0120  0.1985
   66MOL   Cl76 8006   2.330   4.672   1.979 -0.2698  0.3729  0.1400
   66MOL    H77 8007   2.429   4.943   1.845 -0.5016  2.9778 -1.5699
   66MOL    H78 8008   2.321   4.947   1.719  2.0093 -0.4501 -0.3302
   66MOL    H79 8009   2.233   4.715   1.778 -0.0943 -1.2502  1.5127
   66MOL    C80 8010   2.440   4.685   1.736 -0.3066  0.6974  0.3305
   66MOL    C81 8011   2.435   4.707   1.585 -0.8881  0.3282 -0.4596
   66MOL   Cl82 8012   2.289   4.617   1.521  0.0479 -0.0091  0.1826
   66MOL    H83 8013   2.432   4.577   1.750  1.1265  0.6278  0.6706
   66MOL    H84 8014   2.537   4.714   1.776  1.0380  0.3091 -2.5568
   66MOL    H85 8015   2.412   4.807   1.547  0.0134 -0.2728 -2.6937
   66MOL    C86 8016   2.568   4.662   1.517 -0.0256  0.0710 -0.1590
   66MOL    C87 8017   2.701   4.745   1.534  0.2294  0.4632 -0.0127
   66MOL   Cl88 8018   2.667   4.901   1.455  0.1388 -0.1526 -0.0475
   66MOL    H89 8019   2.555   4.650   1.410  1.6924 -2.4546 -0.1496
   66MOL    H90 8020   2.586   4.558   1.547  1.6783  0.9561  2.1006
   66MOL    H91 8021   2.716   4.778   1.637  0.5750 -0.3519  0.1966
   66MOL    C92 8022   2.818   4.673   1.475 -0.1373 -0.0101 -0.3678
   66MOL    C93 8023   2.957   4.740   1.501 -0.3921  0.4311  0.1832
   66MOL   Cl94 8024   3.076   4.611   1.468  0.2099  0.1169  0.1005
   66MOL    H95 8025   2.805   4.680   1.367  2.8333 -0.8585 -0.8088
   66MOL    H96 8026   2.818   4.569   1.507 -0.0972  0.6042  1.7096
   66MOL    H97 8027   2.974   4.806   1.416  1.2110  0.9071  0.8599
   66MOL    C98 8028   3.006   4.794   1.640 -0.2848 -0.3471  0.2608
   66MOL    C99 8029   2.977   4.939   1.674 -0.2228  0.0556 -0.1919
   66MOL  Cl100 8030   3.041   5.046   1.539  0.3299 -0.1466 -0.3257
   66MOL   H101 8031   3.114   4.786   1.658 -0.2982 -1.3833 -0.1281
   66MOL   H102 8032   2.962   4.730   1.716  0.0397 -1.7876 -0.7416
   66MOL   H103 8033   2.869   4.947   1.667 -0.4104 -2.9629 -1.8963
   66MOL   C104 8034   3.033   4.985   1.810 -0.2261 -0.2498  0.3231
   66MOL   C105 8035   2.994   5.132   1.850  0.1393 -0.0666  0.0494
   66MOL  Cl106 8036   3.084   5.168   1.998  0.1309 -0.2037 -0.0375
   66MOL   H107 8037   3.141   4.975   1.801 -0.4900 -2.3228 -0.8728
   66MOL   H108 8038   3.021   4.912   1.889  2.2288 -0.3447  0.6499
   66MOL   H109 8039   3.036   5.204   1.780  1.7679 -1.1248 -0.0931
   66MOL   C110 8040   2.842   5.165   1.874 -0.5603  0.2403  1.1811
   66MOL   C111 8041   2.774   5.081   1.980  0.7489 -0.1410  0.2256
   66MOL  Cl112 8042   2.759   4.915   1.914 -0.4065  0.0496 -0.2991
   66MOL   H113 8043   2.777   5.152   1.787  3.8811 -0.9041 -2.1622
   66MOL   H114 8044   2.831   5.270   1.900 -0.2482  0.9541 -1.3921
   66MOL   H115 8045   2.826   5.085   2.076  0.7263 -0.2518  0.2429
   66MOL   C116 8046   2.640   5.141   2.039 -0.5329  0.1797 -0.0498
   66MOL   C117 8047   2.581   5.045   2.139  0.8015  0.7021  0.2247
   66MOL  Cl118 8048   2.426   5.089   2.207 -0.3350 -0.2284  0.0413
   66MOL   H119 8049   2.570   5.184   1.968 -1.2780  1.0400  1.1780
   66MOL   H120 8050   2.671   5.229   2.095  0.8727 -0.1515 -0.2815
   66MOL   H121 8051   2.551   4.966   2.070  0.6449 -1.1342  2.3416
   66MOL   H122 8052   2.647   4.998   2.211 -0.5886 -0.2588  0.9051
   67MOL     C1 8053   6.959   1.466   6.033 -0.8177 -0.2254 -0.7558
   67MOL     C2 8054   6.893   1.461   6.176 -0.2589 -0.7685 -0.1600
   67MOL    Cl3 8055   6.961   1.587   6.280  0.1008 -0.0459 -0.2527
   67MOL     H4 8056   7.064   1.442   6.055 -1.0321  0.4627  1.1393
   67MOL     H5 8057   6.923   1.388   5.966 -1.5068 -0.0080 -0.6338
   67MOL     H6 8058   6.787   1.480   6.166  0.0451  0.6862 -0.6959
   67MOL     H7 8059   6.972   1.559   5.978 -1.2723 -0.3271 -1.0309
   67MOL     C8 8060   6.897   1.325   6.248 -0.0182  0.8807  0.5043
   67MOL     C9 8061   6.787   1.304   6.359  0.0328  0.8756 -0.2596
   67MOL   Cl10 8062   6.833   1.164   6.445  0.1422  0.1004 -0.2262
   67MOL    H11 8063   7.000   1.324   6.283 -0.1610 -1.6636  0.9544
   67MOL    H12 8064   6.900   1.242   6.177  1.0735  1.7683 -0.5043
   67MOL    H13 8065   6.797   1.380   6.436  1.5633  0.1239  0.3092
   67MOL    C14 8066   6.643   1.282   6.298 -0.0531 -0.2423  0.4292
   67MOL    C15 8067   6.535   1.273   6.412 -0.4030 -0.2050 -0.7404
   67MOL   Cl16 8068   6.526   1.109   6.482  0.2020 -0.0455  0.2343
   67MOL    H17 8069   6.651   1.183   6.254  2.6754  0.3432 -0.5210
   67MOL    H18 8070   6.614   1.352   6.220  0.7393 -0.6973 -0.2774
   67MOL    H19 8071   6.549   1.346   6.492 -0.1340  0.2676 -1.2197
   67MOL    C20 8072   6.389   1.304   6.359  0.3315  0.2303 -0.7156
   67MOL    C21 8073   6.363   1.450   6.315  0.3344  0.1395 -0.2278
   67MOL   Cl22 8074   6.371   1.555   6.455 -0.1169 -0.1387  0.0754
   67MOL    H23 8075   6.315   1.276   6.433  1.3325 -0.5623 -0.0039
   67MOL    H24 8076   6.373   1.234   6.278  0.6182 -1.5364  0.7392
   67MOL    H25 8077   6.444   1.489   6.253  0.2538 -1.2297 -1.2103
   67MOL    C26 8078   6.224   1.476   6.245 -0.0381 -0.1752  0.0801
   67MOL    C27 8079   6.200   1.412   6.107 -0.0772  0.4148  0.3884
   67MOL   Cl28 8080   6.347   1.431   6.001  0.3501  0.4225  0.0181
   67MOL    H29 8081   6.209   1.583   6.233  1.2658 -0.0483 -0.5101
   67MOL    H30 8082   6.147   1.446   6.316  0.1562  0.8701  0.7343
   67MOL    H31 8083   6.176   1.308   6.126 -2.3901  0.7772 -0.4400
   67MOL    C32 8084   6.079   1.477   6.042  0.2533 -0.2679  0.1382
   67MOL    C33 8085   6.058   1.450   5.894 -0.3766  0.0549 -0.2779
   67MOL   Cl34 8086   5.925   1.552   5.837  0.1452  0.5301 -0.0785
   67MOL    H35 8087   6.094   1.585   6.053  0.3545 -0.4444  2.0007
   67MOL    H36 8088   5.982   1.458   6.089  0.4181 -1.4745  0.0049
   67MOL    H37 8089   6.142   1.487   5.835 -0.0014 -2.2312 -1.2120
   67MOL    C38 8090   6.039   1.303   5.852  0.1874  0.6360  0.4580
   67MOL    C39 8091   5.989   1.294   5.704  0.4072 -0.7971  0.2781
   67MOL   Cl40 8092   5.957   1.121   5.669 -0.0506 -0.5601  0.0031
   67MOL    H41 8093   5.962   1.246   5.905 -0.1031 -0.3201 -0.9387
   67MOL    H42 8094   6.139   1.264   5.870 -0.3893 -1.4354 -0.6586
   67MOL    H43 8095   5.889   1.337   5.700  0.1714 -1.3244  0.4728
   67MOL    C44 8096   6.074   1.364   5.601  0.1471  0.1608 -0.3677
   67MOL    C45 8097   6.041   1.344   5.450  0.7508 -0.4175 -0.0357
   67MOL   Cl46 8098   6.153   1.432   5.351  0.2731  0.0880 -0.3800
   67MOL    H47 8099   6.177   1.331   5.607  0.0929  0.2547  1.0544
   67MOL    H48 8100   6.079   1.471   5.621  0.1408  0.5274 -2.2270
   67MOL    H49 8101   6.053   1.240   5.419  0.0280 -0.6075  0.2853
   67MOL    C50 8102   5.900   1.375   5.399  0.3278  0.6342  0.2792
   67MOL    C51 8103   5.855   1.517   5.438  0.3223  0.3791  0.1861
   67MOL   Cl52 8104   5.730   1.515   5.557  0.1380  0.2123  0.1499
   67MOL    H53 8105   5.833   1.304   5.448  1.0776 -0.2961 -0.0310
   67MOL    H54 8106   5.902   1.359   5.291 -1.2861 -3.2865  0.7500
   67MOL    H55 8107   5.933   1.580   5.480 -1.9598  1.0821  3.6078
   67MOL    C56 8108   5.807   1.597   5.309  0.2058 -0.1312  0.1696
   67MOL    C57 8109   5.745   1.737   5.344  0.0968 -0.1096  0.0874
   67MOL   Cl58 8110   5.698   1.781   5.180  0.0497 -0.1908 -0.2321
   67MOL    H59 8111   5.743   1.535   5.246  1.5935 -0.7433 -0.6687
   67MOL    H60 8112   5.896   1.613   5.249  0.2997  0.1556  0.3906
   67MOL    H61 8113   5.653   1.726   5.401  0.6391 -1.5087  0.7247
   67MOL    C62 8114   5.841   1.839   5.403  0.4156  0.0239  0.6804
   67MOL    C63 8115   5.858   1.837   5.554 -0.1188  0.2048  0.0824
   67MOL   Cl64 8116   5.704   1.889   5.611  0.0525  0.1526  0.1498
   67MOL    H65 8117   5.809   1.941   5.381  0.1823 -0.2388 -0.2127
   67MOL    H66 8118   5.939   1.823   5.359  0.7314 -0.9604  1.6949
   67MOL    H67 8119   5.868   1.735   5.590 -2.2850 -0.2287 -0.4600
   67MOL    C68 8120   5.963   1.925   5.614  0.3039  0.6860 -0.3918
   67MOL    C69 8121   6.111   1.899   5.573  1.2750  0.4065  0.3468
   67MOL   Cl70 8122   6.156   1.723   5.609 -0.0146 -0.2367  0.1993
   67MOL    H71 8123   5.950   1.919   5.722  1.1747 -2.5589 -0.4156
   67MOL    H72 8124   5.935   2.025   5.581  0.3045  0.5632 -0.7694
   67MOL    H73 8125   6.134   1.911   5.467  0.1476  1.9510  0.2553
   67MOL    C74 8126   6.193   1.997   5.661 -0.1346  0.1856  0.7521
   67MOL    C75 8127   6.325   2.058   5.607  0.1729 -0.3850  0.5849
   67MOL   Cl76 8128   6.446   1.931   5.582 -0.0837 -0.1965 -0.6246
   67MOL    H77 8129   6.219   1.960   5.761  1.6946  0.5507  0.4421
   67MOL    H78 8130   6.127   2.082   5.678 -0.8341 -0.2178  0.1000
   67MOL    H79 8131   6.302   2.094   5.506  1.9501 -1.2665 -0.1618
   67MOL    C80 8132   6.383   2.172   5.690 -0.0536 -0.1989  0.1010
   67MOL    C81 8133   6.489   2.267   5.616  0.5240  0.2392 -0.2711
   67MOL   Cl82 8134   6.647   2.194   5.650  0.3116 -0.0284 -0.2386
   67MOL    H83 8135   6.420   2.145   5.788  1.5590 -2.1911 -1.0182
   67MOL    H84 8136   6.287   2.222   5.707 -1.0233 -1.4837 -1.3598
   67MOL    H85 8137   6.455   2.259   5.513  0.0888  0.1067 -0.1199
   67MOL    C86 8138   6.479   2.409   5.664  0.2819 -0.0184  0.1339
   67MOL    C87 8139   6.570   2.512   5.591 -0.6108  0.2408 -0.1762
   67MOL   Cl88 8140   6.546   2.667   5.679  0.0579 -0.2382 -0.2489
   67MOL    H89 8141   6.499   2.414   5.771  0.3757  0.0472  0.1134
   67MOL    H90 8142   6.381   2.450   5.642 -0.5863 -2.6630 -1.1704
   67MOL    H91 8143   6.674   2.487   5.613 -0.7606 -0.4386 -0.2277
   67MOL    C92 8144   6.547   2.529   5.444 -0.7218 -0.0283  0.1674
   67MOL    C93 8145   6.649   2.614   5.362  0.0861 -0.4385 -0.0485
   67MOL   Cl94 8146   6.575   2.635   5.199  0.5642 -0.1789 -0.0358
   67MOL    H95 8147   6.457   2.589   5.437 -3.1859 -3.7402 -1.7183
   67MOL    H96 8148   6.532   2.436   5.388  1.2949  0.6254 -1.5175
   67MOL    H97 8149   6.655   2.708   5.417  1.6094 -0.6844  0.2278
   67MOL    C98 8150   6.787   2.550   5.341  1.1183  0.0007 -0.5986
   67MOL    C99 8151   6.912   2.632   5.290  0.2838 -0.4939 -0.6640
   67MOL  Cl100 8152   6.953   2.773   5.399 -0.0908 -0.2252 -0.1791
   67MOL   H101 8153   6.787   2.458   5.282 -0.4248 -0.8602  0.7199
   67MOL   H102 8154   6.805   2.503   5.437  1.2816 -0.9274 -1.0752
   67MOL   H103 8155   6.998   2.566   5.300  1.1195  0.4047 -1.6874
   67MOL   C104 8156   6.897   2.687   5.141  1.2346  0.0470 -0.3039
   67MOL   C105 8157   6.863   2.594   5.030  0.2460  0.4609  0.7323
   67MOL  Cl106 8158   7.007   2.490   5.004 -0.0997  0.0574  0.2124
   67MOL   H107 8159   6.991   2.737   5.117  0.1006  2.3744 -0.0035
   67MOL   H108 8160   6.811   2.754   5.151 -0.6788 -2.2506 -0.9265
   67MOL   H109 8161   6.779   2.525   5.043  0.1932  0.0566 -1.4822
   67MOL   C110 8162   6.833   2.674   4.900  0.5314  0.1895 -0.5021
   67MOL   C111 8163   6.695   2.721   4.885  0.5204  0.0511 -0.3641
   67MOL  Cl112 8164   6.597   2.575   4.847  0.1131 -0.7959  0.1362
   67MOL   H113 8165   6.868   2.617   4.814  0.1953  2.8724 -2.4755
   67MOL   H114 8166   6.897   2.761   4.889  1.5449 -0.4611  0.1647
   67MOL   H115 8167   6.658   2.767   4.976  0.1932 -2.1965  0.6848
   67MOL   C116 8168   6.673   2.817   4.768  1.1518 -0.1161 -0.5092
   67MOL   C117 8169   6.532   2.876   4.771  1.2167  0.0065  0.2468
   67MOL  Cl118 8170   6.499   2.914   4.603  0.4273  0.0702 -0.5684
   67MOL   H119 8171   6.705   2.776   4.673 -0.6097  0.4207 -1.3434
   67MOL   H120 8172   6.743   2.898   4.792  1.9889 -0.7100 -0.9240
   67MOL   H121 8173   6.454   2.805   4.801  1.0095  0.2197  0.2136
   67MOL   H122 8174   6.529   2.965   4.834  0.1620  1.0157 -1.1939
   68MOL     C1 8175   4.164   3.028   0.769 -0.5555 -0.1238  0.0112
   68MOL     C2 8176   4.080   3.143   0.707 -0.0668 -0.1110 -0.4292
   68MOL    Cl3 8177   3.921   3.122   0.784 -0.1440  0.0297  0.0706
   68MOL     H4 8178   4.138   3.032   0.875  0.2788 -2.8991  0.3675
   68MOL     H5 8179   4.149   2.928   0.730  0.8866 -0.1346 -0.5280
   68MOL     H6 8180   4.117   3.241   0.740  0.0704 -0.2121 -0.2828
   68MOL     H7 8181   4.272   3.043   0.762 -0.6925  0.1459 -1.6720
   68MOL     C8 8182   4.055   3.139   0.553 -0.4085 -0.6929  0.2408
   68MOL     C9 8183   4.175   3.124   0.456 -0.3670 -0.0794  0.1209
   68MOL   Cl10 8184   4.284   3.267   0.482  0.4841  0.3462  0.6609
   68MOL    H11 8185   3.999   3.230   0.529  0.3210 -0.4837 -0.7301
   68MOL    H12 8186   3.988   3.054   0.541 -0.3476 -0.9523  1.6981
   68MOL    H13 8187   4.235   3.041   0.494  1.9568  1.0045 -1.1232
   68MOL    C14 8188   4.136   3.118   0.309  0.7653 -0.8840  0.9279
   68MOL    C15 8189   4.256   3.101   0.212  0.3301 -0.0106  0.5802
   68MOL   Cl16 8190   4.188   3.112   0.049  0.1631 -0.0925  0.0084
   68MOL    H17 8191   4.063   3.196   0.289  3.0061  0.9693 -0.2770
   68MOL    H18 8192   4.074   3.030   0.295  0.5956 -0.4698 -0.9692
   68MOL    H19 8193   4.326   3.185   0.213  3.2024 -2.2847 -1.3010
   68MOL    C20 8194   4.340   2.977   0.236 -0.0590 -0.3179  0.2978
   68MOL    C21 8195   4.433   2.938   0.120  0.3853 -1.1580  0.1278
   68MOL   Cl22 8196   4.499   2.778   0.174 -0.2881 -0.6928 -0.5031
   68MOL    H23 8197   4.274   2.891   0.248 -0.5331 -0.4086 -2.7606
   68MOL    H24 8198   4.401   2.989   0.326  0.0253  2.3059 -0.0531
   68MOL    H25 8199   4.361   2.897   0.050 -0.2423  1.5433 -0.8558
   68MOL    C26 8200   4.537   3.045   0.077  0.9125 -0.1586  0.4196
   68MOL    C27 8201   4.653   2.983   8.523 -0.4772 -0.2939 -0.1669
   68MOL   Cl28 8202   4.779   3.114   8.519  0.2006 -0.4511 -0.4036
   68MOL    H29 8203   4.585   3.095   0.161  3.0547 -0.0666 -0.8142
   68MOL    H30 8204   4.486   3.127   0.027 -1.2194 -0.9439  1.2470
   68MOL    H31 8205   4.698   2.903   0.056 -1.7591 -1.0159 -0.1325
   68MOL    C32 8206   4.607   2.930   8.387 -0.2897 -0.4643  0.6283
   68MOL    C33 8207   4.705   2.853   8.304  0.3738 -0.1062 -0.0788
   68MOL   Cl34 8208   4.694   2.924   8.141  0.3281 -0.0196 -0.1994
   68MOL    H35 8209   4.568   3.014   8.328 -1.2786 -0.4173  1.3441
   68MOL    H36 8210   4.517   2.871   8.404 -0.1295 -0.8444  0.1677
   68MOL    H37 8211   4.805   2.878   8.341  0.6968  1.8900 -2.1193
   68MOL    C38 8212   4.701   2.699   8.290 -0.1412  0.2894  0.0401
   68MOL    C39 8213   4.709   2.620   8.422  0.2033  0.0322  0.3215
   68MOL   Cl40 8214   4.857   2.654   8.505 -0.3239  0.1506  0.0133
   68MOL    H41 8215   4.779   2.680   8.217 -2.1865  0.5036 -2.2594
   68MOL    H42 8216   4.618   2.675   8.224  0.1354 -1.8116  0.4186
   68MOL    H43 8217   4.627   2.645   8.489 -2.0289 -0.0465 -2.2970
   68MOL    C44 8218   4.704   2.466   8.399 -0.4849 -0.1382 -0.6886
   68MOL    C45 8219   4.591   2.414   8.310  0.1880 -0.8419 -0.2954
   68MOL   Cl46 8220   4.433   2.483   8.365  0.1413  0.2989  0.0183
   68MOL    H47 8221   4.701   2.420   8.498 -0.3570  0.9046 -0.1937
   68MOL    H48 8222   4.801   2.437   8.357 -0.3883  0.1925 -0.6919
   68MOL    H49 8223   4.602   2.447   8.206  1.0327 -1.1755 -0.3143
   68MOL    C50 8224   4.594   2.256   8.302 -0.2153 -0.7575  1.2981
   68MOL    C51 8225   4.469   2.189   8.241 -0.3473  0.1176 -0.6037
   68MOL   Cl52 8226   4.502   2.016   8.237 -0.2985  0.3438 -0.0584
   68MOL    H53 8227   4.609   2.222   8.404  0.3574 -3.2139  0.4318
   68MOL    H54 8228   4.684   2.225   8.248 -0.1476 -0.5833  1.3124
   68MOL    H55 8229   4.387   2.201   8.312  0.4716  0.7597  0.2527
   68MOL    C56 8230   4.439   2.239   8.092  0.0638  0.3504 -0.3572
   68MOL    C57 8231   4.315   2.186   8.017 -0.0917 -0.5021  0.3259
   68MOL   Cl58 8232   4.312   2.235   7.851 -0.2349  0.1628  0.0802
   68MOL    H59 8233   4.527   2.223   8.030 -1.3197 -3.3440 -1.4999
   68MOL    H60 8234   4.439   2.348   8.085 -1.3099  0.2376 -2.6789
   68MOL    H61 8235   4.328   2.078   8.022  2.3064 -0.1789  2.1653
   68MOL    C62 8236   4.190   2.230   8.089 -0.1262  0.3367 -0.5421
   68MOL    C63 8237   4.137   2.129   8.191 -0.9274 -0.8456  0.1817
   68MOL   Cl64 8238   4.061   1.993   8.113  0.1072 -0.1890  0.2265
   68MOL    H65 8239   4.117   2.240   8.009 -1.7963  0.8238  0.9871
   68MOL    H66 8240   4.200   2.329   8.132  1.2262  0.0764 -0.2311
   68MOL    H67 8241   4.229   2.086   8.230  1.6150  1.9195 -2.5176
   68MOL    C68 8242   4.047   2.187   8.308 -0.3100  0.1560 -0.3932
   68MOL    C69 8243   3.999   2.090   8.406 -0.3461 -0.0838  0.0610
   68MOL   Cl70 8244   3.915   2.175   0.012  0.6418  0.1851 -0.1413
   68MOL    H71 8245   3.967   2.240   8.255 -0.6075  1.0103  0.9070
   68MOL    H72 8246   4.096   2.266   8.365 -3.5159  1.0694  1.1675
   68MOL    H73 8247   3.928   2.018   8.364  1.0014 -2.4429  1.7428
   68MOL    C74 8248   4.113   2.011   8.477  0.2074 -0.5401  0.3063
   68MOL    C75 8249   4.057   1.889   0.017 -0.0067  0.3907  0.1504
   68MOL   Cl76 8250   4.178   1.827   0.135  0.1455  0.4352 -0.4636
   68MOL    H77 8251   4.163   2.068   0.029 -0.3541 -0.7370  0.8191
   68MOL    H78 8252   4.190   1.970   8.413  0.0171  0.5375 -0.6368
   68MOL    H79 8253   3.966   1.908   0.074  0.5328  1.6689  0.6239
   68MOL    C80 8254   4.043   1.770   8.434  0.2687 -0.1517 -0.2057
   68MOL    C81 8255   3.940   1.656   8.454 -0.3759  0.0773 -0.3170
   68MOL   Cl82 8256   3.782   1.728   8.466  0.1149 -0.1535  0.4882
   68MOL    H83 8257   4.142   1.727   8.422  0.8037  1.2807 -1.0345
   68MOL    H84 8258   4.023   1.817   8.338 -0.1587 -0.6921 -0.3826
   68MOL    H85 8259   3.940   1.596   8.363  1.4506  0.6436 -0.7159
   68MOL    C86 8260   3.978   1.570   0.057 -0.3071  0.8808  0.0330
   68MOL    C87 8261   4.082   1.461   0.008  0.6172  0.3138 -0.6182
   68MOL   Cl88 8262   3.979   1.348   8.451 -0.4054  0.0901  0.3897
   68MOL    H89 8263   3.889   1.528   0.103  0.3335 -1.0416 -0.4534
   68MOL    H90 8264   4.029   1.624   0.137 -1.4445 -0.0293  1.3848
   68MOL    H91 8265   4.144   1.507   8.456  0.6614  0.5531 -0.4428
   68MOL    C92 8266   4.159   1.375   0.114  0.7290 -0.1621  0.3373
   68MOL    C93 8267   4.287   1.449   0.170  0.1473 -0.2171  0.5989
   68MOL   Cl94 8268   4.399   1.474   0.032  0.0038 -0.0551  0.2016
   68MOL    H95 8269   4.197   1.290   0.057 -0.4467  0.4436 -1.4078
   68MOL    H96 8270   4.091   1.339   0.191  0.0910  2.4856  1.0652
   68MOL    H97 8271   4.268   1.553   0.195  1.0945 -0.3716  2.0568
   68MOL    C98 8272   4.358   1.367   0.276 -0.6054  0.0337  0.2999
   68MOL    C99 8273   4.282   1.371   0.406  0.6033  0.8116 -0.1805
   68MOL  Cl100 8274   4.275   1.537   0.470  0.2799 -0.3191  0.5304
   68MOL   H101 8275   4.461   1.399   0.293 -0.3321  0.0226 -1.2508
   68MOL   H102 8276   4.372   1.268   0.232 -0.0941  0.7206 -1.0984
   68MOL   H103 8277   4.182   1.331   0.395  0.2890  1.4984  0.1153
   68MOL   C104 8278   4.345   1.268   0.510 -0.4519 -0.6443  0.0619
   68MOL   C105 8279   4.252   1.265   0.636  0.7510  0.4842  0.0937
   68MOL  Cl106 8280   4.325   1.352   0.766 -0.2787 -0.1817  0.4001
   68MOL   H107 8281   4.443   1.297   0.547  0.3706 -1.1445 -1.6962
   68MOL   H108 8282   4.356   1.168   0.468  1.4052 -1.5690  2.6045
   68MOL   H109 8283   4.157   1.313   0.613  0.2115 -0.8987 -0.6625
   68MOL   C110 8284   4.219   1.124   0.689 -0.1619  0.5629 -0.5358
   68MOL   C111 8285   4.151   1.030   0.585 -0.0044 -0.0499  0.2903
   68MOL  Cl112 8286   3.994   1.101   0.529  0.0035  0.2562 -0.3136
   68MOL   H113 8287   4.155   1.135   0.776 -1.5810  0.2067 -1.5098
   68MOL   H114 8288   4.308   1.072   0.723  0.5290  0.6450 -2.1502
   68MOL   H115 8289   4.208   1.020   0.493 -0.3389 -0.3165  0.1102
   68MOL   C116 8290   4.122   0.887   0.642 -0.3895  0.0427 -0.3790
   68MOL   C117 8291   4.250   0.794   0.645 -0.3120  0.1493 -0.0107
   68MOL  Cl118 8292   4.215   0.636   0.732 -0.2986 -0.2133 -0.2368
   68MOL   H119 8293   4.056   0.839   0.569  0.6937  0.9048 -1.9651
   68MOL   H120 8294   4.072   0.892   0.739  0.8298 -2.0222  0.3919
   68MOL   H121 8295   4.300   0.768   0.552 -0.5978  0.5117 -0.2651
   68MOL   H122 8296   4.334   0.844   0.694 -0.1914 -1.0126  0.9913
   69MOL     C1 8297   8.471   0.827   2.940 -0.3363  0.4780 -0.4577
   69MOL     C2 8298   8.339   0.848   3.015  0.2071  0.0186 -0.1337
   69MOL    Cl3 8299   8.337   0.705   3.126  0.0254  0.2326 -0.4561
   69MOL     H4 8300   8.464   0.733   2.886  0.9088 -0.4925  1.0373
   69MOL     H5 8301   8.485   0.903   2.862 -0.9530  0.5796 -0.4736
   69MOL     H6 8302   8.352   0.939   3.073 -1.2452 -1.9944  3.5447
   69MOL     H7 8303   0.029   0.828   3.010 -1.3526  0.4922  0.7808
   69MOL     C8 8304   8.209   0.844   2.927 -1.0394  0.1495  0.1681
   69MOL     C9 8305   8.189   0.957   2.828  0.2182  0.0423  0.6871
   69MOL   Cl10 8306   8.176   1.108   2.922  0.2238 -0.2029  0.2841
   69MOL    H11 8307   8.130   0.844   3.002 -1.2206 -1.7651 -0.0070
   69MOL    H12 8308   8.201   0.751   2.871 -1.2222 -0.0988  0.6077
   69MOL    H13 8309   8.275   0.980   2.765 -1.4772  0.7247 -1.4375
   69MOL    C14 8310   8.065   0.950   2.740  0.0407 -0.7092  0.2652
   69MOL    C15 8311   8.061   0.844   2.629 -0.5546  0.0788 -0.1353
   69MOL   Cl16 8312   8.213   0.859   2.546 -0.0826  0.1197 -0.1442
   69MOL    H17 8313   8.053   1.050   2.700  1.5529 -0.0537  1.3860
   69MOL    H18 8314   7.982   0.943   2.811 -1.3260  3.8372 -0.7565
   69MOL    H19 8315   8.055   0.748   2.678 -2.1259 -0.0793 -0.6265
   69MOL    C20 8316   7.942   0.865   2.521 -0.5032  0.2142  0.1741
   69MOL    C21 8317   7.892   0.754   2.429  0.1864 -0.5753 -0.4403
   69MOL   Cl22 8318   7.820   0.624   2.531 -0.0831  0.0438 -0.5156
   69MOL    H23 8319   7.967   0.950   2.458 -0.7524  2.3007  2.8041
   69MOL    H24 8320   7.853   0.898   2.575  0.1929  0.6975  1.0333
   69MOL    H25 8321   7.809   0.798   2.374  0.5638  2.4340  1.2591
   69MOL    C26 8322   7.992   0.702   2.326  0.2522  0.5918  0.6812
   69MOL    C27 8323   8.047   0.810   2.233  0.3047 -0.4379 -0.3005
   69MOL   Cl28 8324   7.915   0.875   2.134  0.1914 -0.0307 -0.2832
   69MOL    H29 8325   7.948   0.616   2.275 -3.7226  3.0710 -0.2799
   69MOL    H30 8326   8.071   0.661   2.390  2.5231  2.4530 -0.8484
   69MOL    H31 8327   8.089   0.893   2.291  1.3056  1.2242 -3.3025
   69MOL    C32 8328   8.152   0.753   2.133  0.4905 -0.0628  0.4877
   69MOL    C33 8329   8.302   0.745   2.176 -0.3441  0.4591 -0.3435
   69MOL   Cl34 8330   8.351   0.911   2.232 -0.3071 -0.1955  0.2206
   69MOL    H35 8331   8.146   0.817   2.044 -1.4313  0.0054  0.6264
   69MOL    H36 8332   8.122   0.656   2.094 -3.2942  1.8633 -1.7584
   69MOL    H37 8333   8.315   0.677   2.261  1.0417  0.8835 -0.2081
   69MOL    C38 8334   8.385   0.702   2.055  0.1685  0.1492 -0.6012
   69MOL    C39 8335   0.006   0.682   2.080  0.3493 -0.7810 -0.1185
   69MOL   Cl40 8336   0.087   0.648   1.923  0.1226 -0.1110  0.2014
   69MOL    H41 8337   8.370   0.770   1.972 -0.5499  2.4856  1.3850
   69MOL    H42 8338   8.350   0.605   2.018 -0.9972 -0.3037  1.5930
   69MOL    H43 8339   0.047   0.775   2.121 -0.6059 -0.9609  1.3101
   69MOL    C44 8340   0.036   0.559   2.172 -0.7153 -0.0784 -0.4427
   69MOL    C45 8341   0.183   0.550   2.217  0.8816  0.8210  0.8171
   69MOL   Cl46 8342   0.197   0.403   2.321 -0.2418  0.2610  0.1422
   69MOL    H47 8343   0.010   0.457   2.140 -0.0698 -0.8841  1.5523
   69MOL    H48 8344   8.502   0.564   2.263 -1.8115 -3.0913 -0.9113
   69MOL    H49 8345   0.233   0.527   2.123 -0.3365  0.5232  0.2356
   69MOL    C50 8346   0.240   0.669   2.296  0.1978  0.1309  0.3979
   69MOL    C51 8347   0.387   0.643   2.322 -0.1815 -0.3718 -0.0432
   69MOL   Cl52 8348   0.444   0.745   2.464 -0.1439 -0.0118 -0.2791
   69MOL    H53 8349   0.186   0.673   2.390  1.0544  0.8173  0.8713
   69MOL    H54 8350   0.244   0.762   2.238 -0.1968  1.5323  2.5436
   69MOL    H55 8351   0.402   0.538   2.350  1.1825  0.2227  1.5554
   69MOL    C56 8352   0.489   0.681   2.204  0.1635  0.1141 -0.3260
   69MOL    C57 8353   0.626   0.614   2.195  1.1921  0.0752  0.7184
   69MOL   Cl58 8354   0.592   0.441   2.193 -0.6514  0.0881 -0.1966
   69MOL    H59 8355   0.498   0.789   2.208  1.3551  0.1619 -3.0735
   69MOL    H60 8356   0.442   0.666   2.106  1.5230 -0.4731 -0.9091
   69MOL    H61 8357   0.665   0.641   2.097 -2.4745  0.9094 -0.5822
   69MOL    C62 8358   0.733   0.645   2.313 -0.0647  0.1492 -0.4785
   69MOL    C63 8359   0.799   0.787   2.333 -0.0885 -0.8210 -0.3743
   69MOL   Cl64 8360   0.825   0.855   2.175  0.0610  0.5708  0.1960
   69MOL    H65 8361   0.816   0.577   2.296 -0.1359 -0.1389  0.3494
   69MOL    H66 8362   0.696   0.607   2.407  1.6132 -0.8272 -0.1988
   69MOL    H67 8363   0.735   0.861   2.381  3.0814  1.5477  0.4233
   69MOL    C68 8364   0.939   0.777   2.409 -0.1169  0.0001  0.3804
   69MOL    C69 8365   1.011   0.912   2.410  0.1469 -0.0997 -0.7194
   69MOL   Cl70 8366   1.173   0.888   2.481  0.3192 -0.2379  0.0017
   69MOL    H71 8367   1.000   0.705   2.354 -1.2148 -0.1102 -0.7413
   69MOL    H72 8368   0.933   0.731   2.508 -0.4494 -0.1603  0.2902
   69MOL    H73 8369   1.024   0.958   2.312 -1.1098 -1.8531 -1.7277
   69MOL    C74 8370   0.943   1.022   2.494  0.6999 -0.5873 -0.2076
   69MOL    C75 8371   0.929   1.003   2.656  0.0253 -0.2255  0.2587
   69MOL   Cl76 8372   0.790   1.107   2.712  0.2057  0.4606  0.3802
   69MOL    H77 8373   0.844   1.023   2.449 -0.2594 -0.4256  1.8436
   69MOL    H78 8374   0.974   1.123   2.468 -0.1770 -0.0226  0.9184
   69MOL    H79 8375   0.909   0.896   2.663  1.6723 -0.4841  1.3432
   69MOL    C80 8376   1.053   1.051   2.728 -0.4747 -0.3977 -0.8237
   69MOL    C81 8377   1.071   0.979   2.861 -1.0507  0.1558 -0.6567
   69MOL   Cl82 8378   1.190   1.060   2.968  0.2518 -0.3380 -0.1985
   69MOL    H83 8379   1.048   1.160   2.734 -0.6030 -0.4635  0.6081
   69MOL    H84 8380   1.148   1.040   2.677 -0.3807  2.1043 -1.2141
   69MOL    H85 8381   0.977   0.997   2.914 -1.1905  0.1272 -0.8931
   69MOL    C86 8382   1.114   0.834   2.845  0.4267 -0.2664 -0.1015
   69MOL    C87 8383   1.118   0.750   2.969  0.3089 -0.3486  0.5139
   69MOL   Cl88 8384   1.202   0.599   2.930 -0.5820  0.0494 -0.0886
   69MOL    H89 8385   1.219   0.831   2.818  0.4301 -1.2251 -0.0004
   69MOL    H90 8386   1.052   0.790   2.767  1.0081  1.3095 -1.4905
   69MOL    H91 8387   1.182   0.796   3.044 -0.2642  0.6454  0.3909
   69MOL    C92 8388   0.981   0.718   3.045  0.2659 -0.0711 -0.1294
   69MOL    C93 8389   0.875   0.648   2.964  0.1443 -0.5567  0.6236
   69MOL   Cl94 8390   0.783   0.771   2.864 -0.2947  0.6907 -0.3169
   69MOL    H95 8391   0.942   0.816   3.071 -2.7739 -0.7140 -2.0311
   69MOL    H96 8392   1.005   0.659   3.133  0.4471 -1.9142 -1.3923
   69MOL    H97 8393   0.908   0.570   2.896  1.0099  0.5074 -0.2006
   69MOL    C98 8394   0.775   0.577   3.059  0.6437  0.0172 -0.6088
   69MOL    C99 8395   0.665   0.496   2.981  0.6549  1.1595  0.4568
   69MOL  Cl100 8396   0.525   0.464   3.076  0.0064  0.0711 -0.2984
   69MOL   H101 8397   0.733   0.659   3.116  1.3041 -1.4112  2.0344
   69MOL   H102 8398   0.817   0.512   3.137  0.7788 -0.0531 -0.7394
   69MOL   H103 8399   0.635   0.554   2.893  2.9605  0.9182 -0.5434
   69MOL   C104 8400   0.735   0.366   2.938 -0.4116 -0.2968  0.7238
   69MOL   C105 8401   0.633   0.267   2.873  0.8531  0.0190  0.2716
   69MOL  Cl106 8402   0.737   0.129   2.833  0.1986 -0.1673 -0.0041
   69MOL   H107 8403   0.775   0.313   3.024  2.9152  0.0224 -0.5838
   69MOL   H108 8404   0.819   0.387   2.872  0.1440 -1.5827  1.0013
   69MOL   H109 8405   0.558   0.236   2.946  1.7494 -0.3422  1.0595
   69MOL   C110 8406   0.572   0.316   2.744 -0.0306 -0.2781  0.1369
   69MOL   C111 8407   0.478   0.219   2.667  0.2655  0.4799 -0.2931
   69MOL  Cl112 8408   0.480   0.248   2.489  0.0262  0.0806  0.0365
   69MOL   H113 8409   0.651   0.344   2.674 -2.0468  1.1406 -1.6279
   69MOL   H114 8410   0.518   0.409   2.762  1.2218  0.3411  0.7524
   69MOL   H115 8411   0.519   0.121   2.693 -1.7895 -0.5586 -0.9303
   69MOL   C116 8412   0.330   0.225   2.715 -0.2186 -0.2430  0.2292
   69MOL   C117 8413   0.259   0.093   2.680 -0.0670  0.6725  0.6747
   69MOL  Cl118 8414   0.104   0.085   2.768 -0.2385 -0.3283 -0.2424
   69MOL   H119 8415   0.280   0.315   2.679 -0.6235 -0.7187 -0.4120
   69MOL   H120 8416   0.330   0.241   2.823 -2.1584  1.1350  0.0498
   69MOL   H121 8417   0.234   0.082   2.575  2.7063  1.7474 -0.1397
   69MOL   H122 8418   0.307   0.002   2.715  0.6435  1.2507  1.2117
   70MOL     C1 8419   5.836   0.143   5.697 -0.6299 -0.5808 -0.1603
   70MOL     C2 8420   5.817   8.523   5.644 -0.2973 -0.0841  0.2587
   70MOL    Cl3 8421   5.833   8.421   5.790  0.1345  0.5023  0.1461
   70MOL     H4 8422   5.829   0.164   5.804 -1.9983 -2.5763  0.1609
   70MOL     H5 8423   5.937   0.178   5.676 -1.0320  0.9701  0.3633
   70MOL     H6 8424   5.721   8.504   5.595 -0.1270  3.0108 -1.3798
   70MOL     H7 8425   5.773   0.213   5.642 -0.3900  1.0971  1.6236
   70MOL     C8 8426   5.933   8.485   5.544  0.1354 -0.2285 -0.2177
   70MOL     C9 8427   5.914   0.006   5.398 -0.5123 -0.1584 -0.3332
   70MOL   Cl10 8428   5.763   8.473   5.313  0.1573  0.0315 -0.3167
   70MOL    H11 8429   5.945   8.377   5.546 -0.4547 -0.3211 -1.3348
   70MOL    H12 8430   6.020   0.007   5.591 -0.7883  0.8650  0.4262
   70MOL    H13 8431   5.898   0.114   5.396 -1.2087 -0.2668 -1.1554
   70MOL    C14 8432   6.032   8.487   5.304 -0.2756  0.3371 -0.1737
   70MOL    C15 8433   6.132   0.071   5.263  1.0114 -0.1702  0.0541
   70MOL   Cl16 8434   6.045   0.212   5.191  0.3526  0.0815 -0.3935
   70MOL    H17 8435   5.988   8.451   5.211  0.6053 -1.0425 -0.0806
   70MOL    H18 8436   6.079   8.401   5.352 -0.6936 -0.6551 -1.5135
   70MOL    H19 8437   6.168   0.108   5.359 -0.5657  1.8973 -0.1271
   70MOL    C20 8438   6.258   0.042   5.177 -0.3846 -0.0318 -0.0168
   70MOL    C21 8439   6.330   8.436   5.218 -0.2872  0.1770 -0.0190
   70MOL   Cl22 8440   6.387   8.432   5.387 -0.0917 -0.2113 -0.2599
   70MOL    H23 8441   6.327   0.126   5.187 -1.1220  0.3193  2.4091
   70MOL    H24 8442   6.237   0.035   5.070  1.7044  1.0692 -0.5304
   70MOL    H25 8443   6.257   8.357   5.205  0.7370 -1.0516  1.4805
   70MOL    C26 8444   6.447   8.403   5.125 -0.2076 -0.1880  0.2460
   70MOL    C27 8445   6.575   8.485   5.136 -0.3610  0.0635 -0.1647
   70MOL   Cl28 8446   6.561   0.143   5.119  0.2960 -0.0791 -0.4594
   70MOL    H29 8447   6.409   8.406   5.023 -2.2829 -0.0662  0.9991
   70MOL    H30 8448   6.478   8.304   5.156 -0.0131  0.0175  0.7197
   70MOL    H31 8449   6.612   8.466   5.236 -1.5019  2.6330  0.7879
   70MOL    C32 8450   6.682   8.436   5.038 -0.2888  0.0374 -0.6033
   70MOL    C33 8451   6.823   8.427   5.089  0.3534  0.6696  0.0959
   70MOL   Cl34 8452   6.849   8.339   5.244 -0.0120 -0.1894  0.4630
   70MOL    H35 8453   6.667   8.476   4.938 -1.5702  1.1244  0.0041
   70MOL    H36 8454   6.657   8.332   5.016  0.0335  0.2280 -1.9286
   70MOL    H37 8455   6.879   8.375   5.010  1.8527 -0.3567  1.7932
   70MOL    C38 8456   6.894   0.036   5.106 -0.9004  0.4881 -0.3885
   70MOL    C39 8457   6.894   0.131   4.995 -1.0048  0.2221 -0.2731
   70MOL   Cl40 8458   6.936   0.039   4.842 -0.2987  0.2762  0.0707
   70MOL    H41 8459   7.002   0.025   5.118 -0.8129  1.8733  0.2137
   70MOL    H42 8460   6.852   0.086   5.194  1.2032 -0.2754  1.0902
   70MOL    H43 8461   6.797   0.175   4.974 -1.0757 -0.2102 -0.8844
   70MOL    C44 8462   6.991   0.246   5.014  0.0228 -0.6622  0.1705
   70MOL    C45 8463   6.957   0.374   4.929 -0.2465  0.2419 -0.5338
   70MOL   Cl46 8464   6.968   0.340   4.752  0.1273 -0.0477  0.1549
   70MOL    H47 8465   7.095   0.217   5.000  0.9781  1.3837  2.6519
   70MOL    H48 8466   6.992   0.277   5.118  1.5406 -2.3082  0.6582
   70MOL    H49 8467   6.852   0.394   4.946 -0.2943 -0.2400 -0.2590
   70MOL    C50 8468   7.044   0.495   4.940  0.1543 -0.3547 -0.1376
   70MOL    C51 8469   7.045   0.560   5.078 -0.9363  0.1219  0.2040
   70MOL   Cl52 8470   6.889   0.552   5.169  0.2345  0.1076 -0.1911
   70MOL    H53 8471   7.007   0.567   4.868 -0.5052 -0.2065  0.3420
   70MOL    H54 8472   7.146   0.469   4.913  0.6786  0.2183  1.2326
   70MOL    H55 8473   7.115   0.503   5.140  0.7711 -0.7741 -2.4500
   70MOL    C56 8474   7.099   0.708   5.081  0.1982  0.2917  0.6844
   70MOL    C57 8475   7.243   0.729   5.029 -0.2623 -0.2724 -0.0446
   70MOL   Cl58 8476   7.363   0.622   5.106 -0.0376 -0.6285  0.3146
   70MOL    H59 8477   7.098   0.740   5.185 -0.1285  1.7547  0.2364
   70MOL    H60 8478   7.032   0.765   5.016 -1.8947 -1.1048  1.5632
   70MOL    H61 8479   7.239   0.716   4.921  1.5155  1.5440 -0.3516
   70MOL    C62 8480   7.284   0.879   5.050  0.1088  0.3636 -0.3188
   70MOL    C63 8481   7.404   0.939   4.969  0.3830 -0.3302  0.6605
   70MOL   Cl64 8482   7.370   0.944   4.790 -0.1306 -0.4764  0.0252
   70MOL    H65 8483   7.299   0.895   5.156 -1.4666  0.5335 -0.1160
   70MOL    H66 8484   7.194   0.934   5.024  1.1380  2.6903  0.9434
   70MOL    H67 8485   7.410   1.043   5.001  2.0963 -0.4480  0.7551
   70MOL    C68 8486   7.548   0.888   4.998  0.6627  0.1109 -0.1269
   70MOL    C69 8487   7.596   0.924   5.138  0.0981 -0.0934 -0.5840
   70MOL   Cl70 8488   7.616   1.101   5.131 -0.3324  0.2170  0.1345
   70MOL    H71 8489   7.621   0.931   4.931  2.7358  1.1739  2.7074
   70MOL    H72 8490   7.564   0.782   4.978  0.4389  0.5104 -2.4813
   70MOL    H73 8491   7.513   0.900   5.205  0.9863  1.1836  1.0135
   70MOL    C74 8492   7.722   0.856   5.187 -0.4535  0.6540 -0.5292
   70MOL    C75 8493   7.727   0.713   5.231  0.0321  0.2588 -0.0305
   70MOL   Cl76 8494   7.624   0.687   5.373  0.6683  0.0252  0.1293
   70MOL    H77 8495   7.742   0.918   5.274 -2.1793 -1.3438  1.3733
   70MOL    H78 8496   7.803   0.880   5.119  0.2440  0.0776  0.0927
   70MOL    H79 8497   7.684   0.648   5.155 -1.0309 -0.5262  1.2142
   70MOL    C80 8498   7.863   0.646   5.256  0.3014 -0.4232 -0.2358
   70MOL    C81 8499   7.954   0.693   5.370 -0.0468  0.9891 -0.4658
   70MOL   Cl82 8500   8.042   0.839   5.328 -0.1146  0.2958  0.0113
   70MOL    H83 8501   7.919   0.629   5.164  0.4617  1.3533 -0.4822
   70MOL    H84 8502   7.833   0.544   5.279 -0.9788 -0.1395 -0.5811
   70MOL    H85 8503   7.880   0.714   5.448  0.4759 -0.4624  0.4457
   70MOL    C86 8504   8.063   0.597   5.415 -0.7432  0.3487  0.2770
   70MOL    C87 8505   8.035   0.475   5.499 -0.6651  0.0956  0.5537
   70MOL   Cl88 8506   7.960   0.524   5.654  0.3525 -0.1533  0.5751
   70MOL    H89 8507   8.127   0.649   5.487  0.7754  0.1538 -0.9050
   70MOL    H90 8508   8.122   0.553   5.335 -0.2771  1.4877 -0.0069
   70MOL    H91 8509   7.961   0.411   5.452 -0.1434 -0.1120  0.0020
   70MOL    C92 8510   8.164   0.402   5.536 -0.9048 -0.3167 -0.5606
   70MOL    C93 8511   8.144   0.262   5.601 -0.3152 -0.1901 -1.4036
   70MOL   Cl94 8512   8.312   0.206   5.657 -0.1114  0.3746 -0.0956
   70MOL    H95 8513   8.217   0.462   5.610 -0.2525 -2.4855  0.7948
   70MOL    H96 8514   8.232   0.406   5.452  0.1517  1.0281  0.3393
   70MOL    H97 8515   8.079   0.271   5.688  0.5240 -3.5184 -0.3623
   70MOL    C98 8516   8.077   0.155   5.515  0.5861  0.0917  0.2086
   70MOL    C99 8517   8.137   0.126   5.376  0.0259 -1.1913  0.2614
   70MOL  Cl100 8518   8.095   0.259   5.269  0.1092 -0.0041  0.2030
   70MOL   H101 8519   7.969   0.175   5.509  0.6566  0.7827  1.1099
   70MOL   H102 8520   8.096   0.073   5.585  2.7014  0.7497  0.4318
   70MOL   H103 8521   8.246   0.124   5.374  0.0665 -0.1184  0.9729
   70MOL   C104 8522   8.088   8.512   5.327 -0.2302 -0.6862 -0.2833
   70MOL   C105 8523   8.158   8.473   5.190 -0.2466  0.1134 -0.1394
   70MOL  Cl106 8524   8.066   0.020   5.057 -0.0093  0.3530  0.3496
   70MOL   H107 8525   7.980   8.500   5.318 -0.4239  1.4636 -1.1721
   70MOL   H108 8526   8.121   8.437   5.399 -1.0061 -0.7658 -0.0099
   70MOL   H109 8527   8.256   8.519   5.199 -0.1564  0.0500 -0.8034
   70MOL   C110 8528   8.156   8.317   5.168  0.4688  0.0448  0.0251
   70MOL   C111 8529   8.228   8.262   5.045  0.3323 -0.4805 -0.0572
   70MOL  Cl112 8530   8.154   8.106   5.006 -0.0590 -0.1260 -0.0130
   70MOL   H113 8531   8.052   8.290   5.150 -0.0098 -0.4414  3.1966
   70MOL   H114 8532   8.179   8.267   5.262 -0.2262  0.0766  0.2120
   70MOL   H115 8533   8.202   8.328   4.962 -0.4837  0.5491  0.9944
   70MOL   C116 8534   8.382   8.262   5.055 -0.2056  0.4774  0.6522
   70MOL   C117 8535   8.439   8.201   4.923 -0.4112 -0.0945  0.7289
   70MOL  Cl118 8536   0.084   8.156   4.946  0.2408  0.1443 -0.0281
   70MOL   H119 8537   8.409   8.211   5.148 -0.2480  2.0175  1.5330
   70MOL   H120 8538   8.430   8.359   5.067  0.9826 -0.0716  0.4767
   70MOL   H121 8539   8.383   8.117   4.882  1.7471 -0.7584 -0.9427
   70MOL   H122 8540   8.444   8.279   4.847 -0.8563 -0.3462  0.4356
   71MOL     C1 8541   6.208   1.433   7.145 -0.2735 -0.0170 -0.4243
   71MOL     C2 8542   6.259   1.372   7.013  0.3119  0.4844  0.8953
   71MOL    Cl3 8543   6.438   1.401   6.997  0.1898  0.3520  0.0459
   71MOL     H4 8544   6.236   1.538   7.153 -0.4090 -0.0984  1.5847
   71MOL     H5 8545   6.100   1.432   7.160 -0.2887  2.4383 -0.1841
   71MOL     H6 8546   6.257   1.264   7.030 -0.0293  0.6674  2.0791
   71MOL     H7 8547   6.264   1.376   7.220 -0.0512  0.0742 -0.5203
   71MOL     C8 8548   6.182   1.419   6.890 -0.8267 -0.0968 -0.0665
   71MOL     C9 8549   6.176   1.324   6.763 -0.2743 -0.3213 -0.2201
   71MOL   Cl10 8550   6.342   1.284   6.715  0.1351 -0.1511  0.1903
   71MOL    H11 8551   6.237   1.511   6.871  0.3339 -0.0166  3.2652
   71MOL    H12 8552   6.088   1.457   6.931 -1.0460 -2.4850  1.7930
   71MOL    H13 8553   6.123   1.233   6.790 -1.7466  0.5575 -0.0389
   71MOL    C14 8554   6.107   1.380   6.640  1.2452  0.3948  0.4838
   71MOL    C15 8555   5.954   1.416   6.656  0.4585 -0.7009  0.1534
   71MOL   Cl16 8556   5.859   1.290   6.723  0.1088  0.3451  0.0800
   71MOL    H17 8557   6.129   1.317   6.554 -0.4773  0.1696  0.1981
   71MOL    H18 8558   6.150   1.472   6.599  1.6161  0.9633  2.1284
   71MOL    H19 8559   5.943   1.506   6.716  2.9151 -0.5714  0.4618
   71MOL    C20 8560   5.881   1.442   6.511 -0.9774 -0.0296  0.2895
   71MOL    C21 8561   5.748   1.513   6.509 -0.0247  0.2440 -0.0420
   71MOL   Cl22 8562   5.684   1.480   6.351  0.1915  0.0576  0.1614
   71MOL    H23 8563   5.854   1.344   6.472 -1.5658  0.8787 -1.6411
   71MOL    H24 8564   5.939   1.481   6.428  0.2208  0.0458  1.1531
   71MOL    H25 8565   5.679   1.466   6.580 -0.1452 -0.3660 -0.5535
   71MOL    C26 8566   5.765   1.665   6.525 -0.2357 -0.0048 -0.1163
   71MOL    C27 8567   5.630   1.750   6.520 -0.4973  0.0741  0.5969
   71MOL   Cl28 8568   5.669   1.922   6.493  0.0714 -0.0224  0.0573
   71MOL    H29 8569   5.834   1.699   6.448 -0.9205 -0.3936 -0.9096
   71MOL    H30 8570   5.811   1.683   6.622 -0.1854 -0.0895 -0.1244
   71MOL    H31 8571   5.577   1.709   6.434 -1.4959  0.4008  1.0400
   71MOL    C32 8572   5.547   1.727   6.653 -0.7301  0.1688 -0.0843
   71MOL    C33 8573   5.391   1.748   6.631 -0.2760 -0.0155  0.5878
   71MOL   Cl34 8574   5.341   1.921   6.589 -0.2782  0.3201 -0.4285
   71MOL    H35 8575   5.587   1.794   6.730  2.2816  0.5638 -1.9041
   71MOL    H36 8576   5.571   1.630   6.695  0.5293  0.2823 -0.5072
   71MOL    H37 8577   5.368   1.685   6.545  0.7540  0.8571 -0.3459
   71MOL    C38 8578   5.316   1.701   6.753 -0.0903  0.5363  0.5373
   71MOL    C39 8579   5.164   1.671   6.728  0.2385  0.6100 -0.0782
   71MOL   Cl40 8580   5.088   1.641   6.884  0.0302  0.0051  0.0761
   71MOL    H41 8581   5.333   1.768   6.838  0.5500 -0.9809  1.6216
   71MOL    H42 8582   5.351   1.605   6.792  0.1997  1.3100  2.2395
   71MOL    H43 8583   5.122   1.766   6.695 -0.4369  1.0782  2.0000
   71MOL    C44 8584   5.138   1.554   6.631 -0.4276  0.5654 -0.2707
   71MOL    C45 8585   4.992   1.520   6.610  0.9878 -0.5864 -0.4796
   71MOL   Cl46 8586   4.986   1.385   6.515  0.0719  0.0851  0.1213
   71MOL    H47 8587   5.188   1.470   6.679 -2.3502 -0.5292 -0.1266
   71MOL    H48 8588   5.185   1.566   6.533  2.4821  1.6565  1.1857
   71MOL    H49 8589   4.948   1.486   6.704  0.9780  1.5883  0.3475
   71MOL    C50 8590   4.898   1.631   6.562 -0.4076  0.0626  0.6870
   71MOL    C51 8591   4.914   1.684   6.421 -0.1096 -0.3106  0.2169
   71MOL   Cl52 8592   5.066   1.774   6.401 -0.4104 -0.0607 -0.4854
   71MOL    H53 8593   4.899   1.717   6.628 -0.1077  0.0072  0.7563
   71MOL    H54 8594   4.801   1.589   6.587 -0.2359  0.8726  2.7755
   71MOL    H55 8595   4.914   1.601   6.351 -1.3062  0.8775 -1.2516
   71MOL    C56 8596   4.799   1.778   6.375  0.6529 -0.0305 -0.3705
   71MOL    C57 8597   4.658   1.723   6.394 -0.3417  0.3576 -0.2615
   71MOL   Cl58 8598   4.635   1.560   6.319  0.2157 -0.4823  0.3476
   71MOL    H59 8599   4.818   1.814   6.274 -1.8338  0.5460 -0.6562
   71MOL    H60 8600   4.796   1.872   6.431 -0.5831  0.6794 -1.6101
   71MOL    H61 8601   4.659   1.715   6.503  0.4706 -0.5892 -0.3328
   71MOL    C62 8602   4.547   1.815   6.347  0.1596  0.3158  0.4441
   71MOL    C63 8603   4.550   1.965   6.377  0.8619  0.0995 -0.4530
   71MOL   Cl64 8604   4.575   1.972   6.556  0.1445  0.0810  0.0686
   71MOL    H65 8605   4.457   1.769   6.388  0.3510  0.4405  1.0116
   71MOL    H66 8606   4.550   1.807   6.238 -1.2313 -0.8134  0.4741
   71MOL    H67 8607   4.644   2.011   6.348  0.3427  3.5668  2.9308
   71MOL    C68 8608   4.431   2.044   6.327  0.0363  0.5254  0.2713
   71MOL    C69 8609   4.481   2.181   6.257 -0.8394 -0.0619  0.5820
   71MOL   Cl70 8610   4.546   2.301   6.374 -0.0461 -0.0531 -0.1736
   71MOL    H71 8611   4.361   2.051   6.410 -0.3608 -1.2353  0.0933
   71MOL    H72 8612   4.385   1.986   6.248 -0.9551  0.0738  1.1683
   71MOL    H73 8613   4.563   2.162   6.188 -0.9486  1.3749  0.0451
   71MOL    C74 8614   4.364   2.244   6.177  0.0417 -0.3219 -0.6999
   71MOL    C75 8615   4.234   2.270   6.257  0.6539 -0.6886  0.6687
   71MOL   Cl76 8616   4.101   2.259   6.138  0.0691 -0.1545  0.1997
   71MOL    H77 8617   4.347   2.178   6.093 -0.6099 -0.8504 -0.1541
   71MOL    H78 8618   4.396   2.333   6.123 -0.1124  0.4190  0.3881
   71MOL    H79 8619   4.214   2.192   6.329 -2.4307  0.2269  0.8784
   71MOL    C80 8620   4.219   2.404   6.324  0.1278  0.2398  0.2315
   71MOL    C81 8621   4.114   2.406   6.438  0.0502  0.1361 -0.4343
   71MOL   Cl82 8622   3.956   2.454   6.383 -0.0058  0.2297 -0.0743
   71MOL    H83 8623   4.207   2.487   6.255 -1.4039  1.3657  1.7966
   71MOL    H84 8624   4.321   2.419   6.360  0.6705 -2.5054 -0.0255
   71MOL    H85 8625   4.096   2.310   6.484  2.1161  1.9908  4.5755
   71MOL    C86 8626   4.148   2.491   6.566 -0.1310  0.0260 -0.2431
   71MOL    C87 8627   4.278   2.450   6.645  0.1561  0.0012 -0.8261
   71MOL   Cl88 8628   4.245   2.296   6.733 -0.2030 -0.2541 -0.0153
   71MOL    H89 8629   4.071   2.499   6.643  1.3565 -0.2477  1.3229
   71MOL    H90 8630   4.161   2.592   6.528  2.2189  0.1372  0.7408
   71MOL    H91 8631   4.355   2.432   6.570 -1.0249 -0.0304 -2.0679
   71MOL    C92 8632   4.327   2.557   6.741 -0.1519 -0.3451  0.6994
   71MOL    C93 8633   4.462   2.529   6.808  0.1664 -1.0675 -0.5309
   71MOL   Cl94 8634   4.494   2.651   6.930 -0.0599 -0.1025 -0.2849
   71MOL    H95 8635   4.248   2.561   6.816 -0.9932  0.6062 -0.2342
   71MOL    H96 8636   4.328   2.657   6.699 -0.3761 -0.4421  0.4660
   71MOL    H97 8637   4.457   2.431   6.857  2.6046 -1.0161 -0.1088
   71MOL    C98 8638   4.581   2.538   6.712 -0.8427  0.2393 -0.4084
   71MOL    C99 8639   4.720   2.493   6.764 -0.4272  0.2547  0.1813
   71MOL  Cl100 8640   4.833   2.519   6.624  0.2710  0.1824  0.3207
   71MOL   H101 8641   4.590   2.638   6.671 -1.6844  0.2765 -0.5112
   71MOL   H102 8642   4.557   2.473   6.628 -1.3643 -0.1045  0.0045
   71MOL   H103 8643   4.757   2.561   6.841 -0.4145 -0.7648  1.0876
   71MOL   C104 8644   4.722   2.353   6.831 -0.4634  0.0543 -0.0998
   71MOL   C105 8645   4.858   2.319   6.904 -0.2273 -0.3137  0.6133
   71MOL  Cl106 8646   4.905   2.435   7.037  0.0416 -0.0373  0.6814
   71MOL   H107 8647   4.689   2.268   6.773  0.1331 -0.2277 -0.0211
   71MOL   H108 8648   4.655   2.361   6.917  0.1440  0.2042  0.3704
   71MOL   H109 8649   4.841   2.232   6.967  0.3232  0.9078  2.4862
   71MOL   C110 8650   4.981   2.286   6.811 -0.0702  0.2848 -0.1038
   71MOL   C111 8651   4.948   2.184   6.697  0.3728  0.4182 -0.0354
   71MOL  Cl112 8652   4.923   2.023   6.777  0.0783  0.3167 -0.3210
   71MOL   H113 8653   5.073   2.260   6.865  0.1107  1.2881  0.0977
   71MOL   H114 8654   5.010   2.380   6.763 -0.6993  1.1935  1.2767
   71MOL   H115 8655   4.858   2.217   6.645 -0.8772 -0.9260  1.2476
   71MOL   C116 8656   5.064   2.171   6.596  0.2300  0.4270 -0.0378
   71MOL   C117 8657   5.033   2.090   6.467 -0.5966 -0.4757 -0.3516
   71MOL  Cl118 8658   4.909   2.168   6.371  0.2645 -0.3248  0.1999
   71MOL   H119 8659   5.154   2.133   6.643 -0.1035 -1.0121 -0.5426
   71MOL   H120 8660   5.107   2.264   6.558 -1.2722  1.0473 -0.2734
   71MOL   H121 8661   5.130   2.074   6.419 -0.0250 -0.8035  0.8849
   71MOL   H122 8662   4.980   2.001   6.502 -0.5126 -0.3886  0.0002
   72MOL     C1 8663   7.772   3.111   2.605  0.0579  0.5708 -0.1347
   72MOL     C2 8664   7.763   3.261   2.624 -0.2648 -0.0905 -0.0463
   72MOL    Cl3 8665   7.846   3.300   2.780 -0.0764  0.2252  0.1425
   72MOL     H4 8666   7.748   3.086   2.502 -0.2999 -0.6725  0.2410
   72MOL     H5 8667   7.874   3.075   2.624  0.4451  1.7176 -0.0259
   72MOL     H6 8668   7.820   3.308   2.544 -0.5475 -2.5681 -1.7519
   72MOL     H7 8669   7.708   3.056   2.675 -0.4281  0.5145 -0.6198
   72MOL     C8 8670   7.622   3.322   2.627  0.3760 -0.4457  0.0631
   72MOL     C9 8671   7.538   3.293   2.502  0.2281  0.2245  0.3000
   72MOL   Cl10 8672   7.631   3.334   2.366  0.0624  0.1134  0.1241
   72MOL    H11 8673   7.644   3.429   2.631 -1.0182 -0.1227 -0.7370
   72MOL    H12 8674   7.575   3.289   2.719  0.0733  0.1804  0.1326
   72MOL    H13 8675   7.520   3.186   2.499  0.3620  0.2592 -2.1663
   72MOL    C14 8676   7.397   3.369   2.500  0.2012  0.0797  0.8442
   72MOL    C15 8677   7.315   3.363   2.628  0.1905  0.8262  0.5798
   72MOL   Cl16 8678   7.262   3.198   2.668 -0.4148  0.3147 -0.2313
   72MOL    H17 8679   7.343   3.325   2.416  2.6521 -0.6545 -0.3923
   72MOL    H18 8680   7.420   3.474   2.479 -3.7820  0.7756 -0.4265
   72MOL    H19 8681   7.380   3.387   2.712 -0.1745 -1.0491  1.4231
   72MOL    C20 8682   7.197   3.463   2.629  0.6802 -0.2043 -0.1311
   72MOL    C21 8683   7.121   3.479   2.763  0.9354 -0.4268 -0.5259
   72MOL   Cl22 8684   6.995   3.606   2.720 -0.0532 -0.2577  0.1645
   72MOL    H23 8685   7.122   3.423   2.560 -0.0046 -0.2757  0.6403
   72MOL    H24 8686   7.225   3.558   2.584  2.3072  0.4132  2.1131
   72MOL    H25 8687   7.068   3.386   2.780 -0.9695  0.8463  0.7082
   72MOL    C26 8688   7.199   3.536   2.884 -0.2882  0.1744  0.1318
   72MOL    C27 8689   7.126   3.525   3.020 -0.1559 -0.0760  0.2301
   72MOL   Cl28 8690   7.075   3.360   3.042  0.0479 -0.0495  0.2616
   72MOL    H29 8691   7.231   3.640   2.874 -2.3314  0.6560 -1.7939
   72MOL    H30 8692   7.293   3.482   2.891 -0.9196 -1.1149 -1.1487
   72MOL    H31 8693   7.208   3.555   3.087  0.1061  2.6523 -1.2269
   72MOL    C32 8694   7.004   3.617   3.023 -0.3101 -0.2849 -0.1121
   72MOL    C33 8695   6.960   3.665   3.161  0.3738  0.2630 -0.0282
   72MOL   Cl34 8696   7.062   3.794   3.213 -0.0611 -0.3177 -0.2112
   72MOL    H35 8697   6.920   3.564   2.979  0.4797  0.3189 -2.4277
   72MOL    H36 8698   7.025   3.709   2.968  1.9842  0.0267  1.2109
   72MOL    H37 8699   6.860   3.708   3.163 -0.5666 -1.7633 -1.7771
   72MOL    C38 8700   6.954   3.558   3.273  0.5340  0.7193 -0.4824
   72MOL    C39 8701   6.836   3.451   3.266 -0.3264  0.0505  0.3235
   72MOL   Cl40 8702   6.694   3.522   3.337 -0.0385 -0.1094  0.3428
   72MOL    H41 8703   6.964   3.605   3.371  4.7562  0.8017 -0.8553
   72MOL    H42 8704   7.038   3.488   3.270 -0.7523 -0.8858 -0.0910
   72MOL    H43 8705   6.815   3.435   3.160  1.3183 -1.8493  0.2631
   72MOL    C44 8706   6.867   3.319   3.342  0.0774  0.4199 -0.3158
   72MOL    C45 8707   6.760   3.204   3.347 -0.7166 -0.6925 -0.4517
   72MOL   Cl46 8708   6.783   3.128   3.508 -0.0674 -0.0845 -0.1629
   72MOL    H47 8709   6.894   3.361   3.439 -0.4799  1.3191 -0.5466
   72MOL    H48 8710   6.959   3.279   3.299  0.0386  1.7926 -1.7327
   72MOL    H49 8711   6.658   3.240   3.335 -0.6403 -0.0930  0.6785
   72MOL    C50 8712   6.785   3.104   3.235  0.1210 -0.1925  0.6558
   72MOL    C51 8713   6.666   3.004   3.216  0.2818 -0.2425  0.0895
   72MOL   Cl52 8714   6.714   2.865   3.105 -0.0050 -0.2505 -0.0266
   72MOL    H53 8715   6.883   3.058   3.251 -0.6752 -2.4186 -0.5766
   72MOL    H54 8716   6.786   3.149   3.136 -2.0084 -3.7713 -1.1030
   72MOL    H55 8717   6.641   2.957   3.311 -1.3923  0.7187  0.1473
   72MOL    C56 8718   6.544   3.067   3.151  0.1218  0.3888 -0.2677
   72MOL    C57 8719   6.423   2.966   3.130 -0.0145  0.0779 -0.0882
   72MOL   Cl58 8720   6.293   3.061   3.055  0.0882  0.0416  0.2490
   72MOL    H59 8721   6.568   3.112   3.054 -3.2934  0.3287 -1.2011
   72MOL    H60 8722   6.516   3.143   3.224 -0.9837  0.1421 -0.4293
   72MOL    H61 8723   6.445   2.895   3.051  3.0614 -2.5895  3.0044
   72MOL    C62 8724   6.372   2.894   3.258  0.1099 -0.1005 -0.1653
   72MOL    C63 8725   6.254   2.804   3.243  0.0350 -0.5893  0.8398
   72MOL   Cl64 8726   6.109   2.906   3.243  0.4912  0.3676 -0.0429
   72MOL    H65 8727   6.354   2.964   3.340 -1.2605 -0.9891  0.3245
   72MOL    H66 8728   6.457   2.837   3.294  1.4649  1.1660 -1.3203
   72MOL    H67 8729   6.259   2.752   3.148 -2.3469  1.1023 -0.2545
   72MOL    C68 8730   6.233   2.706   3.362 -0.0261  0.5609  0.7816
   72MOL    C69 8731   6.157   2.567   3.332  0.8228  1.0017  0.1592
   72MOL   Cl70 8732   5.996   2.611   3.282 -0.4311 -0.2627 -0.6189
   72MOL    H71 8733   6.200   2.753   3.455 -2.9619 -1.6784  0.9622
   72MOL    H72 8734   6.329   2.659   3.386  0.1790 -0.7985 -2.4971
   72MOL    H73 8735   6.192   2.506   3.249 -1.4707  0.6205 -0.5679
   72MOL    C74 8736   6.153   2.472   3.457  0.1330 -0.4740 -0.4714
   72MOL    C75 8737   6.071   2.351   3.446  0.7005  0.0497  0.4087
   72MOL   Cl76 8738   6.029   2.292   3.612  0.0551 -0.5236 -0.0778
   72MOL    H77 8739   6.128   2.522   3.551  0.4889 -1.8085  0.3571
   72MOL    H78 8740   6.255   2.437   3.471  0.4229  0.2453 -0.7686
   72MOL    H79 8741   5.973   2.372   3.402  0.8438 -0.6781 -0.2810
   72MOL    C80 8742   6.131   2.234   3.366 -0.2626  0.7286 -0.0208
   72MOL    C81 8743   6.057   2.103   3.349  0.5242 -0.3887  0.2315
   72MOL   Cl82 8744   6.168   1.979   3.282 -0.0141 -0.0845  0.2182
   72MOL    H83 8745   6.223   2.211   3.421 -0.8200  0.8381  0.9765
   72MOL    H84 8746   6.160   2.275   3.269  0.0175 -1.9376 -1.0960
   72MOL    H85 8747   6.043   2.067   3.451 -0.6042  0.8932  0.5367
   72MOL    C86 8748   5.927   2.105   3.263  0.3468  0.0551  0.2423
   72MOL    C87 8749   5.794   2.119   3.335  0.5226 -0.2928  0.6050
   72MOL   Cl88 8750   5.789   1.996   3.464  0.3508 -0.6337 -0.3693
   72MOL    H89 8751   5.918   2.012   3.208  1.4048  0.2953 -0.3438
   72MOL    H90 8752   5.935   2.191   3.196  0.7693 -0.3325 -0.2026
   72MOL    H91 8753   5.783   2.213   3.389 -2.1355  0.6555 -1.4430
   72MOL    C92 8754   5.662   2.119   3.251 -0.4860  0.1212 -0.4335
   72MOL    C93 8755   5.602   2.252   3.203  0.0140  0.1845 -0.1119
   72MOL   Cl94 8756   5.712   2.328   3.084 -0.2610 -0.1552 -0.0985
   72MOL    H95 8757   5.581   2.074   3.307  0.3148 -0.3189  0.3807
   72MOL    H96 8758   5.687   2.056   3.165 -0.0874 -0.0792 -0.1745
   72MOL    H97 8759   5.519   2.214   3.142 -0.9012 -0.0845  1.2639
   72MOL    C98 8760   5.567   2.345   3.322  0.1895 -0.2016 -0.4141
   72MOL    C99 8761   5.433   2.417   3.309  0.2644  0.0570 -0.6147
   72MOL  Cl100 8762   5.435   2.527   3.167 -0.0848 -0.3089 -0.1626
   72MOL   H101 8763   5.646   2.418   3.342 -0.2285  0.5073 -1.3105
   72MOL   H102 8764   5.559   2.281   3.409 -1.7521 -1.2521 -1.3212
   72MOL   H103 8765   5.364   2.338   3.283  0.1941 -0.2834  0.5778
   72MOL   C104 8766   5.405   2.492   3.441 -0.1925  0.0771  0.1683
   72MOL   C105 8767   5.255   2.515   3.455 -0.6312 -0.0183 -0.2259
   72MOL  Cl106 8768   5.229   2.630   3.585  0.1894  0.1613  0.0949
   72MOL   H107 8769   5.459   2.586   3.428 -0.6167  0.1701 -0.9195
   72MOL   H108 8770   5.441   2.435   3.527  0.6327  1.4085  0.7278
   72MOL   H109 8771   5.221   2.564   3.364 -1.4110  0.4811  0.3310
   72MOL   C110 8772   5.177   2.383   3.481 -0.0745 -0.6354 -0.0068
   72MOL   C111 8773   5.028   2.388   3.523 -0.6163 -0.5311 -0.3388
   72MOL  Cl112 8774   4.973   2.218   3.533  0.0244 -0.3296  0.0226
   72MOL   H113 8775   5.225   2.335   3.567 -2.4552 -0.3417  1.5135
   72MOL   H114 8776   5.193   2.316   3.397  0.4748  1.4960 -1.6436
   72MOL   H115 8777   5.030   2.427   3.625  3.4080  2.1061 -1.3121
   72MOL   C116 8778   4.941   2.479   3.425 -0.6011 -0.7949  0.1981
   72MOL   C117 8779   4.794   2.489   3.467  0.7043 -0.3883 -0.2293
   72MOL  Cl118 8780   4.778   2.547   3.637  0.0941 -0.0834 -0.1232
   72MOL   H119 8781   4.952   2.436   3.326 -0.9556 -1.9269  0.6521
   72MOL   H120 8782   4.988   2.578   3.418 -1.5711 -0.1303  2.6529
   72MOL   H121 8783   4.742   2.549   3.392 -1.2165 -2.0816 -0.2603
   72MOL   H122 8784   4.749   2.390   3.466 -1.7541  0.7003 -0.8825
   73MOL     C1 8785   2.537   0.429   0.711 -0.4819 -0.1476  0.3918
   73MOL     C2 8786   2.642   0.458   0.603  0.3981  0.0513  0.4934
   73MOL    Cl3 8787   2.638   0.634   0.577 -0.1879 -0.0230  0.0177
   73MOL     H4 8788   2.445   0.473   0.672 -0.7387  0.1732  1.3480
   73MOL     H5 8789   2.524   0.323   0.736 -0.2509  0.3786  2.8797
   73MOL     H6 8790   2.744   0.444   0.639 -0.3984 -1.4343  2.2440
   73MOL     H7 8791   2.555   0.484   0.803 -1.0364 -1.8281  1.5317
   73MOL     C8 8792   2.629   0.380   0.474  0.7277  0.3970 -0.3001
   73MOL     C9 8793   2.677   0.236   0.480 -0.1675 -0.4148 -0.0925
   73MOL   Cl10 8794   2.847   0.219   0.439 -0.0533  0.0097  0.0044
   73MOL    H11 8795   2.687   0.438   0.402  0.6650 -1.5418 -1.9576
   73MOL    H12 8796   2.527   0.384   0.436  1.9782  0.4892 -3.9216
   73MOL    H13 8797   2.664   0.198   0.582 -1.3952 -2.4655 -0.9932
   73MOL    C14 8798   2.595   0.145   0.385 -0.2294  0.4163  0.2102
   73MOL    C15 8799   2.585   8.522   0.423  0.5986 -0.1124  0.5277
   73MOL   Cl16 8800   2.474   8.516   0.568 -0.2046  0.0733  0.1174
   73MOL    H17 8801   2.643   0.156   0.288  2.5570  3.8713  1.8371
   73MOL    H18 8802   2.497   0.191   0.372  0.2824  1.5086  0.1634
   73MOL    H19 8803   2.527   8.484   0.339  0.9666  0.3376  0.0659
   73MOL    C20 8804   2.717   8.453   0.445  0.4927 -0.2153  0.2170
   73MOL    C21 8805   2.798   8.432   0.320 -0.5665  0.8869  0.5893
   73MOL   Cl22 8806   2.711   8.341   0.201 -0.1497 -0.1607 -0.3184
   73MOL    H23 8807   2.692   8.356   0.488 -1.2374  0.6144  1.1045
   73MOL    H24 8808   2.777   8.506   0.520  0.1125 -0.5772  0.7843
   73MOL    H25 8809   2.815   0.001   0.268  0.9872  0.0777 -0.4295
   73MOL    C26 8810   2.933   8.359   0.339 -0.0805 -0.4191  0.2917
   73MOL    C27 8811   3.044   8.440   0.416 -0.8056 -0.3544 -0.2851
   73MOL   Cl28 8812   3.114   0.037   0.303  0.2372  0.0898  0.2375
   73MOL    H29 8813   2.981   8.335   0.244 -0.8292  1.0911 -0.4812
   73MOL    H30 8814   2.913   8.260   0.380 -2.1297 -1.0474 -2.0587
   73MOL    H31 8815   3.019   8.494   0.507  0.4144 -0.3479  0.0590
   73MOL    C32 8816   3.159   8.353   0.445 -0.0157  0.0920  0.2351
   73MOL    C33 8817   3.130   8.243   0.550  0.3213 -0.2617 -0.0618
   73MOL   Cl34 8818   3.042   8.307   0.682 -0.1004  0.2731 -0.1308
   73MOL    H35 8819   3.238   8.420   0.481  2.6760 -3.0611  0.3837
   73MOL    H36 8820   3.191   8.307   0.352  0.3859  2.1183 -0.6676
   73MOL    H37 8821   3.064   8.168   0.506 -1.9566  1.1551  0.8917
   73MOL    C38 8822   3.265   8.184   0.594 -0.2021  0.8892  0.4074
   73MOL    C39 8823   3.254   8.065   0.698  0.3900 -0.7363  0.2681
   73MOL   Cl40 8824   3.413   8.044   0.781  0.0909  0.1779  0.0106
   73MOL    H41 8825   3.313   8.270   0.639  1.8327 -0.1801  0.3478
   73MOL    H42 8826   3.321   8.156   0.505 -0.1416 -0.8744  0.9828
   73MOL    H43 8827   3.178   8.090   0.773 -0.8161  1.1198 -1.4954
   73MOL    C44 8828   3.211   7.937   0.637  0.2301  0.1974 -0.3382
   73MOL    C45 8829   3.205   7.820   0.735 -0.0130  0.0901  0.5183
   73MOL   Cl46 8830   3.187   7.670   0.636  0.5271 -0.1514  0.2684
   73MOL    H47 8831   3.278   7.925   0.552  0.5407 -0.1794 -0.0411
   73MOL    H48 8832   3.109   7.953   0.600 -0.3232  2.6449  2.0953
   73MOL    H49 8833   3.300   7.806   0.787  0.1444  0.0643  0.2260
   73MOL    C50 8834   3.096   7.822   0.844 -0.8568  0.0312 -0.3039
   73MOL    C51 8835   3.068   7.687   0.917 -0.6995  0.5541  0.0119
   73MOL   Cl52 8836   2.890   7.660   0.906  0.1458  0.1964  0.1500
   73MOL    H53 8837   3.007   7.841   0.783 -1.3542 -2.2607 -0.3625
   73MOL    H54 8838   3.102   7.905   0.914  1.3051  0.2891 -0.7896
   73MOL    H55 8839   3.120   7.600   0.878  1.7506  0.8910  2.3832
   73MOL    C56 8840   3.088   7.706   1.071 -0.2397 -0.3516 -0.6438
   73MOL    C57 8841   3.240   7.715   1.105  0.3192  0.7071  0.3788
   73MOL   Cl58 8842   3.320   7.560   1.061 -0.2847  0.2539 -0.5111
   73MOL    H59 8843   3.056   7.610   1.112  2.2028 -1.1433 -0.5047
   73MOL    H60 8844   3.031   7.791   1.110 -0.9707 -0.7086 -0.9169
   73MOL    H61 8845   3.284   7.795   1.044 -1.5530  0.6354 -1.1183
   73MOL    C62 8846   3.260   7.742   1.260  0.3458  0.8099 -0.3419
   73MOL    C63 8847   3.402   7.769   1.297 -0.0020 -0.7871 -0.4565
   73MOL   Cl64 8848   3.460   7.626   1.381 -0.0700  0.4911  0.0069
   73MOL    H65 8849   3.210   7.673   1.328 -1.5997 -0.0589 -2.5659
   73MOL    H66 8850   3.199   7.832   1.270 -2.6018 -1.3084  1.5863
   73MOL    H67 8851   3.480   7.781   1.221 -0.9201 -0.1697 -1.3058
   73MOL    C68 8852   3.435   7.892   1.389  0.5940  0.7776  0.1980
   73MOL    C69 8853   3.406   8.022   1.319  0.3284  0.3549  0.5732
   73MOL   Cl70 8854   3.516   8.035   1.179 -0.3073 -0.2313  0.0991
   73MOL    H71 8855   3.542   7.899   1.407  0.7415  1.9076 -0.9949
   73MOL    H72 8856   3.381   7.888   1.483  1.1324 -1.0544  0.4475
   73MOL    H73 8857   3.300   8.016   1.292  0.6652 -1.3530 -0.4099
   73MOL    C74 8858   3.441   8.136   1.412  0.1774  0.1391 -0.1173
   73MOL    C75 8859   3.352   8.145   1.543 -0.5757  0.2222  0.2853
   73MOL   Cl76 8860   3.180   8.122   1.491  0.3929  0.0802 -0.0378
   73MOL    H77 8861   3.428   8.226   1.352  1.6284 -1.3081 -2.6558
   73MOL    H78 8862   3.543   8.126   1.449 -0.5841 -2.0864  1.5089
   73MOL    H79 8863   3.375   8.071   1.619 -2.0930 -1.5300 -0.9390
   73MOL    C80 8864   3.368   8.282   1.617  0.2111  0.2422 -0.5250
   73MOL    C81 8865   3.369   8.414   1.529 -0.0023 -0.0963 -0.0072
   73MOL   Cl82 8866   3.412   0.032   1.629 -0.0614 -0.2904 -0.1246
   73MOL    H83 8867   3.465   8.269   1.664  0.0128  2.5412  0.5952
   73MOL    H84 8868   3.296   8.293   1.698  2.9612  0.4501  1.9539
   73MOL    H85 8869   3.458   8.401   1.467 -0.4063 -0.1339 -0.5782
   73MOL    C86 8870   3.245   8.439   1.450 -0.0897 -0.5226  0.3501
   73MOL    C87 8871   3.235   0.065   1.403  0.0066 -0.1660 -0.0075
   73MOL   Cl88 8872   3.091   0.071   1.297  0.6520  0.1274 -0.3523
   73MOL    H89 8873   3.169   8.423   1.526  0.2023  0.0994  0.7770
   73MOL    H90 8874   3.229   8.369   1.368 -0.6634 -0.2207  0.1963
   73MOL    H91 8875   3.210   0.130   1.487  1.3360 -1.4639  1.4055
   73MOL    C92 8876   3.356   0.119   1.319  0.0889 -0.8903  0.4342
   73MOL    C93 8877   3.359   0.270   1.293  0.3760  0.4017 -0.4192
   73MOL   Cl94 8878   3.478   0.301   1.166  0.5046  0.1878 -0.0547
   73MOL    H95 8879   3.365   0.061   1.227  1.3525  1.2979 -0.8726
   73MOL    H96 8880   3.446   0.097   1.375 -0.6346 -0.4320  1.8046
   73MOL    H97 8881   3.265   0.311   1.255  1.0965  1.1619 -1.4102
   73MOL    C98 8882   3.393   0.352   1.425  0.0040 -0.3907 -0.0762
   73MOL    C99 8883   3.425   0.499   1.409  0.2059  0.2975  0.0244
   73MOL  Cl100 8884   3.458   0.560   1.569 -0.0982  0.1876 -0.1514
   73MOL   H101 8885   3.481   0.311   1.474  0.2020  0.2837  0.1415
   73MOL   H102 8886   3.306   0.353   1.490 -0.9533 -0.1240 -1.3504
   73MOL   H103 8887   3.519   0.509   1.356  0.4875 -0.3825  0.3875
   73MOL   C104 8888   3.302   0.569   1.340  0.2576  0.4863  0.1213
   73MOL   C105 8889   3.303   0.719   1.328  0.0298  0.1943  0.4173
   73MOL  Cl106 8890   3.141   0.776   1.274 -0.2783 -0.1449  0.0978
   73MOL   H107 8891   3.210   0.531   1.383  0.5764 -0.9955 -0.4943
   73MOL   H108 8892   3.283   0.538   1.237 -1.1978  3.5689 -0.6135
   73MOL   H109 8893   3.325   0.769   1.423  0.1782 -0.4222  0.7110
   73MOL   C110 8894   3.407   0.777   1.231  0.1611  0.3612  0.7062
   73MOL   C111 8895   3.490   0.895   1.279  0.5920  0.5405 -0.6677
   73MOL  Cl112 8896   3.576   0.846   1.423 -0.2016 -0.1328 -0.1826
   73MOL   H113 8897   3.363   0.808   1.136 -1.9994  0.1977  1.6339
   73MOL   H114 8898   3.484   0.701   1.218  1.3767  1.8945 -1.5005
   73MOL   H115 8899   3.563   0.924   1.204  0.3711 -1.5957 -1.7610
   73MOL   C116 8900   3.398   1.012   1.318 -0.0926  1.1102  0.2095
   73MOL   C117 8901   3.467   1.141   1.369  0.3646 -0.0339  0.0542
   73MOL  Cl118 8902   3.582   1.215   1.257  0.1757 -0.0351  0.0432
   73MOL   H119 8903   3.309   0.989   1.377  0.3840 -0.3823  0.3751
   73MOL   H120 8904   3.366   1.054   1.222 -0.4607  1.1009  0.3255
   73MOL   H121 8905   3.391   1.217   1.387  1.7377  1.0826  1.2678
   73MOL   H122 8906   3.520   1.114   1.460  0.0693 -0.8493 -0.0114
   74MOL     C1 8907   7.914   6.960   4.230 -0.3520 -0.0362 -0.2886
   74MOL     C2 8908   7.974   6.842   4.150  0.0543  0.0816 -0.2098
   74MOL    Cl3 8909   7.909   6.702   4.222 -0.2012 -0.2464  0.4311
   74MOL     H4 8910   7.930   6.952   4.338  2.5407 -2.2269 -0.8090
   74MOL     H5 8911   7.956   7.057   4.206 -2.1248  0.8282  0.0196
   74MOL     H6 8912   7.948   6.854   4.045 -0.3243 -2.6897 -0.4644
   74MOL     H7 8913   7.806   6.959   4.217 -0.1154 -1.1804 -2.4022
   74MOL     C8 8914   8.124   6.833   4.158  0.0700  0.6278  0.3584
   74MOL     C9 8915   8.200   6.936   4.073  0.1975  0.7886 -0.9084
   74MOL   Cl10 8916   8.186   6.908   3.898 -0.0284  0.2394 -0.1134
   74MOL    H11 8917   8.162   6.735   4.130 -1.9540  0.3168 -1.4336
   74MOL    H12 8918   8.153   6.832   4.263 -1.4224  0.9088  0.7855
   74MOL    H13 8919   8.148   7.031   4.084 -1.2620 -0.0587 -0.2979
   74MOL    C14 8920   8.350   6.947   4.094 -0.6023 -0.0805  0.4720
   74MOL    C15 8921   8.392   6.942   4.241  0.4531 -0.2697  0.0476
   74MOL   Cl16 8922   8.317   7.079   4.331  0.1554  0.1456 -0.1349
   74MOL    H17 8923   8.377   7.046   4.058  0.4168 -1.2301 -2.0272
   74MOL    H18 8924   8.403   6.875   4.031  1.8660  1.4282  0.7742
   74MOL    H19 8925   8.359   6.848   4.286 -3.5694  1.9882  2.1010
   74MOL    C20 8926   0.023   6.953   4.251  0.1762  0.9043 -0.1859
   74MOL    C21 8927   0.081   6.889   4.387  0.1126 -0.0569 -0.1306
   74MOL   Cl22 8928   0.016   6.988   4.524  0.1639  0.0573 -0.3036
   74MOL    H23 8929   0.055   7.055   4.231  0.4443  0.6482 -1.0937
   74MOL    H24 8930   0.066   6.895   4.169 -0.5039  0.8234 -0.4924
   74MOL    H25 8931   0.041   6.789   4.408  3.5714 -1.1572  1.6542
   74MOL    C26 8932   0.237   6.900   4.395 -0.1648 -0.3594  0.4070
   74MOL    C27 8933   0.302   6.891   4.540  0.2457 -0.8121  0.0035
   74MOL   Cl28 8934   0.454   6.993   4.544  0.3345 -0.0601  0.2272
   74MOL    H29 8935   0.254   6.997   4.349  1.2820 -1.8182 -2.2549
   74MOL    H30 8936   0.276   6.831   4.320 -1.8344  0.2248 -1.0395
   74MOL    H31 8937   0.252   6.932   4.627  0.2902  1.1127 -0.8486
   74MOL    C32 8938   0.335   6.740   4.567 -0.3475 -0.1012 -0.2661
   74MOL    C33 8939   0.226   6.660   4.643 -0.3838  0.8892  0.2429
   74MOL   Cl34 8940   0.214   6.740   4.799 -0.0022 -0.0876  0.1878
   74MOL    H35 8941   0.428   6.742   4.624 -0.3729  1.2348 -0.2732
   74MOL    H36 8942   0.358   6.694   4.471  1.1251  0.4710 -0.2022
   74MOL    H37 8943   0.125   6.662   4.604 -1.2840 -1.2535  2.3686
   74MOL    C38 8944   0.260   6.514   4.651 -0.2697 -0.5400  0.0913
   74MOL    C39 8945   0.158   6.428   4.734  0.2831 -0.3359 -0.6175
   74MOL   Cl40 8946   0.225   6.266   4.728  0.4740  0.3934  0.1743
   74MOL    H41 8947   0.363   6.496   4.680 -0.7299 -3.0689  0.3479
   74MOL    H42 8948   0.265   6.486   4.545  0.5797  3.1980 -0.9319
   74MOL    H43 8949   0.165   6.454   4.840  0.5387  2.9559 -1.3767
   74MOL    C44 8950   0.006   6.423   4.687 -0.0188  0.1770 -0.1301
   74MOL    C45 8951   8.424   6.368   4.788 -0.1558 -0.3878 -0.2596
   74MOL   Cl46 8952   8.263   6.365   4.712 -0.1551  0.3287  0.1035
   74MOL    H47 8953   8.520   6.382   4.587  1.1386  0.1540 -0.2643
   74MOL    H48 8954   8.500   6.527   4.674  0.9387  0.6505  1.1598
   74MOL    H49 8955   8.448   6.263   4.803  0.0169 -0.2126  0.7203
   74MOL    C50 8956   8.414   6.438   4.929 -0.1724 -0.5533 -0.1613
   74MOL    C51 8957   8.418   6.331   5.044  0.2215  0.3422 -0.0267
   74MOL   Cl52 8958   0.055   6.256   5.043  0.3830 -0.1072  0.3063
   74MOL    H53 8959   8.323   6.498   4.932 -0.7854 -1.5577  2.6235
   74MOL    H54 8960   8.498   6.506   4.933 -1.1354  0.6835 -0.5895
   74MOL    H55 8961   8.405   6.374   5.143 -2.0101 -2.4183  0.9291
   74MOL    C56 8962   8.300   6.234   5.033  0.1598 -0.0183  0.5101
   74MOL    C57 8963   8.153   6.292   5.033 -0.3125  0.4918  0.5171
   74MOL   Cl58 8964   8.124   6.374   5.191  0.1097 -0.2905  0.3633
   74MOL    H59 8965   8.303   6.155   5.108  2.1128 -1.9192 -1.5210
   74MOL    H60 8966   8.304   6.180   4.939  0.4011  1.5366 -0.3914
   74MOL    H61 8967   8.144   6.374   4.963  0.9477  1.4140  1.4087
   74MOL    C62 8968   8.056   6.178   5.003 -0.4911 -0.8162  0.0473
   74MOL    C63 8969   7.914   6.209   4.965 -0.3066 -0.5100  0.2361
   74MOL   Cl64 8970   7.919   6.303   4.820 -0.2617 -0.1095  0.1106
   74MOL    H65 8971   8.055   6.102   5.082 -1.9584 -1.4068 -0.5337
   74MOL    H66 8972   8.089   6.124   4.914  0.8787 -2.1684  1.3343
   74MOL    H67 8973   7.858   6.119   4.940  2.6167 -1.9668 -1.3134
   74MOL    C68 8974   7.831   6.283   5.072  0.1310 -0.2757  0.6325
   74MOL    C69 8975   7.815   6.214   5.207  0.3100  0.3067 -0.5595
   74MOL   Cl70 8976   7.717   6.066   5.207 -0.1315  0.1654  0.0652
   74MOL    H71 8977   7.734   6.282   5.022  1.2355 -1.9331 -1.5725
   74MOL    H72 8978   7.861   6.386   5.089 -0.3897  0.6588 -3.6330
   74MOL    H73 8979   7.919   6.191   5.226  0.1484 -0.1135 -0.2034
   74MOL    C74 8980   7.765   6.312   5.320 -0.5285 -0.0948 -0.2711
   74MOL    C75 8981   7.744   6.254   5.456 -0.2622 -0.6557 -0.2866
   74MOL   Cl76 8982   7.641   6.363   5.543 -0.0576 -0.0843  0.1089
   74MOL    H77 8983   7.672   6.358   5.289  0.1034  1.7652  0.5005
   74MOL    H78 8984   7.835   6.396   5.326 -2.3613  1.3646  1.3255
   74MOL    H79 8985   7.684   6.163   5.462 -1.4143  0.2106  1.8520
   74MOL    C80 8986   7.878   6.226   5.535  0.0012 -0.0853 -0.9210
   74MOL    C81 8987   7.931   6.087   5.509  0.7599 -0.6371  0.4612
   74MOL   Cl82 8988   7.819   5.965   5.575 -0.0101 -0.0679 -0.0521
   74MOL    H83 8989   7.852   6.223   5.640  0.1169  1.6626 -0.8270
   74MOL    H84 8990   7.946   6.312   5.531  0.6576 -0.6850 -3.6833
   74MOL    H85 8991   7.926   6.056   5.404 -0.1972  0.3857  0.1931
   74MOL    C86 8992   8.063   6.066   5.579 -0.5228 -0.0269  0.5032
   74MOL    C87 8993   8.173   6.144   5.510  0.1650 -0.0727  0.0442
   74MOL   Cl88 8994   8.208   6.069   5.357 -0.2703 -0.0286  0.2290
   74MOL    H89 8995   8.084   5.959   5.590 -2.5291 -0.7873 -2.5477
   74MOL    H90 8996   8.063   6.111   5.678  0.7977  1.3440 -0.1024
   74MOL    H91 8997   8.145   6.249   5.500 -2.3373 -0.4985  2.0384
   74MOL    C92 8998   8.306   6.117   5.595 -0.5409  0.1545 -0.6320
   74MOL    C93 8999   8.439   6.180   5.552 -0.0847 -0.8695 -0.5654
   74MOL   Cl94 9000   0.034   6.086   5.634  0.1565  0.1640 -0.3651
   74MOL    H95 9001   8.322   6.010   5.607  0.0962  0.5011  1.8320
   74MOL    H96 9002   8.287   6.152   5.696  0.2030 -0.0552 -0.4205
   74MOL    H97 9003   8.445   6.174   5.443 -2.4551 -1.7864 -0.6800
   74MOL    C98 9004   8.452   6.324   5.609  0.3953 -0.0479 -0.8991
   74MOL    C99 9005   0.059   6.399   5.585  0.6076  0.0658  0.6140
   74MOL  Cl100 9006   0.172   6.374   5.720 -0.3986 -0.1757  0.4064
   74MOL   H101 9007   8.426   6.324   5.715  1.6652 -1.8655 -0.5644
   74MOL   H102 9008   8.372   6.377   5.557 -0.0133  0.0370 -0.1830
   74MOL   H103 9009   0.096   6.349   5.495 -1.0951  0.2467 -0.2098
   74MOL   C104 9010   0.030   6.551   5.568 -0.3164  0.4792 -0.3799
   74MOL   C105 9011   8.496   6.578   5.426 -0.1782  0.8743  0.4343
   74MOL  Cl106 9012   0.086   6.540   5.295 -0.1861 -0.1226  0.0924
   74MOL   H107 9013   0.125   6.604   5.567  0.7450 -1.3320  0.2302
   74MOL   H108 9014   8.491   6.593   5.645  0.7351  1.3427  0.0467
   74MOL   H109 9015   8.411   6.512   5.415  1.1181 -0.6274 -0.8653
   74MOL   C110 9016   8.461   6.729   5.411 -0.3708 -0.5020 -0.1205
   74MOL   C111 9017   8.308   6.758   5.427 -0.0681 -0.0411 -0.0433
   74MOL  Cl112 9018   8.241   6.655   5.553 -0.4331 -0.2653 -0.3685
   74MOL   H113 9019   8.511   6.766   5.322  0.7091  0.6340  0.9326
   74MOL   H114 9020   8.505   6.782   5.496 -0.5745 -1.8627  0.8622
   74MOL   H115 9021   8.296   6.858   5.467  4.6153  1.5052 -2.1042
   74MOL   C116 9022   8.239   6.746   5.294 -0.2108 -0.1907  0.0145
   74MOL   C117 9023   8.089   6.755   5.310 -0.5100  0.3656  0.2532
   74MOL  Cl118 9024   8.010   6.761   5.150 -0.3650  0.5061  0.1507
   74MOL   H119 9025   8.249   6.645   5.254 -0.7038  0.3337 -1.4700
   74MOL   H120 9026   8.273   6.819   5.220 -1.0005  0.2731  0.1007
   74MOL   H121 9027   8.051   6.682   5.381  0.1661 -0.6618 -0.4383
   74MOL   H122 9028   8.069   6.852   5.355  1.3800  0.9819 -0.1835
   75MOL     C1 9029   0.404   4.725   1.769 -0.3710  0.4235  0.5541
   75MOL     C2 9030   0.531   4.739   1.850 -0.1621  0.7032 -0.1911
   75MOL    Cl3 9031   0.583   4.578   1.900  0.1135  0.2804 -0.2419
   75MOL     H4 9032   0.323   4.697   1.836  0.9945  0.6277  2.3108
   75MOL     H5 9033   0.394   4.814   1.707 -3.8335 -0.4371 -0.2120
   75MOL     H6 9034   0.606   4.772   1.779 -0.0580  0.9617  0.0372
   75MOL     H7 9035   0.407   4.642   1.698 -2.4809  2.7416 -2.4013
   75MOL     C8 9036   0.513   4.832   1.975  0.3752  0.8887 -0.0905
   75MOL     C9 9037   0.640   4.852   2.059 -0.8513 -0.2706 -0.3537
   75MOL   Cl10 9038   0.602   4.955   2.201 -0.0413 -0.1380  0.1963
   75MOL    H11 9039   0.427   4.803   2.036  0.7470  1.0233  0.5111
   75MOL    H12 9040   0.489   4.927   1.928  0.0105  0.1833 -1.3556
   75MOL    H13 9041   0.679   4.755   2.087 -1.7261 -0.6703 -0.5109
   75MOL    C14 9042   0.748   4.927   1.973  0.4886  0.2767 -0.7007
   75MOL    C15 9043   0.891   4.914   2.043  0.0964  0.3394 -0.5504
   75MOL   Cl16 9044   0.984   5.045   1.978  0.3478  0.0501  0.2801
   75MOL    H17 9045   0.716   5.028   1.947 -1.3619 -0.2921 -0.7242
   75MOL    H18 9046   0.752   4.884   1.873 -0.0817  2.0789 -1.5309
   75MOL    H19 9047   0.886   4.937   2.150 -0.1623  1.1241 -0.7249
   75MOL    C20 9048   0.978   4.789   2.012  0.4958  0.1143 -0.2575
   75MOL    C21 9049   1.104   4.762   2.100 -0.9157 -0.6142  0.0250
   75MOL   Cl22 9050   1.228   4.882   2.074  0.2351  0.0345 -0.0422
   75MOL    H23 9051   0.998   4.798   1.906  0.0527  1.9455 -0.2056
   75MOL    H24 9052   0.908   4.707   2.026  0.5397 -0.0956 -1.2413
   75MOL    H25 9053   1.087   4.760   2.208  3.5747  1.2998  0.9118
   75MOL    C26 9054   1.165   4.619   2.075 -0.2687  0.0885  0.0934
   75MOL    C27 9055   1.210   4.580   1.930  0.0947  0.2039  0.0565
   75MOL   Cl28 9056   1.060   4.527   1.832  0.3639  0.4717  0.0858
   75MOL    H29 9057   1.103   4.546   2.127 -1.4919 -0.3130 -1.8849
   75MOL    H30 9058   1.251   4.608   2.141 -0.2760 -0.6858 -0.0278
   75MOL    H31 9059   1.267   4.659   1.881 -1.6852  1.6535  0.2425
   75MOL    C32 9060   1.312   4.466   1.938 -0.0657  0.4289  0.2831
   75MOL    C33 9061   1.366   4.404   1.803  0.2025 -0.2766  0.2219
   75MOL   Cl34 9062   1.468   4.264   1.839 -0.0874  0.3609  0.0185
   75MOL    H35 9063   1.258   4.383   1.984 -0.8270  1.1813  0.7474
   75MOL    H36 9064   1.388   4.483   2.014 -1.8133  1.5180  1.8377
   75MOL    H37 9065   1.282   4.355   1.753  1.9225  0.0624 -3.0986
   75MOL    C38 9066   1.438   4.502   1.721 -0.2134  0.1180 -0.2085
   75MOL    C39 9067   1.571   4.563   1.776 -0.3148 -0.4941 -0.5762
   75MOL   Cl40 9068   1.550   4.694   1.905  0.1547 -0.1426 -0.2526
   75MOL    H41 9069   1.379   4.593   1.710 -1.1177 -0.3130  0.9903
   75MOL    H42 9070   1.456   4.455   1.624  2.3691 -1.5443  1.0148
   75MOL    H43 9071   1.630   4.486   1.825 -1.9827 -2.0529 -0.9656
   75MOL    C44 9072   1.660   4.612   1.659  0.2423  0.1388  0.2524
   75MOL    C45 9073   1.804   4.661   1.690  0.1766  0.5022  0.1087
   75MOL   Cl46 9074   1.887   4.719   1.536 -0.2911 -0.0375  0.2923
   75MOL    H47 9075   1.613   4.693   1.604 -2.3538 -2.0137 -0.7588
   75MOL    H48 9076   1.666   4.525   1.594 -0.0184 -0.7671  1.4218
   75MOL    H49 9077   1.789   4.748   1.753  0.1011  2.1205 -2.0711
   75MOL    C50 9078   1.897   4.557   1.763 -0.5015  0.1103  1.0289
   75MOL    C51 9079   1.935   4.434   1.694 -0.3880  0.5932 -0.5538
   75MOL   Cl52 9080   1.818   4.301   1.717  0.0136 -0.3415 -0.1292
   75MOL    H53 9081   1.858   4.527   1.861 -0.2476  0.9950  1.4040
   75MOL    H54 9082   1.987   4.612   1.789 -1.1571  2.1925 -0.9342
   75MOL    H55 9083   1.931   4.451   1.586  0.1086 -0.0359 -0.6719
   75MOL    C56 9084   2.076   4.377   1.726  0.2585  0.7907 -1.0827
   75MOL    C57 9085   2.120   4.318   1.867 -0.4171 -0.3293 -0.5217
   75MOL   Cl58 9086   2.098   4.437   1.999 -0.2338 -0.0451 -0.0139
   75MOL    H59 9087   2.157   4.444   1.697  0.5909 -0.1152 -2.2703
   75MOL    H60 9088   2.094   4.295   1.656  1.7077  1.6342 -1.7265
   75MOL    H61 9089   2.046   4.238   1.876 -0.4597 -0.5133 -2.3811
   75MOL    C62 9090   2.264   4.270   1.875  0.5348 -0.3084  0.1049
   75MOL    C63 9091   2.320   4.213   2.002  1.2217  0.5787  0.4605
   75MOL   Cl64 9092   2.488   4.180   1.956 -0.1014 -0.2017 -0.6137
   75MOL    H65 9093   2.322   4.358   1.848  1.1723 -1.1063 -1.1692
   75MOL    H66 9094   2.290   4.204   1.792  3.0782 -2.0469  2.2192
   75MOL    H67 9095   2.323   4.286   2.082 -0.5310 -0.9620  1.9772
   75MOL    C68 9096   2.249   4.085   2.041 -0.6110  0.0144  0.1009
   75MOL    C69 9097   2.316   4.010   2.161 -0.3213  0.1549  0.1620
   75MOL   Cl70 9098   2.237   3.851   2.179 -0.3238 -0.0413  0.7195
   75MOL    H71 9099   2.241   4.012   1.961  1.6498  0.7604 -0.8541
   75MOL    H72 9100   2.142   4.106   2.051 -0.9193 -2.8406  3.3121
   75MOL    H73 9101   2.419   3.995   2.131 -0.4235 -1.0808  0.4093
   75MOL    C74 9102   2.294   4.088   2.294  0.3340  0.3318 -0.9847
   75MOL    C75 9103   2.381   4.042   2.418  0.0428 -0.2742 -0.2741
   75MOL   Cl76 9104   2.302   4.093   2.572 -0.2730 -0.4388 -0.6912
   75MOL    H77 9105   2.191   4.088   2.327  1.3807 -0.2920  2.4039
   75MOL    H78 9106   2.305   4.196   2.285 -0.0180  0.3988 -0.5897
   75MOL    H79 9107   2.373   3.934   2.414  1.9872 -0.6487  3.8365
   75MOL    C80 9108   2.518   4.105   2.401  0.2908  0.6163 -0.1134
   75MOL    C81 9109   2.630   4.056   2.496  0.3019 -0.2009 -0.3170
   75MOL   Cl82 9110   2.748   4.192   2.527  0.4441  0.3152 -0.2103
   75MOL    H83 9111   2.507   4.213   2.411 -1.0350  0.6421 -1.6744
   75MOL    H84 9112   2.549   4.095   2.297 -0.1455  0.4035 -0.2232
   75MOL    H85 9113   2.585   4.029   2.592  0.1858  0.7070 -0.1168
   75MOL    C86 9114   2.708   3.932   2.438  0.8784  0.1374  0.5003
   75MOL    C87 9115   2.630   3.819   2.362 -0.3746 -0.3086  0.5953
   75MOL   Cl88 9116   2.555   3.718   2.489  0.0985 -0.4149  0.3832
   75MOL    H89 9117   2.760   3.882   2.520  1.1699 -2.2735 -1.0998
   75MOL    H90 9118   2.785   3.966   2.368 -1.4113  1.3618 -1.4999
   75MOL    H91 9119   2.551   3.860   2.299  2.3973 -0.0014 -2.8149
   75MOL    C92 9120   2.726   3.719   2.280  1.1026  0.0375 -0.8236
   75MOL    C93 9121   2.656   3.626   2.174  0.1978 -0.5655  0.3299
   75MOL   Cl94 9122   2.590   3.731   2.048  0.1814 -0.0854 -0.0471
   75MOL    H95 9123   2.779   3.649   2.345 -1.5465  0.0907  1.5171
   75MOL    H96 9124   2.802   3.777   2.228  0.8792  0.0040 -1.1839
   75MOL    H97 9125   2.736   3.568   2.129  0.2359 -0.2874  0.0402
   75MOL    C98 9126   2.546   3.526   2.226  0.0909 -0.0746 -0.1156
   75MOL    C99 9127   2.502   3.434   2.114 -0.1235  0.7023  0.8865
   75MOL  Cl100 9128   2.336   3.371   2.154  0.5321  0.0618  0.3729
   75MOL   H101 9129   2.455   3.578   2.258 -0.7111 -1.4263 -0.1303
   75MOL   H102 9130   2.579   3.473   2.315  2.8096 -0.9262 -1.5803
   75MOL   H103 9131   2.499   3.483   2.017  0.7385 -0.7076  0.1245
   75MOL   C104 9132   2.585   3.301   2.091  0.0787  0.2522 -0.3177
   75MOL   C105 9133   2.540   3.239   1.952  0.1165 -1.3442 -0.7223
   75MOL  Cl106 9134   2.543   3.061   1.962 -0.0898  0.1682 -0.2598
   75MOL   H107 9135   2.579   3.240   2.181  0.4985  0.6911  0.0099
   75MOL   H108 9136   2.688   3.335   2.095 -0.1645  0.9010  0.6309
   75MOL   H109 9137   2.441   3.277   1.927 -0.3755 -1.3432  1.2124
   75MOL   C110 9138   2.649   3.283   1.844  0.2160  0.6575  0.5099
   75MOL   C111 9139   2.610   3.246   1.699 -0.3320  0.1075 -0.2643
   75MOL  Cl112 9140   2.745   3.311   1.598  0.2476  0.0038 -0.2770
   75MOL   H113 9141   2.747   3.242   1.867  0.8600  1.9165  0.0592
   75MOL   H114 9142   2.655   3.391   1.838 -0.9790  0.6282 -1.8772
   75MOL   H115 9143   2.619   3.137   1.695 -0.7089  0.1724 -4.1845
   75MOL   C116 9144   2.470   3.277   1.634 -0.0669 -0.0773 -0.3921
   75MOL   C117 9145   2.443   3.209   1.500 -0.7058 -0.0141  0.1558
   75MOL  Cl118 9146   2.295   3.271   1.422 -0.1347  0.2698 -0.1572
   75MOL   H119 9147   2.451   3.384   1.638 -2.5031 -0.3610 -3.1075
   75MOL   H120 9148   2.393   3.247   1.706 -2.2026  1.4918 -1.9692
   75MOL   H121 9149   2.523   3.221   1.428 -0.7100  2.2047  0.4869
   75MOL   H122 9150   2.433   3.103   1.522 -0.6453  0.1646  1.0946
   76MOL     C1 9151   3.447   4.650   8.325  0.1593 -0.0724 -0.7811
   76MOL     C2 9152   3.428   4.775   8.412  0.3432  0.2724 -0.3523
   76MOL    Cl3 9153   3.277   4.744   8.508  0.3146 -0.4049 -0.4151
   76MOL     H4 9154   3.537   4.656   8.263  0.2580 -0.9591 -0.7346
   76MOL     H5 9155   3.460   4.564   8.391 -0.4381  1.7383  1.7620
   76MOL     H6 9156   3.509   4.782   8.485  0.4705 -0.0912 -0.4604
   76MOL     H7 9157   3.359   4.632   8.262 -0.0499 -0.8584 -0.2793
   76MOL     C8 9158   3.408   4.897   8.328  0.3799 -0.5365 -0.0242
   76MOL     C9 9159   3.412   5.032   8.394 -0.3786  0.3298  0.1236
   76MOL   Cl10 9160   3.391   5.152   8.251  0.5385  0.1057  0.0625
   76MOL    H11 9161   3.308   4.893   8.284 -0.2511  0.6940  1.2798
   76MOL    H12 9162   3.469   4.903   8.238 -0.4751 -0.1500 -0.5828
   76MOL    H13 9163   3.336   5.045   8.471  1.4798  1.5414  1.8230
   76MOL    C14 9164   3.546   5.074   8.464  0.5172  0.4348  0.6495
   76MOL    C15 9165   3.546   5.220   8.510  0.2481 -0.3762  0.0062
   76MOL   Cl16 9166   3.709   5.273   0.027  0.0012  0.3947  0.3076
   76MOL    H17 9167   3.624   5.060   8.389 -0.6805  1.5289 -0.8306
   76MOL    H18 9168   3.581   4.999   0.010  1.8941  0.3360 -0.0959
   76MOL    H19 9169   3.513   5.282   8.427 -0.0694 -0.2892  0.1987
   76MOL    C20 9170   3.450   5.231   0.107 -0.0932  0.1418  0.6648
   76MOL    C21 9171   3.328   5.309   0.082 -0.0936 -0.4234 -0.4353
   76MOL   Cl22 9172   3.375   5.471   0.030  0.0865 -0.0112  0.2020
   76MOL    H23 9173   3.502   5.288   0.184  0.0176 -1.6868  1.9865
   76MOL    H24 9174   3.439   5.133   0.154 -0.1143  0.1371  0.6492
   76MOL    H25 9175   3.265   5.267   0.003 -1.8923  1.7766 -0.2342
   76MOL    C26 9176   3.234   5.326   0.208 -0.3429  0.1829  0.1342
   76MOL    C27 9177   3.096   5.390   0.177 -0.3330 -0.1200  0.2667
   76MOL   Cl28 9178   3.035   5.444   0.329 -0.5216 -0.0357 -0.0576
   76MOL    H29 9179   3.283   5.375   0.291  1.4527 -2.3283  0.6313
   76MOL    H30 9180   3.220   5.226   0.249 -1.3130  0.6181  0.8902
   76MOL    H31 9181   3.108   5.481   0.120  0.5959 -0.2518  0.2426
   76MOL    C32 9182   2.981   5.300   0.108  0.5481  0.3135  0.8231
   76MOL    C33 9183   2.947   5.165   0.182 -0.4099  0.8543 -0.2193
   76MOL   Cl34 9184   3.034   5.030   0.100 -0.2737  0.3521  0.3236
   76MOL    H35 9185   3.003   5.279   0.003  0.8795 -0.3945  1.0306
   76MOL    H36 9186   2.891   5.361   0.107  1.2433  1.3440  0.9388
   76MOL    H37 9187   2.990   5.163   0.282  1.3449 -1.7835 -0.9659
   76MOL    C38 9188   2.794   5.138   0.169 -0.0182 -0.0389  0.9639
   76MOL    C39 9189   2.733   5.021   0.252 -0.4037  0.2539  0.4462
   76MOL   Cl40 9190   2.587   4.966   0.173 -0.2394  0.1437 -0.0614
   76MOL    H41 9191   2.768   5.120   0.065 -1.0694 -0.2176  1.2550
   76MOL    H42 9192   2.742   5.231   0.189 -1.7839 -1.2947  2.2893
   76MOL    H43 9193   2.807   4.940   0.252 -0.0216  0.5828  2.2904
   76MOL    C44 9194   2.692   5.047   0.398  0.8509  0.1188  0.6493
   76MOL    C45 9195   2.792   5.107   0.499 -0.6513 -0.1118 -0.4797
   76MOL   Cl46 9196   2.946   5.006   0.495  0.3287 -0.0125  0.5101
   76MOL    H47 9197   2.667   4.951   0.443  0.9102 -0.8061 -1.2579
   76MOL    H48 9198   2.596   5.099   0.390  1.0146  0.3709  0.3510
   76MOL    H49 9199   2.824   5.200   0.452 -0.0437 -0.1798 -0.2043
   76MOL    C50 9200   2.749   5.133   0.644 -0.2867  0.4644 -0.2491
   76MOL    C51 9201   2.853   5.187   0.740  0.0571  0.4481 -0.8116
   76MOL   Cl52 9202   2.779   5.190   0.904 -0.1022 -0.2962 -0.3817
   76MOL    H53 9203   2.727   5.035   0.686 -0.5567 -0.5596 -2.6756
   76MOL    H54 9204   2.659   5.193   0.657  0.1855  1.4514 -1.4220
   76MOL    H55 9205   2.936   5.116   0.740  1.0478  1.5320  2.1929
   76MOL    C56 9206   2.908   5.323   0.705 -0.0778 -0.2620 -0.4801
   76MOL    C57 9207   3.051   5.343   0.747 -0.0972  0.3153  0.2516
   76MOL   Cl58 9208   3.091   5.523   0.708 -0.0691  0.0446  0.2368
   76MOL    H59 9209   2.846   5.405   0.740  0.9098  0.0940  0.4390
   76MOL    H60 9210   2.902   5.346   0.598  0.7582  0.8065 -0.3075
   76MOL    H61 9211   3.050   5.349   0.856 -0.0862 -0.5373  0.3001
   76MOL    C62 9212   3.158   5.260   0.674  0.2195 -0.0712  0.6346
   76MOL    C63 9213   3.304   5.289   0.724 -0.0877  0.4295  0.3505
   76MOL   Cl64 9214   3.412   5.215   0.603  0.5906 -0.0808 -0.2923
   76MOL    H65 9215   3.152   5.283   0.567 -0.5320  0.2651  0.7491
   76MOL    H66 9216   3.129   5.156   0.688  1.7297 -0.3101  2.1193
   76MOL    H67 9217   3.322   5.395   0.704  0.1719 -0.1560 -2.6724
   76MOL    C68 9218   3.359   5.249   0.865  0.0992 -0.4569 -0.1062
   76MOL    C69 9219   3.471   5.349   0.918  0.1975  0.2187 -0.1956
   76MOL   Cl70 9220   3.613   5.361   0.812  0.2994 -0.0105 -0.0006
   76MOL    H71 9221   3.393   5.145   0.866  2.6526  0.3637  1.3770
   76MOL    H72 9222   3.276   5.254   0.936  1.6874  3.1394  1.6068
   76MOL    H73 9223   3.415   5.443   0.917  0.9087  0.6671  1.2221
   76MOL    C74 9224   3.513   5.308   1.059  0.5708  0.3703  0.1378
   76MOL    C75 9225   3.617   5.406   1.118  0.6653 -0.5925 -0.0925
   76MOL   Cl76 9226   3.680   5.335   1.262 -0.1604  0.2629  0.1187
   76MOL    H77 9227   3.557   5.209   1.062 -1.2852 -0.5081 -0.8367
   76MOL    H78 9228   3.431   5.307   1.131  0.4320 -0.7705 -0.0376
   76MOL    H79 9229   3.706   5.404   1.055 -0.9353 -0.3251 -2.3989
   76MOL    C80 9230   3.561   5.548   1.133  0.1093  0.5596  1.5536
   76MOL    C81 9231   3.674   5.642   1.184  0.3352  0.1268 -0.2460
   76MOL   Cl82 9232   3.634   5.667   1.355  0.1655 -0.1357 -0.2193
   76MOL    H83 9233   3.469   5.563   1.190 -0.8124  0.0658  0.2075
   76MOL    H84 9234   3.544   5.586   1.032 -0.9768 -0.7643  1.2320
   76MOL    H85 9235   3.771   5.592   1.190  0.0998 -0.3411 -0.3268
   76MOL    C86 9236   3.667   5.780   1.108 -0.7278 -0.8498  0.0943
   76MOL    C87 9237   3.764   5.889   1.170  0.1245 -0.9762 -0.0300
   76MOL   Cl88 9238   3.750   6.037   1.078  0.1311 -0.4131  0.0754
   76MOL    H89 9239   3.566   5.819   1.093 -0.0126  0.0955 -2.5877
   76MOL    H90 9240   3.688   5.764   1.002 -0.3137  0.8440 -0.1046
   76MOL    H91 9241   3.721   5.904   1.269 -1.0995  0.1443 -0.7116
   76MOL    C92 9242   3.911   5.842   1.182  0.5699 -0.4952 -0.1537
   76MOL    C93 9243   4.000   5.957   1.248 -1.0387 -0.5747  0.1979
   76MOL   Cl94 9244   4.081   6.029   1.111 -0.0370 -0.0021  0.5933
   76MOL    H95 9245   3.959   5.813   1.088  1.3473 -1.9099  0.6651
   76MOL    H96 9246   3.913   5.753   1.245  1.7510  1.0189  2.0047
   76MOL    H97 9247   3.940   6.034   1.296 -1.5612 -0.2829 -0.9070
   76MOL    C98 9248   4.119   5.913   1.343  0.0652  0.6935 -0.6634
   76MOL    C99 9249   4.084   5.828   1.465 -0.1615  0.2761  0.2269
   76MOL  Cl100 9250   4.100   5.664   1.418 -0.1718  0.2704 -0.2038
   76MOL   H101 9251   4.156   6.010   1.376 -0.0735  0.6296 -0.3122
   76MOL   H102 9252   4.201   5.867   1.288  0.3112  0.4521 -0.1025
   76MOL   H103 9253   4.153   5.847   1.547 -0.0609 -1.4642  0.5515
   76MOL   C104 9254   3.944   5.848   1.529 -0.0148 -0.5904  0.5442
   76MOL   C105 9255   3.912   5.994   1.566 -0.3872  0.1754  0.2161
   76MOL  Cl106 9256   4.055   6.061   1.653  0.2060 -0.1951  0.1867
   76MOL   H107 9257   3.947   5.782   1.615 -0.8206 -2.0718 -0.5357
   76MOL   H108 9258   3.867   5.802   1.466 -1.5769  1.5722  0.8261
   76MOL   H109 9259   3.884   6.064   1.487 -1.6848  1.2529  1.6062
   76MOL   C110 9260   3.799   6.001   1.668 -0.1823 -0.6071  0.3758
   76MOL   C111 9261   3.659   5.974   1.606 -0.2695 -0.4074  0.2301
   76MOL  Cl112 9262   3.608   6.112   1.509 -0.1161 -0.5407 -0.2031
   76MOL   H113 9263   3.791   6.102   1.708  0.0362 -0.7228  0.7132
   76MOL   H114 9264   3.816   5.932   1.751  0.2925 -0.8129  0.1053
   76MOL   H115 9265   3.666   5.890   1.537  1.2521  0.4296 -0.6763
   76MOL   C116 9266   3.547   5.945   1.708  0.0285 -0.0053 -0.0869
   76MOL   C117 9267   3.413   5.897   1.652  0.5858  0.9867 -0.8701
   76MOL  Cl118 9268   3.324   5.810   1.781 -0.8045  0.0540 -0.8167
   76MOL   H119 9269   3.529   6.027   1.778 -1.1518 -0.2800 -0.0575
   76MOL   H120 9270   3.583   5.863   1.770  0.4362  1.0090  1.0357
   76MOL   H121 9271   3.345   5.972   1.612  0.4071  0.0644 -2.3624
   76MOL   H122 9272   3.435   5.823   1.574  0.3326 -0.4229  0.3759
   77MOL     C1 9273   2.587   0.164   6.350  1.0259  0.1178 -0.8755
   77MOL     C2 9274   2.511   0.156   6.225 -0.0899  0.1690 -0.0874
   77MOL    Cl3 9275   2.348   0.229   6.260 -0.3923  0.4036  0.3320
   77MOL     H4 9276   2.590   0.271   6.367  0.5159  0.1375 -0.8847
   77MOL     H5 9277   2.539   0.129   6.442 -0.3438  0.2681 -1.5234
   77MOL     H6 9278   2.552   0.214   6.142  2.3329  1.0493  1.6868
   77MOL     H7 9279   2.690   0.129   6.351  0.0853 -2.7696 -0.7436
   77MOL     C8 9280   2.486   0.015   6.167  0.4276  0.3221  0.0043
   77MOL     C9 9281   2.622   8.481   6.114 -0.0218 -0.6019  0.1775
   77MOL   Cl10 9282   2.677   0.037   5.965  0.1613  0.4786 -0.0496
   77MOL    H11 9283   2.413   0.032   6.088 -1.5363 -0.0390  1.7101
   77MOL    H12 9284   2.448   8.471   6.242  1.6188 -1.6399 -1.1488
   77MOL    H13 9285   2.703   8.505   6.183 -0.8003 -0.1770  0.9489
   77MOL    C14 9286   2.621   8.329   6.082 -0.0830  0.2581 -0.5378
   77MOL    C15 9287   2.516   8.282   5.971 -0.2616 -0.2054  0.3074
   77MOL   Cl16 9288   2.352   8.284   6.045 -0.1849 -0.2483  0.4940
   77MOL    H17 9289   2.601   8.272   6.173  2.5427  0.8020  0.4256
   77MOL    H18 9290   2.718   8.289   6.051 -0.3673 -1.8697  1.1911
   77MOL    H19 9291   2.517   8.349   5.885  0.8014 -1.2854 -0.5276
   77MOL    C20 9292   2.559   8.143   5.922 -0.1389  0.5135 -0.0445
   77MOL    C21 9293   2.474   8.087   5.797 -0.4177  0.2904  0.6402
   77MOL   Cl22 9294   2.466   8.207   5.654 -0.1228  0.0564 -0.4152
   77MOL    H23 9295   2.567   8.070   6.002 -3.0274  1.3712  1.0978
   77MOL    H24 9296   2.659   8.150   5.878  0.7339 -0.9062  1.6341
   77MOL    H25 9297   2.533   8.002   5.764  0.6934  0.6322  1.7454
   77MOL    C26 9298   2.327   8.056   5.833  0.8456  0.1420 -0.0448
   77MOL    C27 9299   2.268   7.955   5.734  0.0477 -0.8891  0.0040
   77MOL   Cl28 9300   2.094   7.948   5.776 -0.1063  0.2285 -0.2577
   77MOL    H29 9301   2.256   8.138   5.843  0.2737 -0.4506  0.8905
   77MOL    H30 9302   2.316   8.012   5.932  0.5914 -1.8578 -0.9287
   77MOL    H31 9303   2.277   7.990   5.632  1.5971  1.3611  0.8900
   77MOL    C32 9304   2.320   7.817   5.745 -0.1307 -0.6429 -0.4511
   77MOL    C33 9305   2.314   7.733   5.616  0.1012 -0.0498 -0.6773
   77MOL   Cl34 9306   2.146   7.721   5.558  0.2429 -0.0946 -0.1081
   77MOL    H35 9307   2.267   7.761   5.822 -0.0660  0.2167  0.2245
   77MOL    H36 9308   2.424   7.827   5.776 -0.0092 -1.4260 -0.5830
   77MOL    H37 9309   2.374   7.777   5.536 -2.3751  1.4786 -1.7429
   77MOL    C38 9310   2.357   7.588   5.643  0.1731  0.2940 -0.2497
   77MOL    C39 9311   2.508   7.560   5.642  0.1986 -0.2267 -1.0809
   77MOL   Cl40 9312   2.605   7.666   5.744 -0.0162 -0.2088 -0.3787
   77MOL    H41 9313   2.312   7.513   5.579  1.1730 -1.3884  0.9904
   77MOL    H42 9314   2.319   7.551   5.738  2.4009 -0.6440  0.3122
   77MOL    H43 9315   2.521   7.465   5.694  0.7636 -1.0734 -2.7410
   77MOL    C44 9316   2.568   7.556   5.501 -0.0180 -0.0870  0.3114
   77MOL    C45 9317   2.537   7.431   5.420  0.3800 -0.5454  0.7680
   77MOL   Cl46 9318   2.585   7.284   5.505 -0.0689 -0.3333 -0.0937
   77MOL    H47 9319   2.677   7.559   5.499 -0.0050 -0.7314 -0.1964
   77MOL    H48 9320   2.550   7.647   5.444  1.2294 -0.4441 -0.6818
   77MOL    H49 9321   2.428   7.433   5.409  0.1592 -1.4779  2.6432
   77MOL    C50 9322   2.591   7.430   5.270  0.1124 -0.2900  0.2440
   77MOL    C51 9323   2.551   7.312   5.171 -0.0316  0.5870  0.0295
   77MOL   Cl52 9324   2.616   7.353   5.012  0.2801 -0.2273  0.0665
   77MOL    H53 9325   2.700   7.438   5.273  0.0931  1.2717 -1.9042
   77MOL    H54 9326   2.559   7.522   5.220  1.5617  0.3947  0.5226
   77MOL    H55 9327   2.585   7.218   5.213  1.3712  1.1534  0.1878
   77MOL    C56 9328   2.394   7.297   5.158 -0.1534  0.4197  0.0740
   77MOL    C57 9329   2.333   7.206   5.271  0.4983  0.3534 -0.1648
   77MOL   Cl58 9330   2.382   7.044   5.236 -0.3507 -0.6773  0.4798
   77MOL    H59 9331   2.376   7.255   5.059 -0.1810 -2.1388  1.1448
   77MOL    H60 9332   2.350   7.397   5.157  0.0724  0.5304  0.8403
   77MOL    H61 9333   2.359   7.229   5.375 -2.7433  1.4369  0.4488
   77MOL    C62 9334   2.181   7.206   5.252  0.4996 -0.0847 -1.1646
   77MOL    C63 9335   2.097   7.329   5.286  0.2365 -0.1071  0.1092
   77MOL   Cl64 9336   2.143   7.394   5.441  0.0705  0.1634  0.3060
   77MOL    H65 9337   2.134   7.120   5.301  1.8426  0.2506  0.7513
   77MOL    H66 9338   2.169   7.180   5.146 -2.4838 -1.5508 -0.5337
   77MOL    H67 9339   2.126   7.402   5.210 -3.3959  1.8892  0.5447
   77MOL    C68 9340   1.945   7.308   5.270  0.2671 -0.1976  0.1744
   77MOL    C69 9341   1.890   7.269   5.127 -0.2619  0.4936  0.1740
   77MOL   Cl70 9342   1.904   7.424   5.037  0.3439  0.6068 -0.1775
   77MOL    H71 9343   1.890   7.399   5.293 -0.4820 -0.6030  0.0273
   77MOL    H72 9344   1.905   7.245   5.349 -2.0893  0.7131 -0.2511
   77MOL    H73 9345   1.945   7.190   5.077  2.0654  3.0619 -1.4684
   77MOL    C74 9346   1.747   7.230   5.137 -0.0849  0.2364  0.0267
   77MOL    C75 9347   1.722   7.077   5.166 -0.7171 -0.0509 -0.6937
   77MOL   Cl76 9348   1.721   6.998   5.006 -0.1842  0.2722  0.1530
   77MOL    H77 9349   1.703   7.260   5.042  1.1935  1.5927 -0.1629
   77MOL    H78 9350   1.696   7.300   5.203 -1.0189 -1.0061  0.6336
   77MOL    H79 9351   1.808   7.040   5.221  1.4650  0.6057 -3.5446
   77MOL    C80 9352   1.581   7.056   5.227 -0.2271  0.8224 -0.4159
   77MOL    C81 9353   1.558   7.108   5.377 -0.2748  0.0992  0.1056
   77MOL   Cl82 9354   1.663   7.002   5.474  0.2474 -0.2906  0.1491
   77MOL    H83 9355   1.546   6.953   5.220  1.1766  0.4204 -2.0164
   77MOL    H84 9356   1.518   7.115   5.161 -3.5052  0.0364  1.9062
   77MOL    H85 9357   1.596   7.210   5.389  0.6145 -0.1817 -0.3093
   77MOL    C86 9358   1.411   7.093   5.400 -0.1233 -0.3314 -0.5293
   77MOL    C87 9359   1.349   7.127   5.535 -0.1496  0.2126  0.1989
   77MOL   Cl88 9360   1.191   7.044   5.541  0.2321 -0.4147  0.0766
   77MOL    H89 9361   1.383   6.990   5.380 -1.9081  0.0671 -0.2615
   77MOL    H90 9362   1.358   7.155   5.327 -0.7944  0.5794  0.7099
   77MOL    H91 9363   1.411   7.074   5.608  0.0901 -0.2906 -0.3661
   77MOL    C92 9364   1.345   7.279   5.564 -0.1730 -0.6267 -0.4321
   77MOL    C93 9365   1.287   7.322   5.708  0.0150 -0.0848  0.6288
   77MOL   Cl94 9366   1.333   7.205   5.831  0.1495 -0.0620 -0.1631
   77MOL    H95 9367   1.288   7.328   5.485 -0.8810  0.7754  0.9199
   77MOL    H96 9368   1.447   7.316   5.556 -0.6937  1.5002  1.9476
   77MOL    H97 9369   1.337   7.411   5.746  0.3757  1.0311 -2.3080
   77MOL    C98 9370   1.135   7.345   5.692  0.8631  0.0081 -0.8967
   77MOL    C99 9371   1.067   7.424   5.820  0.9116 -0.1472  0.2234
   77MOL  Cl100 9372   0.899   7.443   5.782  0.4809  0.1669 -0.0365
   77MOL   H101 9373   1.101   7.243   5.675  1.7212 -0.2271 -1.2453
   77MOL   H102 9374   1.114   7.398   5.599  0.0925  0.8749 -0.2447
   77MOL   H103 9375   1.061   7.347   5.896 -1.7505  1.0768  1.3394
   77MOL   C104 9376   1.126   7.558   5.871 -0.0298  0.1140 -0.6841
   77MOL   C105 9377   1.106   7.693   5.799  0.1409  0.3249  0.7234
   77MOL  Cl106 9378   1.209   7.682   5.644  0.4182  0.4824 -0.0390
   77MOL   H107 9379   1.229   7.532   5.896 -0.3539 -0.5702 -0.0574
   77MOL   H108 9380   1.085   7.566   5.972  0.8054  2.6476 -0.5118
   77MOL   H109 9381   1.003   7.701   5.764 -0.2584  0.6615  1.9299
   77MOL   C110 9382   1.155   7.816   5.882  0.4511  0.1778  0.1761
   77MOL   C111 9383   1.086   7.951   5.850 -0.2269 -0.7692 -0.0733
   77MOL  Cl112 9384   0.916   7.936   5.910  0.1035 -0.3736 -0.0003
   77MOL   H113 9385   1.257   7.828   5.846 -0.4626  1.3969 -2.1251
   77MOL   H114 9386   1.150   7.797   5.990  0.0112 -2.4030 -0.2607
   77MOL   H115 9387   1.125   8.039   5.902  0.4014 -1.8196  1.2616
   77MOL   C116 9388   1.089   7.989   5.704  0.8653 -0.8153 -0.6732
   77MOL   C117 9389   1.005   8.099   5.658 -0.0634 -0.0181  0.3880
   77MOL  Cl118 9390   1.040   8.143   5.489  0.0760  0.6157 -0.1687
   77MOL   H119 9391   1.045   7.902   5.655 -0.1340 -0.3937 -0.5354
   77MOL   H120 9392   1.190   7.996   5.663 -0.4680  0.0529 -4.0118
   77MOL   H121 9393   0.905   8.057   5.661  0.1177 -0.3970  1.6465
   77MOL   H122 9394   1.022   8.193   5.711  1.3447 -0.3974  0.6330
   78MOL     C1 9395   0.167   3.027   7.370  0.3111 -0.2855 -0.7732
   78MOL     C2 9396   0.310   3.060   7.330  0.4304  0.9531  0.4412
   78MOL    Cl3 9397   0.374   3.186   7.436 -0.0134  0.0533 -0.2540
   78MOL     H4 9398   0.161   2.989   7.472 -1.4067 -3.5585 -2.0111
   78MOL     H5 9399   0.099   3.112   7.366 -1.0270 -1.3962 -2.6488
   78MOL     H6 9400   0.374   2.972   7.338  0.6300  1.2017  1.6340
   78MOL     H7 9401   0.118   2.956   7.303 -1.0592  1.4844 -1.6748
   78MOL     C8 9402   0.325   3.120   7.184 -0.8664  1.0442 -0.3731
   78MOL     C9 9403   0.282   3.030   7.067  0.2889  1.2184 -0.1076
   78MOL   Cl10 9404   0.359   2.868   7.084 -0.1872  0.0197  0.3953
   78MOL    H11 9405   0.428   3.155   7.170  1.0215 -3.4952  1.1499
   78MOL    H12 9406   0.264   3.210   7.181 -3.3892 -0.6166 -0.1899
   78MOL    H13 9407   0.176   3.012   7.079  0.6646 -1.8285 -1.0307
   78MOL    C14 9408   0.308   3.081   6.931  0.4282  0.1513  0.5059
   78MOL    C15 9409   0.244   3.217   6.889  1.1105  0.0422 -0.0052
   78MOL   Cl16 9410   0.062   3.224   6.922  0.1264  0.4255  0.3467
   78MOL    H17 9411   0.258   3.018   6.857  0.2395 -0.9180  1.5399
   78MOL    H18 9412   0.415   3.079   6.909  0.4078  0.4092  0.3788
   78MOL    H19 9413   0.286   3.300   6.946  0.5071  0.2046  0.2096
   78MOL    C20 9414   0.273   3.263   6.745  0.3196  0.8822 -0.0295
   78MOL    C21 9415   0.254   3.412   6.707 -0.1952  0.5284  0.4189
   78MOL   Cl22 9416   0.299   3.423   6.532  0.1024  0.4542  0.0342
   78MOL    H23 9417   0.208   3.203   6.681  2.9133 -0.8965 -1.0673
   78MOL    H24 9418   0.376   3.236   6.722  0.2022 -0.1658  0.6625
   78MOL    H25 9419   0.150   3.443   6.712  0.1106  1.6345  0.1138
   78MOL    C26 9420   0.348   3.498   6.787 -0.6674 -0.2453  0.3153
   78MOL    C27 9421   0.507   3.480   6.770 -0.0606 -0.0312 -0.5306
   78MOL   Cl28 9422   0.558   3.352   6.881 -0.3597  0.2301  0.1618
   78MOL    H29 9423   0.322   3.487   6.892 -0.0370 -2.1453  0.2810
   78MOL    H30 9424   0.334   3.604   6.764 -1.1079  0.1134  2.1222
   78MOL    H31 9425   0.527   3.445   6.668  1.9193  0.0334 -0.1965
   78MOL    C32 9426   0.585   3.607   6.811 -0.1048 -0.4472  0.6072
   78MOL    C33 9427   0.596   3.723   6.700  0.3039  0.0883  0.2171
   78MOL   Cl34 9428   0.662   3.648   6.548  0.3226  0.1674  0.2686
   78MOL    H35 9429   0.692   3.585   6.819  0.0398 -0.0953 -0.2365
   78MOL    H36 9430   0.547   3.654   6.901  1.3910 -0.0843  1.0709
   78MOL    H37 9431   0.497   3.751   6.664  0.9617 -0.3405 -1.9726
   78MOL    C38 9432   0.683   3.841   6.750 -0.2139 -0.0949 -0.1302
   78MOL    C39 9433   0.672   3.970   6.671 -0.6038  0.5203 -0.3378
   78MOL   Cl40 9434   0.507   4.030   6.667 -0.5190  0.0240  0.0101
   78MOL    H41 9435   0.784   3.801   6.758  0.6016  2.0167  0.3276
   78MOL    H42 9436   0.660   3.866   6.853  0.8994  0.1938  0.0576
   78MOL    H43 9437   0.726   4.039   6.736 -0.9719  0.0774  0.4562
   78MOL    C44 9438   0.718   3.974   6.523  0.5027  0.2224 -0.0137
   78MOL    C45 9439   0.867   3.942   6.504  0.6721  0.2737  0.0836
   78MOL   Cl46 9440   0.961   4.065   6.596 -0.1352 -0.2569  0.3639
   78MOL    H47 9441   0.704   4.072   6.479 -0.0541 -0.3469 -1.1309
   78MOL    H48 9442   0.646   3.914   6.467 -0.7125 -0.3554  2.1169
   78MOL    H49 9443   0.889   3.841   6.537 -2.6682  0.0519  1.8947
   78MOL    C50 9444   0.909   3.953   6.359  0.1067 -0.0153  0.4935
   78MOL    C51 9445   1.039   3.874   6.320  0.0402  0.8541 -0.6902
   78MOL   Cl52 9446   0.997   3.704   6.352  0.4626  0.0579 -0.2353
   78MOL    H53 9447   0.924   4.058   6.333  0.9002 -0.4889 -1.0014
   78MOL    H54 9448   0.828   3.918   6.295 -0.0131  0.2950  0.4729
   78MOL    H55 9449   1.061   3.877   6.213 -0.6752 -0.1136 -0.8747
   78MOL    C56 9450   1.171   3.897   6.402 -0.4294 -0.2684 -0.0294
   78MOL    C57 9451   1.240   4.026   6.359 -0.7270  0.2749  0.3806
   78MOL   Cl58 9452   1.298   3.979   6.200  0.1250  0.2566  0.1472
   78MOL    H59 9453   1.233   3.807   6.399 -1.7399 -1.2461  1.2846
   78MOL    H60 9454   1.147   3.902   6.508 -0.3753 -0.8869  0.0148
   78MOL    H61 9455   1.161   4.100   6.353 -2.3659 -1.5294 -1.0681
   78MOL    C62 9456   1.357   4.067   6.441  0.5127  0.0081 -0.0664
   78MOL    C63 9457   1.338   4.099   6.592 -0.4711 -0.4364  0.5524
   78MOL   Cl64 9458   1.428   4.249   6.630  0.0343  0.1503 -0.0242
   78MOL    H65 9459   1.381   4.161   6.392  2.9461  1.1428  3.1222
   78MOL    H66 9460   1.442   4.002   6.419  0.2074 -1.0537  1.7486
   78MOL    H67 9461   1.232   4.105   6.616 -0.1704  1.2089  1.4959
   78MOL    C68 9462   1.393   3.981   6.674  0.2952  0.3166  0.3408
   78MOL    C69 9463   1.365   3.988   6.821 -0.7742 -0.0828 -1.0515
   78MOL   Cl70 9464   1.447   3.854   6.903  0.0606  0.0175 -0.1848
   78MOL    H71 9465   1.500   3.978   6.651  0.1518  1.8600 -0.5526
   78MOL    H72 9466   1.364   3.887   6.629 -0.2925  1.0518 -0.8162
   78MOL    H73 9467   1.406   4.081   6.858 -1.8108 -0.5910  1.4640
   78MOL    C74 9468   1.215   3.992   6.853  0.2604  0.4459 -0.6385
   78MOL    C75 9469   1.180   3.979   7.004 -0.2602  0.0856 -0.5977
   78MOL   Cl76 9470   1.002   3.980   7.018 -0.2072  0.3434 -0.1565
   78MOL    H77 9471   1.171   3.908   6.798 -1.0379 -0.4420  1.6908
   78MOL    H78 9472   1.164   4.081   6.817  1.4854  1.9028  1.1595
   78MOL    H79 9473   1.194   3.878   7.042  2.4426  0.0454 -1.6303
   78MOL    C80 9474   1.243   4.080   7.106  0.7799  0.2413 -0.1622
   78MOL    C81 9475   1.231   4.053   7.258 -0.6537  0.2330  0.2171
   78MOL   Cl82 9476   1.269   4.199   7.346  0.1669  0.2164  0.5036
   78MOL    H83 9477   1.201   4.179   7.087  0.2943  0.0419 -0.1332
   78MOL    H84 9478   1.347   4.095   7.077  0.7182  1.1395  0.0737
   78MOL    H85 9479   1.128   4.031   7.287 -1.3348  2.6705 -0.1942
   78MOL    C86 9480   1.327   3.938   7.297 -0.0108  0.0411 -0.2167
   78MOL    C87 9481   1.254   3.858   7.412 -0.4428  0.1090  0.1040
   78MOL   Cl88 9482   1.264   3.946   7.570 -0.0797 -0.4164 -0.0411
   78MOL    H89 9483   1.428   3.968   7.324 -0.0791  0.2095 -0.1436
   78MOL    H90 9484   1.332   3.868   7.213 -1.5606  0.4949 -0.7075
   78MOL    H91 9485   1.147   3.856   7.392 -0.5887 -0.1176  0.9032
   78MOL    C92 9486   1.324   3.722   7.436 -0.3465 -0.4991  0.2639
   78MOL    C93 9487   1.293   3.638   7.559  0.7141  0.3219 -0.2380
   78MOL   Cl94 9488   1.371   3.484   7.545 -0.1474  0.4872  0.0609
   78MOL    H95 9489   1.431   3.743   7.443 -0.2892 -0.7098  0.0174
   78MOL    H96 9490   1.295   3.653   7.356  0.4342 -2.1535  1.3837
   78MOL    H97 9491   1.339   3.681   7.649 -0.1747  1.9148 -0.5342
   78MOL    C98 9492   1.145   3.608   7.593  0.3985 -0.2690  0.4094
   78MOL    C99 9493   1.126   3.573   7.737 -0.1147  0.5366 -0.3165
   78MOL  Cl100 9494   0.951   3.541   7.738 -0.3964 -0.6477 -0.0489
   78MOL   H101 9495   1.096   3.542   7.521  0.0562 -0.9775  1.2911
   78MOL   H102 9496   1.088   3.700   7.577  0.2570 -0.6231 -1.2900
   78MOL   H103 9497   1.178   3.479   7.756 -1.2693  0.0801  0.5942
   78MOL   C104 9498   1.151   3.681   7.837 -0.0157 -0.3237 -0.3613
   78MOL   C105 9499   1.273   3.669   7.931  0.4381  1.0380  0.1464
   78MOL  Cl106 9500   1.231   3.547   8.056 -0.1229 -0.3537  0.0805
   78MOL   H107 9501   1.074   3.685   7.914  1.6399  1.1979  1.2683
   78MOL   H108 9502   1.156   3.776   7.784  3.6732  0.4533  1.1958
   78MOL   H109 9503   1.357   3.621   7.880 -0.3790 -0.4403  0.1485
   78MOL   C110 9504   1.322   3.790   7.998  0.0416 -0.6711  0.7079
   78MOL   C111 9505   1.421   3.876   7.915 -0.7579 -0.4478  0.0009
   78MOL  Cl112 9506   1.577   3.788   7.904  0.0902 -0.2916  0.0402
   78MOL   H113 9507   1.363   3.757   8.094  0.0459  0.6905  1.1869
   78MOL   H114 9508   1.243   3.863   8.015  1.4629  1.6798 -2.3939
   78MOL   H115 9509   1.383   3.896   7.815  1.5679 -0.9501 -1.0316
   78MOL   C116 9510   1.465   4.007   7.988 -0.4879  0.1493 -0.3062
   78MOL   C117 9511   1.524   4.103   7.884  0.1552 -0.5056  0.3015
   78MOL  Cl118 9512   1.541   4.262   7.966  0.2750  0.4057  0.1841
   78MOL   H119 9513   1.539   4.000   8.068 -0.7023 -0.8479 -0.1965
   78MOL   H120 9514   1.381   4.055   8.038  0.4501  1.0458  0.4568
   78MOL   H121 9515   1.625   4.067   7.863  0.9326  1.2468  1.0099
   78MOL   H122 9516   1.462   4.116   7.796  0.5484 -0.1777  0.0719
   79MOL     C1 9517   8.503   4.222   6.540 -0.1721  0.1089  0.9514
   79MOL     C2 9518   0.038   4.110   6.443 -0.0955  0.0471 -0.2675
   79MOL    Cl3 9519   8.433   4.030   6.358  0.1163 -0.3652  0.5039
   79MOL     H4 9520   8.428   4.289   6.498 -0.3352 -1.4276 -1.2667
   79MOL     H5 9521   8.446   4.159   6.608 -1.8612 -0.0336 -0.5912
   79MOL     H6 9522   0.100   4.163   6.371  1.0633 -1.2361 -0.2409
   79MOL     H7 9523   0.040   4.286   6.604 -0.6801  2.5170 -0.8982
   79MOL     C8 9524   0.122   4.018   6.528  0.4543  0.1359  0.3578
   79MOL     C9 9525   0.173   3.887   6.456 -0.1556 -0.5135 -0.0578
   79MOL   Cl10 9526   0.243   3.785   6.583  0.3709 -0.4039  0.0047
   79MOL    H11 9527   0.072   3.998   6.623  2.0558  1.2219  1.4439
   79MOL    H12 9528   0.207   4.081   6.551  0.7058 -0.1440  0.1883
   79MOL    H13 9529   0.092   3.828   6.413  1.2725 -0.7019 -2.6090
   79MOL    C14 9530   0.286   3.909   6.351 -0.9173 -0.0062 -0.2296
   79MOL    C15 9531   0.343   3.790   6.283 -0.2812  1.1334 -0.4928
   79MOL   Cl16 9532   0.517   3.825   6.251  0.0824 -0.1949 -0.3114
   79MOL    H17 9533   0.372   3.953   6.402 -0.9759 -1.1888  0.9046
   79MOL    H18 9534   0.263   3.983   6.274  0.6965 -0.3527 -1.0784
   79MOL    H19 9535   0.345   3.700   6.344  0.3935  1.1542 -0.4810
   79MOL    C20 9536   0.299   3.756   6.142 -0.8154  0.2438  0.0816
   79MOL    C21 9537   0.152   3.720   6.126 -0.0288  0.2374  0.5461
   79MOL   Cl22 9538   0.081   3.611   6.243 -0.1965  0.1404 -0.1294
   79MOL    H23 9539   0.364   3.678   6.103  0.6355  1.2201  0.4973
   79MOL    H24 9540   0.320   3.841   6.078  0.5538 -0.5992 -0.6030
   79MOL    H25 9541   0.102   3.814   6.150 -3.1699 -1.8158  2.4232
   79MOL    C26 9542   0.110   3.680   5.984  0.0271 -0.4648 -0.2100
   79MOL    C27 9543   8.476   3.670   5.965 -0.1491 -0.6566 -0.4619
   79MOL   Cl28 9544   8.443   3.626   5.798  0.4758  0.2041  0.0781
   79MOL    H29 9545   0.152   3.582   5.960 -1.2895 -1.3426  1.0273
   79MOL    H30 9546   0.149   3.749   5.908 -0.6735 -0.3478 -0.4686
   79MOL    H31 9547   8.433   3.594   6.031 -0.7085 -0.0365 -0.0991
   79MOL    C32 9548   8.393   3.805   5.990  0.0912  0.4145  0.2699
   79MOL    C33 9549   8.401   3.927   5.891  0.4717  0.6617  0.1831
   79MOL   Cl34 9550   0.023   4.020   5.905 -0.0388  0.2664  0.0665
   79MOL    H35 9551   8.407   3.843   6.092  1.6300  2.0802 -0.5284
   79MOL    H36 9552   8.290   3.770   5.987 -0.1906  0.8446  3.2181
   79MOL    H37 9553   8.388   3.891   5.789 -0.1989  0.1267  0.4505
   79MOL    C38 9554   8.277   4.024   5.915 -0.2799 -0.0937  0.0303
   79MOL    C39 9555   8.265   4.094   6.045 -0.2599  0.4863 -0.2824
   79MOL   Cl40 9556   8.137   3.987   6.125  0.1824 -0.9283  0.0091
   79MOL    H41 9557   8.185   3.983   5.872 -0.4433 -0.9196  1.1556
   79MOL    H42 9558   8.290   4.102   5.840 -0.1582  0.1863  0.3423
   79MOL    H43 9559   8.355   4.086   6.106 -1.0049 -1.4667  0.6064
   79MOL    C44 9560   8.228   4.253   6.045  0.2887 -0.1710  0.2771
   79MOL    C45 9561   8.350   4.332   5.996  0.1084  0.3290  0.1016
   79MOL   Cl46 9562   8.457   4.330   6.141 -0.1425 -0.1077 -0.0708
   79MOL    H47 9563   8.201   4.289   6.144  0.7049 -0.6332  0.5632
   79MOL    H48 9564   8.141   4.273   5.982  0.0015  1.2706  1.1259
   79MOL    H49 9565   8.407   4.279   5.920 -0.4655 -2.2467  1.3905
   79MOL    C50 9566   8.313   4.474   5.949 -0.4057  0.2995  0.0041
   79MOL    C51 9567   8.268   4.485   5.800 -0.0633 -0.1312 -1.0682
   79MOL   Cl52 9568   8.398   4.420   5.691 -0.3058  0.1552  0.1022
   79MOL    H53 9569   8.404   4.532   5.965 -1.7156  2.3857  0.0687
   79MOL    H54 9570   8.242   4.514   6.022  0.3639  0.8651  0.4533
   79MOL    H55 9571   8.185   4.421   5.772 -2.4404  2.6707 -0.5606
   79MOL    C56 9572   8.238   4.625   5.754  0.1177  0.1745  0.3520
   79MOL    C57 9573   8.105   4.678   5.813 -0.6304  0.3547  0.5195
   79MOL   Cl58 9574   7.977   4.581   5.731  0.0472  0.6127  0.0950
   79MOL    H59 9575   8.243   4.641   5.647 -1.4690 -0.2723  0.2019
   79MOL    H60 9576   8.325   4.676   5.795 -0.7551  0.4450  1.9112
   79MOL    H61 9577   8.080   4.664   5.918 -0.3430  1.2734  0.7082
   79MOL    C62 9578   8.081   4.826   5.781  0.1538  0.6391 -0.1780
   79MOL    C63 9579   8.169   4.920   5.857 -0.3498  0.6582  0.5386
   79MOL   Cl64 9580   8.127   4.903   6.029 -0.1457  0.0549  0.0241
   79MOL    H65 9581   7.981   4.852   5.815 -0.4118 -1.1596 -0.4481
   79MOL    H66 9582   8.083   4.841   5.673 -1.6946 -2.3310 -0.6610
   79MOL    H67 9583   8.274   4.895   5.842 -0.0777  1.1570  1.5946
   79MOL    C68 9584   8.145   5.069   5.833 -0.7000 -0.4393  0.7987
   79MOL    C69 9585   8.203   5.120   5.706 -0.8282 -0.6302  0.1198
   79MOL   Cl70 9586   8.382   5.077   5.688 -0.2767 -0.3814  0.2967
   79MOL    H71 9587   8.199   5.118   5.914  0.9106 -2.0442  0.7452
   79MOL    H72 9588   8.038   5.089   5.842 -0.6228 -0.2248  1.2662
   79MOL    H73 9589   8.158   5.061   5.627 -1.6038 -0.3443  0.3362
   79MOL    C74 9590   8.194   5.273   5.688 -0.2778  0.5020 -0.2178
   79MOL    C75 9591   8.053   5.336   5.698 -0.4287 -0.2681 -0.2981
   79MOL   Cl76 9592   7.976   5.316   5.545 -0.0798 -0.4261  0.1785
   79MOL    H77 9593   8.250   5.316   5.606  0.6581 -2.1184 -0.9692
   79MOL    H78 9594   8.247   5.302   5.779 -1.2377  1.2443  0.1271
   79MOL    H79 9595   7.996   5.282   5.774 -2.2703  1.0193 -0.7147
   79MOL    C80 9596   8.056   5.485   5.748  0.0401  0.2427  0.3518
   79MOL    C81 9597   7.924   5.558   5.776  0.9194  0.0635  0.0586
   79MOL   Cl82 9598   7.868   5.624   5.620  0.5442 -0.2471  0.0668
   79MOL    H83 9599   8.121   5.550   5.690  2.3219 -2.3194 -0.1070
   79MOL    H84 9600   8.102   5.476   5.847 -0.3518  0.6182  0.5672
   79MOL    H85 9601   7.844   5.486   5.798 -0.8997  1.9525 -0.2508
   79MOL    C86 9602   7.939   5.674   5.875  0.8551  0.0308  0.0236
   79MOL    C87 9603   7.791   5.724   5.909 -0.6087  0.3151 -0.1130
   79MOL   Cl88 9604   7.766   5.895   5.861 -0.2114 -0.2068 -0.1857
   79MOL    H89 9605   8.002   5.754   5.836  0.1429  1.3740  1.5524
   79MOL    H90 9606   7.979   5.648   5.974 -0.1339  2.3463  1.0530
   79MOL    H91 9607   7.728   5.670   5.838 -0.2501 -0.2763  0.0223
   79MOL    C92 9608   7.760   5.700   6.061  0.3790 -0.5183  0.1092
   79MOL    C93 9609   7.605   5.713   6.090  0.2213 -0.0363  0.3586
   79MOL   Cl94 9610   7.583   5.734   6.262  0.2879  0.4135 -0.1452
   79MOL    H95 9611   7.819   5.768   6.122 -1.8298  1.5365  0.0076
   79MOL    H96 9612   7.797   5.603   6.093  0.9633 -0.0504  0.8587
   79MOL    H97 9613   7.563   5.802   6.042  0.4869 -0.6094 -0.9799
   79MOL    C98 9614   7.508   5.595   6.047 -0.5417 -0.3468  0.1063
   79MOL    C99 9615   7.545   5.456   6.098  0.7606  0.4998 -0.0477
   79MOL  Cl100 9616   7.677   5.389   6.005 -0.0117 -0.0974 -0.1360
   79MOL   H101 9617   7.498   5.595   5.938  0.8039  1.8172 -0.0400
   79MOL   H102 9618   7.407   5.624   6.078 -0.2929 -0.0309  0.6220
   79MOL   H103 9619   7.582   5.461   6.200 -2.3945  1.5191  1.0968
   79MOL   C104 9620   7.430   5.355   6.097 -0.0588  0.8282 -0.2839
   79MOL   C105 9621   7.344   5.369   6.224  0.4543 -0.2616  0.3422
   79MOL  Cl106 9622   7.437   5.313   6.363  0.0099  0.1646 -0.1747
   79MOL   H107 9623   7.475   5.256   6.088 -1.9525  0.0324 -1.6128
   79MOL   H108 9624   7.368   5.363   6.007  0.0279 -0.4931 -0.4760
   79MOL   H109 9625   7.319   5.475   6.231  0.3629 -0.1501 -1.3458
   79MOL   C110 9626   7.210   5.289   6.237  0.0227 -0.0771 -0.1451
   79MOL   C111 9627   7.093   5.350   6.152  0.4802 -0.5928  0.9953
   79MOL  Cl112 9628   7.070   5.509   6.228  0.2385 -0.3146 -0.2228
   79MOL   H113 9629   7.177   5.282   6.341  0.5178 -0.1333  0.0090
   79MOL   H114 9630   7.228   5.185   6.208  1.6880  0.3789 -0.7794
   79MOL   H115 9631   7.120   5.370   6.049 -2.3494 -1.7208 -0.0234
   79MOL   C116 9632   6.963   5.269   6.156  0.3686  0.4678 -0.2272
   79MOL   C117 9633   6.951   5.165   6.044  0.1838 -0.1804  0.6751
   79MOL  Cl118 9634   6.935   5.241   5.892 -0.2212 -0.1698  0.0262
   79MOL   H119 9635   6.882   5.339   6.134  1.0950  1.6983  0.9811
   79MOL   H120 9636   6.943   5.227   6.255 -1.3262  1.2856 -0.2044
   79MOL   H121 9637   7.036   5.096   6.037 -0.0661 -0.4279  0.0480
   79MOL   H122 9638   6.866   5.099   6.057  0.6144 -0.9233 -0.2228
   80MOL     C1 9639   0.719   0.441   4.422  0.5173 -0.3661 -0.7657
   80MOL     C2 9640   0.658   0.357   4.530 -0.1903  0.2073  0.9060
   80MOL    Cl3 9641   0.732   0.191   4.505  0.0549 -0.2958 -0.1054
   80MOL     H4 9642   0.707   0.393   4.325 -1.1211 -0.2810 -0.6271
   80MOL     H5 9643   0.655   0.529   4.423  1.1058  0.0562  1.8227
   80MOL     H6 9644   0.692   0.386   4.629 -2.4474 -0.2000  1.8294
   80MOL     H7 9645   0.819   0.475   4.448  0.1040  0.3153 -0.0571
   80MOL     C8 9646   0.503   0.347   4.509 -0.3953  0.6343 -0.1566
   80MOL     C9 9647   0.420   0.286   4.621 -0.3585 -0.3733 -0.2844
   80MOL   Cl10 9648   0.463   0.359   4.782  0.1039  0.1276  0.1140
   80MOL    H11 9649   0.483   0.294   4.416  1.0812  0.4612 -0.3958
   80MOL    H12 9650   0.469   0.448   4.484 -1.6830  0.2159 -0.0853
   80MOL    H13 9651   0.319   0.322   4.603 -0.2492 -0.2953 -0.7608
   80MOL    C14 9652   0.415   0.128   4.628  0.2877 -0.5117  0.0598
   80MOL    C15 9653   0.338   0.069   4.745  0.1971  0.4740 -0.1508
   80MOL   Cl16 9654   0.357   8.414   4.756 -0.1674 -0.3491 -0.1080
   80MOL    H17 9655   0.513   0.080   4.634  1.8767  2.5316 -0.5527
   80MOL    H18 9656   0.376   0.084   4.536  0.8221  1.3002 -1.0497
   80MOL    H19 9657   0.385   0.108   4.835  0.2298  0.4828 -0.1722
   80MOL    C20 9658   0.187   0.103   4.744  0.1518  0.5763 -0.1725
   80MOL    C21 9659   0.128   0.049   4.880  0.2945  0.1026  0.1236
   80MOL   Cl22 9660   8.479   0.017   4.857 -0.6097  0.1865  0.2581
   80MOL    H23 9661   0.148   0.060   4.652  1.3824  0.2427 -0.5439
   80MOL    H24 9662   0.169   0.210   4.746 -5.1743 -0.1960  2.3810
   80MOL    H25 9663   0.169   8.478   4.909  0.3264 -0.0137 -0.3060
   80MOL    C26 9664   0.145   0.157   4.995 -0.5344 -0.3240  0.0783
   80MOL    C27 9665   0.163   0.089   5.130  0.4293  0.7635 -0.1987
   80MOL   Cl28 9666   8.522   0.059   5.198  0.4037  0.1373  0.3323
   80MOL    H29 9667   0.056   0.219   4.989 -0.5064 -0.2920 -0.0052
   80MOL    H30 9668   0.237   0.212   4.976 -1.4672  1.2965  0.1874
   80MOL    H31 9669   0.198   8.512   5.116 -2.2991 -0.4849  1.7233
   80MOL    C32 9670   0.254   0.172   5.229  0.1803  0.3754  0.4140
   80MOL    C33 9671   0.404   0.164   5.205 -0.6478  0.3916 -0.2154
   80MOL   Cl34 9672   0.473   0.002   5.182  0.2579 -0.3743  0.3040
   80MOL    H35 9673   0.244   0.151   5.336 -0.3868  0.9525  0.4774
   80MOL    H36 9674   0.220   0.275   5.223 -0.6918  0.1029  0.6000
   80MOL    H37 9675   0.423   0.217   5.111  0.3891  0.2555 -0.0828
   80MOL    C38 9676   0.489   0.235   5.309  0.0582  0.4008 -0.5482
   80MOL    C39 9677   0.469   0.388   5.324 -0.2566  0.6381  0.2347
   80MOL   Cl40 9678   0.477   0.491   5.174 -0.2307 -0.2149 -0.3955
   80MOL    H41 9679   0.594   0.217   5.286 -0.0847  0.4575 -1.2435
   80MOL    H42 9680   0.470   0.187   5.405  0.6266  2.4222  0.6034
   80MOL    H43 9681   0.366   0.400   5.359 -0.4688  0.4296 -0.3029
   80MOL    C44 9682   0.562   0.443   5.440  0.3271 -0.3375 -0.4128
   80MOL    C45 9683   0.501   0.414   5.575 -0.4862  0.8057  0.0234
   80MOL   Cl46 9684   0.352   0.519   5.593  0.0592 -0.1666 -0.3026
   80MOL    H47 9685   0.555   0.551   5.426  1.0057 -0.1380  0.6462
   80MOL    H48 9686   0.666   0.416   5.422 -0.1212 -1.2902 -1.5747
   80MOL    H49 9687   0.458   0.314   5.573 -0.4084  0.6824  2.5462
   80MOL    C50 9688   0.592   0.426   5.695 -0.6300 -0.2854 -0.0413
   80MOL    C51 9689   0.610   0.564   5.757 -0.0562  0.5549 -0.5661
   80MOL   Cl52 9690   0.668   0.682   5.640  0.0990  0.4910 -0.1323
   80MOL    H53 9691   0.693   0.393   5.671 -1.0043 -1.8109  0.4765
   80MOL    H54 9692   0.564   0.358   5.775  3.1797 -1.1412  0.6706
   80MOL    H55 9693   0.514   0.605   5.789  1.2119  1.8241  1.7843
   80MOL    C56 9694   0.718   0.568   5.875  0.0403  0.1418  0.1113
   80MOL    C57 9695   0.709   0.462   5.989 -0.3364 -0.0305  0.4272
   80MOL   Cl58 9696   0.542   0.451   6.067 -0.1851 -0.0113  0.2397
   80MOL    H59 9697   0.720   0.659   5.934  1.8024  1.1846 -1.4923
   80MOL    H60 9698   0.817   0.563   5.829 -0.2469  0.1505 -0.5149
   80MOL    H61 9699   0.721   0.361   5.948  2.1567  1.0278 -1.6205
   80MOL    C62 9700   0.817   0.493   6.092  0.4071 -0.2967  0.1134
   80MOL    C63 9701   0.960   0.461   6.049  0.1705  0.3253 -0.4200
   80MOL   Cl64 9702   0.969   0.284   6.026 -0.2323 -0.2283 -0.0674
   80MOL    H65 9703   0.785   0.426   6.172 -0.1999  0.3891  0.4547
   80MOL    H66 9704   0.801   0.593   6.132 -0.3413 -1.3666  2.5867
   80MOL    H67 9705   0.987   0.508   5.954  0.6372  0.7480 -0.0823
   80MOL    C68 9706   1.066   0.497   6.152  0.6037  0.3988 -0.5476
   80MOL    C69 9707   1.213   0.466   6.114 -0.4671 -0.2704 -0.0949
   80MOL   Cl70 9708   1.322   0.536   6.238  0.2030 -0.2889 -0.3932
   80MOL    H71 9709   1.039   0.446   6.245 -0.0196 -0.5970 -1.2624
   80MOL    H72 9710   1.051   0.602   6.174 -0.4239  0.4318 -1.3671
   80MOL    H73 9711   1.229   0.358   6.118  1.9226 -0.0025 -1.3724
   80MOL    C74 9712   1.258   0.516   5.968 -0.0901 -0.3901  0.1668
   80MOL    C75 9713   1.400   0.473   5.926 -0.4993 -0.1540 -0.0273
   80MOL   Cl76 9714   1.412   0.524   5.757  0.4353  0.0110  0.3887
   80MOL    H77 9715   1.240   0.622   5.952  0.5999 -0.0167  1.7509
   80MOL    H78 9716   1.189   0.477   5.894  1.4027 -0.1974 -1.3692
   80MOL    H79 9717   1.475   0.530   5.982 -2.3195  1.3987  0.8755
   80MOL    C80 9718   1.421   0.322   5.924 -0.0964  0.2891 -0.2249
   80MOL    C81 9719   1.504   0.262   6.049 -0.2100 -0.8859 -0.4550
   80MOL   Cl82 9720   1.675   0.324   6.030 -0.1139  0.3283  0.2225
   80MOL    H83 9721   1.448   0.289   5.824  0.6627  1.5339 -0.4394
   80MOL    H84 9722   1.323   0.277   5.940 -0.5030  1.3591  0.3282
   80MOL    H85 9723   1.473   0.295   6.148  0.8266  1.9237 -1.0193
   80MOL    C86 9724   1.511   0.107   6.054  0.3754 -0.1308  0.1973
   80MOL    C87 9725   1.377   0.034   6.075  0.1235 -0.2445 -0.0095
   80MOL   Cl88 9726   1.307   0.108   6.219  0.1777  0.0808  0.2131
   80MOL    H89 9727   1.570   0.071   6.137  0.2888  1.7098  1.0836
   80MOL    H90 9728   1.556   0.073   5.960  1.7765 -0.4706  0.9864
   80MOL    H91 9729   1.302   0.058   6.000 -1.7586 -0.8432  1.6423
   80MOL    C92 9730   1.392   8.405   6.086 -0.7853  0.1549 -0.6285
   80MOL    C93 9731   1.442   8.332   5.960 -0.1101  0.6880 -0.0171
   80MOL   Cl94 9732   1.311   8.348   5.840  0.0975  0.2263 -0.1867
   80MOL    H95 9733   1.294   8.364   6.110  0.0205 -1.7134 -0.4685
   80MOL    H96 9734   1.451   8.377   6.173 -2.6185 -1.3533  0.1510
   80MOL    H97 9735   1.532   8.380   5.921  0.9792 -0.7227  0.7040
   80MOL    C98 9736   1.467   8.175   5.988  0.2263  0.1539 -0.4079
   80MOL    C99 9737   1.486   8.098   5.860 -0.3272  0.4986  0.1212
   80MOL  Cl100 9738   1.531   7.931   5.908 -0.2245 -0.3900 -0.4157
   80MOL   H101 9739   1.374   8.136   6.030  0.8958  0.1530  1.0849
   80MOL   H102 9740   1.546   8.152   6.059 -2.1687  2.1849  3.0899
   80MOL   H103 9741   1.390   8.086   5.809 -0.8946  0.3181  1.2148
   80MOL   C104 9742   1.596   8.140   5.754 -0.5378  0.7919 -0.2545
   80MOL   C105 9743   1.599   8.061   5.625  0.4124  0.0167 -0.3144
   80MOL  Cl106 9744   1.660   8.166   5.494  0.4049 -0.2299  0.2271
   80MOL   H107 9745   1.696   8.140   5.798 -0.7488  0.0663  0.2471
   80MOL   H108 9746   1.576   8.243   5.724  0.4293  1.0604 -0.0008
   80MOL   H109 9747   1.668   7.977   5.637 -1.0413 -1.4231 -1.7209
   80MOL   C110 9748   1.456   8.005   5.573 -0.7546  0.3028  0.5665
   80MOL   C111 9749   1.466   7.925   5.441  0.6564 -0.3999 -0.1261
   80MOL  Cl112 9750   1.304   7.886   5.371  0.1245  0.0891  0.4084
   80MOL   H113 9751   1.405   8.099   5.555 -0.9550 -0.0481 -0.7833
   80MOL   H114 9752   1.417   7.931   5.643  1.0062  0.9971  2.3402
   80MOL   H115 9753   1.509   7.990   5.364 -1.2176 -0.9734 -1.7118
   80MOL   C116 9754   1.538   7.786   5.446  0.3490 -0.2421 -0.3731
   80MOL   C117 9755   1.550   7.709   5.318 -0.1274  0.0611 -0.9207
   80MOL  Cl118 9756   1.652   7.565   5.356 -0.0621  0.3285 -0.2719
   80MOL   H119 9757   1.481   7.732   5.521 -1.2218  0.6872 -0.8771
   80MOL   H120 9758   1.639   7.797   5.487  1.0301 -1.5110 -1.6455
   80MOL   H121 9759   1.457   7.668   5.278 -2.1420  3.1522  0.3749
   80MOL   H122 9760   1.596   7.754   5.231 -0.0686  1.1593 -0.3294
   81MOL     C1 9761   1.849   0.754   1.887 -0.6961 -0.0965  0.1239
   81MOL     C2 9762   1.933   0.807   1.766 -1.2345 -0.5080  0.6217
   81MOL    Cl3 9763   1.866   0.960   1.702  0.2983 -0.1760  0.1524
   81MOL     H4 9764   1.847   0.814   1.978  0.2670  1.2311 -0.7182
   81MOL     H5 9765   1.743   0.744   1.861  0.0582 -0.8728 -2.7380
   81MOL     H6 9766   2.031   0.818   1.812 -1.0728  1.4288 -0.1457
   81MOL     H7 9767   1.883   0.651   1.899  3.1365  0.9279 -1.4994
   81MOL     C8 9768   1.929   0.699   1.659 -0.2928  0.3705 -0.2324
   81MOL     C9 9769   2.037   0.690   1.552  0.1239  0.1673  0.4353
   81MOL   Cl10 9770   2.186   0.642   1.620 -0.4505  0.0185  0.1796
   81MOL    H11 9771   1.838   0.716   1.601  0.0622  0.6259 -0.7165
   81MOL    H12 9772   1.918   0.600   1.703 -3.7488 -0.2140 -2.2260
   81MOL    H13 9773   2.023   0.603   1.488 -0.1903  1.2368 -0.9548
   81MOL    C14 9774   2.046   0.818   1.462  0.1782  0.5232 -0.2247
   81MOL    C15 9775   2.157   0.830   1.356  0.3261  0.4099 -0.6646
   81MOL   Cl16 9776   2.127   0.990   1.286  0.5866  0.0375  0.0819
   81MOL    H17 9777   2.062   0.894   1.538  0.3776 -0.2234  0.4861
   81MOL    H18 9778   1.953   0.835   1.408  2.2423 -1.2654 -4.5778
   81MOL    H19 9779   2.251   0.829   1.410  0.5487  1.0349 -1.0422
   81MOL    C20 9780   2.157   0.725   1.245 -0.6458 -0.0270  0.2303
   81MOL    C21 9781   2.273   0.726   1.150 -0.4244 -0.0727  0.3348
   81MOL   Cl22 9782   2.424   0.712   1.239 -0.3130  0.0269 -0.0385
   81MOL    H23 9783   2.068   0.730   1.181  0.8067  0.0891 -1.8298
   81MOL    H24 9784   2.160   0.628   1.296  1.0295 -0.2200 -0.2120
   81MOL    H25 9785   2.249   0.632   1.100 -0.7042 -0.3008  0.9002
   81MOL    C26 9786   2.264   0.828   1.037 -0.2622  0.1976 -0.2527
   81MOL    C27 9787   2.323   0.794   0.899 -0.8504  0.7153 -0.4461
   81MOL   Cl28 9788   2.222   0.675   0.809 -0.6068  0.1233 -0.0754
   81MOL    H29 9789   2.301   0.925   1.068  0.3669 -0.6481  1.7207
   81MOL    H30 9790   2.161   0.853   1.011 -1.2478 -2.8073  0.5194
   81MOL    H31 9791   2.315   0.873   0.825 -0.6552 -0.0449 -1.2868
   81MOL    C32 9792   2.458   0.737   0.897 -0.4645  0.1029  1.0219
   81MOL    C33 9793   2.563   0.843   0.924 -0.3524 -0.1275 -0.1182
   81MOL   Cl34 9794   2.563   0.958   0.792 -0.1194  0.2955 -0.0352
   81MOL    H35 9795   2.487   0.698   0.799  1.7196 -0.3193  1.7939
   81MOL    H36 9796   2.475   0.654   0.967  2.8057  0.1718  0.4028
   81MOL    H37 9797   2.550   0.894   1.020 -2.3348  0.0407 -0.4486
   81MOL    C38 9798   2.708   0.779   0.930  0.2539 -0.3836 -0.0380
   81MOL    C39 9799   2.736   0.711   1.061 -0.1580 -0.3248 -0.5790
   81MOL   Cl40 9800   2.757   0.836   1.188  0.1753 -0.3846  0.1841
   81MOL    H41 9801   2.786   0.854   0.914  0.9295 -1.0163  0.2461
   81MOL    H42 9802   2.714   0.713   0.844  0.2190  1.5887 -1.5980
   81MOL    H43 9803   2.651   0.645   1.079  1.0531 -2.1105 -1.2367
   81MOL    C44 9804   2.856   0.621   1.043 -0.4608  0.1005  0.1088
   81MOL    C45 9805   2.891   0.534   1.161  0.2574  0.4757 -0.5768
   81MOL   Cl46 9806   3.049   0.455   1.135  0.6009  0.3850 -0.0235
   81MOL    H47 9807   2.939   0.686   1.017 -1.8185  0.8761 -2.4572
   81MOL    H48 9808   2.842   0.546   0.964  0.3499 -1.3184  1.2836
   81MOL    H49 9809   2.912   0.609   1.237 -0.7139 -1.8711  2.1090
   81MOL    C50 9810   2.785   0.437   1.218 -0.1757  0.0399  0.7170
   81MOL    C51 9811   2.756   0.308   1.136 -0.3235 -0.3849 -0.2151
   81MOL   Cl52 9812   2.639   0.335   1.004  0.0291  0.0235  0.1279
   81MOL    H53 9813   2.698   0.496   1.247 -0.7462 -1.6189  2.4290
   81MOL    H54 9814   2.835   0.414   1.311 -1.0527 -3.1398  0.4503
   81MOL    H55 9815   2.837   0.274   1.072 -1.2783 -1.0853 -1.0642
   81MOL    C56 9816   2.689   0.194   1.220 -0.2653  0.0138  0.6307
   81MOL    C57 9817   2.686   0.055   1.144  0.1917  0.3136 -0.5769
   81MOL   Cl58 9818   2.570   8.474   1.246  0.2844 -0.0956 -0.0059
   81MOL    H59 9819   2.586   0.224   1.241  0.4454  0.9761  2.8384
   81MOL    H60 9820   2.742   0.175   1.313 -0.5634 -3.1491  0.2182
   81MOL    H61 9821   2.638   0.061   1.047  0.6766  3.5456 -0.6563
   81MOL    C62 9822   2.828   8.512   1.125 -0.5335 -1.1108 -0.3580
   81MOL    C63 9823   2.852   8.438   0.997  0.2649 -0.1057 -0.3033
   81MOL   Cl64 9824   2.804   0.003   0.851 -0.5355  0.1939 -0.2511
   81MOL    H65 9825   2.859   8.450   1.209  1.5191 -1.3209 -1.2380
   81MOL    H66 9826   2.897   0.070   1.115 -0.5871 -1.2850 -2.4386
   81MOL    H67 9827   2.960   8.429   0.984  0.9202  1.7819  3.2221
   81MOL    C68 9828   2.784   8.298   0.994 -0.5236 -0.1195 -0.0992
   81MOL    C69 9829   2.831   8.187   1.093  0.5158 -0.3368 -0.6194
   81MOL   Cl70 9830   3.004   8.172   1.068 -0.1351  0.1144 -0.1042
   81MOL    H71 9831   2.798   8.258   0.893 -1.1564 -0.3791 -0.0867
   81MOL    H72 9832   2.682   8.332   1.009 -0.7783 -1.2881  0.8910
   81MOL    H73 9833   2.808   8.194   1.200  0.3557  0.3546 -0.6952
   81MOL    C74 9834   2.781   8.051   1.054 -0.1084 -0.2417 -0.1446
   81MOL    C75 9835   2.631   8.011   1.065 -1.0638 -0.0724  0.3313
   81MOL   Cl76 9836   2.556   8.069   1.209  0.2539  0.4983 -0.0231
   81MOL    H77 9837   2.822   7.980   1.126 -0.8905 -1.1751 -0.6010
   81MOL    H78 9838   2.817   8.032   0.953  4.4625 -2.5205  1.7935
   81MOL    H79 9839   2.574   8.051   0.982  1.1012 -0.3151 -1.3325
   81MOL    C80 9840   2.600   7.858   1.065 -0.2634 -0.2926 -0.7893
   81MOL    C81 9841   2.462   7.806   1.055  0.2439 -0.2843 -0.3520
   81MOL   Cl82 9842   2.463   7.622   1.044  0.2903  0.3367 -0.0419
   81MOL    H83 9843   2.643   7.816   1.156  0.6923  1.4858 -0.4105
   81MOL    H84 9844   2.663   7.829   0.980  1.8763  3.0460 -0.4265
   81MOL    H85 9845   2.407   7.832   1.146  1.5566  2.4484 -0.3066
   81MOL    C86 9846   2.381   7.851   0.935 -0.3029 -0.1310 -0.9411
   81MOL    C87 9847   2.226   7.830   0.942 -0.0265  0.6328 -0.7886
   81MOL   Cl88 9848   2.143   7.884   0.798  0.2645  0.2519  0.0989
   81MOL    H89 9849   2.416   7.811   0.840 -0.4468  2.5123 -2.1454
   81MOL    H90 9850   2.409   7.955   0.918  3.2404 -0.6936  0.8222
   81MOL    H91 9851   2.213   7.721   0.944  2.1662  0.3594  0.5655
   81MOL    C92 9852   2.152   7.893   1.068  0.5990  0.0912  1.2189
   81MOL    C93 9853   2.182   8.042   1.092  0.7376 -0.4166  0.1896
   81MOL   Cl94 9854   2.170   8.066   1.269  0.3192 -0.0748  0.1256
   81MOL    H95 9855   2.176   7.838   1.159  0.4630 -1.0843  0.5568
   81MOL    H96 9856   2.044   7.882   1.060  0.5056  1.2571  0.6972
   81MOL    H97 9857   2.282   8.069   1.058  0.8700  1.9103  2.2796
   81MOL    C98 9858   2.074   8.128   1.024  0.3025 -0.5086 -0.0655
   81MOL    C99 9859   2.089   8.288   1.044 -0.7668  0.0171 -0.6506
   81MOL  Cl100 9860   1.935   8.356   0.969 -0.1396 -0.3648  0.2124
   81MOL   H101 9861   1.976   8.100   1.062  0.9047  1.0895  2.8827
   81MOL   H102 9862   2.078   8.122   0.915  1.7300  0.3019 -0.0645
   81MOL   H103 9863   2.090   8.324   1.146 -0.2137 -1.5417 -0.0891
   81MOL   C104 9864   2.218   8.344   0.971  0.4712  0.2841 -0.3764
   81MOL   C105 9865   2.231   8.493   0.976  0.2843 -0.3739  0.1825
   81MOL  Cl106 9866   2.386   0.018   0.910  0.1468 -0.4226  0.3369
   81MOL   H107 9867   2.212   8.300   0.871 -1.8224 -2.2019  0.7799
   81MOL   H108 9868   2.310   8.308   1.017 -1.3789 -1.4629  2.0863
   81MOL   H109 9869   2.152   0.006   0.911  0.7875  2.1671  1.0118
   81MOL   C110 9870   2.208   0.027   1.117  0.2123  0.3633  0.0628
   81MOL   C111 9871   2.211   0.181   1.121  0.7111  0.0216 -0.0154
   81MOL  Cl112 9872   2.217   0.238   1.290 -0.4756  0.3695 -0.1681
   81MOL   H113 9873   2.285   8.516   1.186  0.2388 -0.7046 -0.5116
   81MOL   H114 9874   2.108   0.004   1.154 -0.4875 -0.3139 -2.1959
   81MOL   H115 9875   2.304   0.211   1.074  1.1411 -0.1894  0.6792
   81MOL   C116 9876   2.093   0.246   1.046  0.2107  0.4496  0.1701
   81MOL   C117 9877   2.110   0.394   1.004 -0.8347 -0.3392  0.1681
   81MOL  Cl118 9878   1.986   0.429   0.888 -0.1061 -0.0577 -0.0280
   81MOL   H119 9879   2.003   0.234   1.107  0.1706 -2.5424 -0.3823
   81MOL   H120 9880   2.074   0.186   0.957 -0.6138  2.8639 -1.3169
   81MOL   H121 9881   2.087   0.461   1.087 -0.1951  1.2003 -0.8566
   81MOL   H122 9882   2.208   0.409   0.957 -1.8232 -0.8534 -2.1106
   82MOL     C1 9883   5.041   7.940   5.559  0.8132  0.1490  0.5139
   82MOL     C2 9884   4.949   8.037   5.642 -0.6769 -0.4358 -0.7283
   82MOL    Cl3 9885   4.795   8.070   5.559  0.3457  0.1148  0.1352
   82MOL     H4 9886   5.143   7.932   5.597  1.3067 -2.2908 -1.2003
   82MOL     H5 9887   5.002   7.839   5.544  1.0514  0.0320  0.6782
   82MOL     H6 9888   4.930   7.987   5.737 -2.0134 -1.5354 -1.5675
   82MOL     H7 9889   5.046   7.992   5.463  1.7501 -1.2061 -0.1844
   82MOL     C8 9890   5.021   8.178   5.663  0.2297 -0.2280  0.3469
   82MOL     C9 9891   5.161   8.179   5.725 -0.5180 -0.0327  0.6952
   82MOL   Cl10 9892   5.159   8.088   5.878  0.1479  0.4611  0.0886
   82MOL    H11 9893   4.950   8.231   5.726  0.2965 -0.8788  0.9831
   82MOL    H12 9894   5.019   8.243   5.576 -1.6168 -0.9141 -0.1488
   82MOL    H13 9895   5.223   8.123   5.654  0.7744 -0.4053  2.0882
   82MOL    C14 9896   5.219   8.325   5.736  0.4871 -0.2766 -0.1708
   82MOL    C15 9897   5.234   8.408   5.604  0.3205 -0.3307  0.0571
   82MOL   Cl16 9898   5.358   8.320   5.499  0.4896 -0.4983 -0.6277
   82MOL    H17 9899   5.320   8.313   5.773  0.0058 -0.7458  1.0311
   82MOL    H18 9900   5.168   8.385   5.811 -0.0123  0.9536 -1.4580
   82MOL    H19 9901   5.135   8.422   5.561 -0.7729 -1.1357  2.2096
   82MOL    C20 9902   5.295   0.019   5.623  0.3009 -0.7891  0.9343
   82MOL    C21 9903   5.322   0.116   5.499  0.1095  0.4552  0.1028
   82MOL   Cl22 9904   5.406   0.265   5.560  0.3854  0.2170  0.3725
   82MOL    H23 9905   5.394   0.002   5.665  0.3663 -2.7045  0.0432
   82MOL    H24 9906   5.246   0.084   5.695  0.3694 -0.8336  1.0207
   82MOL    H25 9907   5.387   0.060   5.433  0.6413  1.3737 -0.1561
   82MOL    C26 9908   5.192   0.154   5.423 -0.0442 -0.3066 -0.5651
   82MOL    C27 9909   5.223   0.196   5.278 -0.1778 -0.0307 -0.1494
   82MOL   Cl28 9910   5.280   0.052   5.190  0.2592  0.0084  0.0827
   82MOL    H29 9911   5.126   0.225   5.473  0.7598 -0.2483  0.4351
   82MOL    H30 9912   5.125   0.068   5.420  0.4891 -0.7791  0.8002
   82MOL    H31 9913   5.135   0.223   5.220 -0.9167  0.8428  1.3402
   82MOL    C32 9914   5.330   0.306   5.250  0.1105 -0.3686  0.2713
   82MOL    C33 9915   5.295   0.450   5.301  0.1030 -0.4403  0.7492
   82MOL   Cl34 9916   5.133   0.492   5.232  0.3547 -0.1377  0.1590
   82MOL    H35 9917   5.335   0.312   5.142 -1.6801 -0.6669  0.1604
   82MOL    H36 9918   5.428   0.273   5.285  0.1930  0.4004  0.7719
   82MOL    H37 9919   5.297   0.441   5.410  0.0009  0.9887  0.8779
   82MOL    C38 9920   5.400   0.557   5.251 -0.7336 -0.6076 -0.2658
   82MOL    C39 9921   5.510   0.584   5.345 -0.3146 -0.4062  1.1372
   82MOL   Cl40 9922   5.577   0.744   5.312  0.0751 -0.2447 -0.0265
   82MOL    H41 9923   5.352   0.651   5.227 -0.3436 -0.3439 -0.0217
   82MOL    H42 9924   5.437   0.537   5.151  1.9703 -1.3719  0.8477
   82MOL    H43 9925   5.469   0.592   5.446 -0.6758  0.6369  0.9127
   82MOL    C44 9926   5.627   0.482   5.355 -0.3096  0.4169  0.0315
   82MOL    C45 9927   5.757   0.528   5.436  0.1118  0.2968  0.3941
   82MOL   Cl46 9928   5.864   0.392   5.406 -0.2263  0.0511  0.3959
   82MOL    H47 9929   5.668   0.464   5.255  2.8283  1.1119  1.1556
   82MOL    H48 9930   5.593   0.385   5.391  0.0665  0.4039  0.3510
   82MOL    H49 9931   5.806   0.620   5.404 -0.4028  0.1621 -0.8430
   82MOL    C50 9932   5.739   0.544   5.588  0.2374 -0.5520  0.0888
   82MOL    C51 9933   5.787   0.682   5.639  0.6925 -0.1831 -0.0541
   82MOL   Cl52 9934   5.959   0.674   5.670 -0.1682  0.0034 -0.3237
   82MOL    H53 9935   5.793   0.459   5.629 -0.4748 -0.9203  0.2625
   82MOL    H54 9936   5.635   0.527   5.617 -0.0163 -0.6604 -0.8382
   82MOL    H55 9937   5.785   0.763   5.565  2.0174  0.9104  1.0876
   82MOL    C56 9938   5.717   0.737   5.768 -0.4355  0.1518  0.3768
   82MOL    C57 9939   5.749   0.888   5.787 -0.4649 -0.3819  0.4351
   82MOL   Cl58 9940   5.821   0.912   5.952 -0.2493 -0.2755 -0.2689
   82MOL    H59 9941   5.752   0.676   5.851  2.1095  2.2027  0.8815
   82MOL    H60 9942   5.609   0.723   5.760 -0.5879  0.6957  1.3927
   82MOL    H61 9943   5.826   0.902   5.711 -0.9711 -0.8223 -0.1586
   82MOL    C62 9944   5.640   0.982   5.774  0.0546  0.8582 -0.3176
   82MOL    C63 9945   5.560   0.970   5.645  0.7865 -0.3090 -0.5286
   82MOL   Cl64 9946   5.618   1.100   5.532 -0.3263  0.1120 -0.1716
   82MOL    H65 9947   5.662   1.087   5.791  1.4761  0.9501 -2.5326
   82MOL    H66 9948   5.575   0.942   5.852  0.7520 -1.5018 -0.8954
   82MOL    H67 9949   5.575   0.877   5.590  0.3351 -0.2142 -0.8104
   82MOL    C68 9950   5.408   0.980   5.658  0.6078  0.2003  0.1338
   82MOL    C69 9951   5.342   0.863   5.740  0.3536 -0.8278  0.2887
   82MOL   Cl70 9952   5.360   0.712   5.641 -0.4029  0.1532  0.0319
   82MOL    H71 9953   5.369   0.953   5.561  0.2109 -1.6568  0.7870
   82MOL    H72 9954   5.380   1.080   5.692  0.8914  0.0394  0.8684
   82MOL    H73 9955   5.400   0.851   5.832  0.0166 -0.2719  0.5791
   82MOL    C74 9956   5.200   0.887   5.782 -0.5580  0.2806 -0.2324
   82MOL    C75 9957   5.167   1.024   5.836  0.0311 -0.6296  0.2390
   82MOL   Cl76 9958   5.286   1.093   5.957 -0.0392  0.2232  0.2272
   82MOL    H77 9959   5.162   0.806   5.844  0.8969  0.2362  0.6201
   82MOL    H78 9960   5.139   0.879   5.692  0.4757  0.1853 -0.9324
   82MOL    H79 9961   5.152   1.093   5.753 -1.3419 -1.5268 -0.2783
   82MOL    C80 9962   5.029   1.039   5.904  0.7371  0.2853  0.1698
   82MOL    C81 9963   4.917   1.041   5.797 -0.1702 -1.0540  0.3406
   82MOL   Cl82 9964   4.914   1.199   5.724  0.0688  0.1334  0.2489
   82MOL    H83 9965   5.038   1.136   5.954  0.6192  1.1370 -1.3937
   82MOL    H84 9966   5.031   0.952   5.968  1.9743 -0.0722 -0.3416
   82MOL    H85 9967   4.924   0.972   5.713 -0.0426 -0.5273 -0.0785
   82MOL    C86 9968   4.786   1.027   5.879  0.3332  0.1839 -0.0200
   82MOL    C87 9969   4.746   0.888   5.925 -0.3777  0.3491 -0.4465
   82MOL   Cl88 9970   4.690   0.769   5.795  0.2440  0.3187 -0.0901
   82MOL    H89 9971   4.710   1.066   5.811 -0.9986  0.8373  1.8153
   82MOL    H90 9972   4.777   1.098   5.961 -1.2513 -2.6922  2.3793
   82MOL    H91 9973   4.841   0.843   5.955 -1.5457 -0.9305  1.4201
   82MOL    C92 9974   4.640   0.875   6.033 -0.2944  0.2196  0.4423
   82MOL    C93 9975   4.492   0.912   5.998 -0.2064  0.2559 -0.3525
   82MOL   Cl94 9976   4.474   1.092   5.989 -0.2156  0.0814  0.1822
   82MOL    H95 9977   4.666   0.939   6.117  0.5974  0.0028  0.3428
   82MOL    H96 9978   4.639   0.770   6.065 -2.0068 -0.1942 -0.8587
   82MOL    H97 9979   4.473   0.874   5.897  0.3312 -1.3151  0.1264
   82MOL    C98 9980   4.381   0.858   6.091  0.5012 -0.7222 -0.1713
   82MOL    C99 9981   4.235   0.898   6.041 -0.3125  0.5971  0.8941
   82MOL  Cl100 9982   4.128   0.914   6.181  0.4020 -0.1731 -0.1397
   82MOL   H101 9983   4.405   0.909   6.184 -3.5664  1.6404 -0.2787
   82MOL   H102 9984   4.408   0.754   6.105  0.3446 -0.6064  1.0393
   82MOL   H103 9985   4.226   0.994   5.991  0.5068  0.9051  1.3317
   82MOL   C104 9986   4.178   0.780   5.962  0.2108 -0.2964 -0.1771
   82MOL   C105 9987   4.251   0.751   5.825  0.3442  0.0355  0.1335
   82MOL  Cl106 9988   4.247   0.904   5.725  0.1419 -0.2463 -0.0444
   82MOL   H107 9989   4.075   0.808   5.941  0.4242  0.9445  0.3650
   82MOL   H108 9990   4.184   0.689   6.022 -0.2294 -0.3135 -0.1590
   82MOL   H109 9991   4.352   0.717   5.843 -0.0680 -1.2154  0.1174
   82MOL   C110 9992   4.176   0.648   5.744 -0.3513  0.8355  0.2231
   82MOL   C111 9993   4.176   0.512   5.812  0.4174 -0.3042  0.3889
   82MOL  Cl112 9994   4.338   0.452   5.858 -0.0677  0.0185  0.2335
   82MOL   H113 9995   4.218   0.625   5.646 -0.8751  0.3080  0.1196
   82MOL   H114 9996   4.072   0.676   5.728 -0.1168  1.0577 -0.9071
   82MOL   H115 9997   4.124   0.509   5.908  0.1023 -0.5834  0.2110
   82MOL   C116 9998   4.089   0.417   5.727  0.1693  0.2759 -0.3397
   82MOL   C117 9999   4.075   0.268   5.772 -0.6173  0.3939 -0.0654
   82MOL  Cl11810000   4.028   0.260   5.944 -0.3852  0.1336 -0.0420
   82MOL   H11910001   4.137   0.419   5.629 -1.6715 -0.2854 -1.2779
   82MOL   H12010002   3.991   0.462   5.714  0.3326  0.5575 -0.5799
   82MOL   H12110003   4.010   0.203   5.714  0.9424 -3.9388  2.8294
   82MOL   H12210004   4.175   0.225   5.764 -0.5381  0.5995 -0.2061
   83MOL     C110005   7.548   6.085   3.241 -0.7170 -0.0779 -0.0247
   83MOL     C210006   7.460   6.104   3.116 -0.0394  0.3329  0.6511
   83MOL    Cl310007   7.572   6.088   2.976 -0.1422 -0.1996 -0.2742
   83MOL     H410008   7.613   5.999   3.228  0.9104  0.8446  1.6388
   83MOL     H510009   7.615   6.166   3.272  0.1065 -1.1231  0.9916
   83MOL     H610010   7.390   6.020   3.111 -1.8691  1.8296  0.4646
   83MOL     H710011   7.492   6.058   3.331  0.8538  1.8019  1.5811
   83MOL     C810012   7.390   6.241   3.099  0.7957  0.0409  0.8291
   83MOL     C910013   7.285   6.263   3.208  0.4280  0.1855 -0.3357
   83MOL   Cl1010014   7.151   6.147   3.198  0.5057 -0.1403 -0.0107
   83MOL    H1110015   7.333   6.245   3.007  1.4289  1.1641  0.4747
   83MOL    H1210016   7.468   6.315   3.083 -0.6912  1.5604  0.5224
   83MOL    H1310017   7.329   6.245   3.306 -0.0581 -0.9948 -0.3182
   83MOL    C1410018   7.223   6.396   3.205  0.0997  0.3858  0.1170
   83MOL    C1510019   7.316   6.504   3.249  0.4259 -0.4217  0.7384
   83MOL   Cl1610020   7.327   6.486   3.426  0.1188 -0.3126 -0.0452
   83MOL    H1710021   7.132   6.410   3.263  0.3926  0.8977  0.4506
   83MOL    H1810022   7.184   6.422   3.107 -0.1160  3.0908  0.8855
   83MOL    H1910023   7.415   6.497   3.206  0.5941  0.4595  0.9818
   83MOL    C2010024   7.264   6.641   3.218  0.1644  0.1047 -0.3610
   83MOL    C2110025   7.329   6.759   3.284 -0.3882 -0.0670  0.6489
   83MOL   Cl2210026   7.240   6.913   3.257  0.4998  0.1694 -0.2892
   83MOL    H2310027   7.161   6.633   3.253  0.0157  0.9760 -0.6028
   83MOL    H2410028   7.246   6.655   3.112 -0.3316  0.2429 -0.2593
   83MOL    H2510029   7.326   6.752   3.393 -0.8604  1.6211  0.7623
   83MOL    C2610030   7.464   6.800   3.224  0.9598 -0.2473 -0.4254
   83MOL    C2710031   7.555   6.886   3.307 -0.6900 -0.1597 -0.3592
   83MOL   Cl2810032   7.696   6.933   3.210 -0.3567 -0.2689 -0.4958
   83MOL    H2910033   7.446   6.839   3.124  1.0184 -0.3004 -0.4567
   83MOL    H3010034   7.518   6.705   3.217  2.6109  0.8310 -3.3046
   83MOL    H3110035   7.494   6.975   3.323  0.5696  0.9041 -1.4012
   83MOL    C3210036   7.612   6.828   3.436  0.1625  0.4313 -0.2607
   83MOL    C3310037   7.552   6.868   3.571  0.1390 -0.5513 -0.0853
   83MOL   Cl3410038   7.569   7.042   3.581 -0.1863 -0.0939 -0.3053
   83MOL    H3510039   7.721   6.833   3.425  0.1046  0.3458 -0.9284
   83MOL    H3610040   7.595   6.721   3.424  1.2570  0.1985  0.1531
   83MOL    H3710041   7.446   6.842   3.576  0.0645 -0.1971  0.2793
   83MOL    C3810042   7.625   6.801   3.689 -1.0737  0.5548 -0.0843
   83MOL    C3910043   7.587   6.654   3.716 -0.4543 -0.2181  0.1921
   83MOL   Cl4010044   7.428   6.657   3.796  0.0538  0.1994 -0.0440
   83MOL    H4110045   7.621   6.856   3.783  2.1006  1.8031 -0.6323
   83MOL    H4210046   7.731   6.809   3.666 -1.6300 -0.4500 -3.2562
   83MOL    H4310047   7.564   6.599   3.624  2.2964  1.6951 -1.7250
   83MOL    C4410048   7.681   6.586   3.817 -0.0544 -0.7086  0.2341
   83MOL    C4510049   7.647   6.433   3.830  0.1954 -0.1480 -0.9229
   83MOL   Cl4610050   7.766   6.376   3.950  0.0044 -0.2774 -0.1399
   83MOL    H4710051   7.663   6.630   3.915  0.4771  2.2208 -0.9417
   83MOL    H4810052   7.785   6.595   3.788 -0.0909  3.1713  1.0726
   83MOL    H4910053   7.548   6.426   3.875  0.5574 -0.6728 -0.2011
   83MOL    C5010054   7.660   6.339   3.712 -0.2648 -0.3086 -0.2297
   83MOL    C5110055   7.622   6.197   3.738  0.3523  0.2249 -0.1328
   83MOL   Cl5210056   7.741   6.104   3.659 -0.1030 -0.1245  0.1408
   83MOL    H5310057   7.764   6.348   3.683 -0.0870  1.7552  0.9502
   83MOL    H5410058   7.620   6.376   3.617 -0.6228  0.9445  0.4001
   83MOL    H5510059   7.647   6.176   3.842  0.6293  4.1270  0.6578
   83MOL    C5610060   7.480   6.144   3.686 -0.4169 -0.1610 -0.2156
   83MOL    C5710061   7.359   6.205   3.757 -0.7139  0.4107 -0.5500
   83MOL   Cl5810062   7.379   6.204   3.937 -0.0690 -0.3524 -0.3791
   83MOL    H5910063   7.477   6.036   3.697  0.3465 -0.2117 -0.5106
   83MOL    H6010064   7.478   6.176   3.582 -1.4350 -0.4028 -0.2749
   83MOL    H6110065   7.346   6.303   3.711 -0.9357 -0.4993 -2.4562
   83MOL    C6210066   7.233   6.118   3.733 -0.2694  0.9445  0.0535
   83MOL    C6310067   7.171   6.116   3.594  0.5708 -0.1358 -0.2066
   83MOL   Cl6410068   7.068   6.264   3.573 -0.1143 -0.2134 -0.0939
   83MOL    H6510069   7.159   6.133   3.812  1.7468 -1.6704  2.5470
   83MOL    H6610070   7.259   6.014   3.750 -1.0350  0.6536 -0.4941
   83MOL    H6710071   7.252   6.122   3.521  1.7949  1.2745  1.1906
   83MOL    C6810072   7.084   5.998   3.561  0.0580  0.3361  0.1317
   83MOL    C6910073   7.154   5.859   3.561  0.2385  0.0728  0.2770
   83MOL   Cl7010074   7.293   5.863   3.450  0.1888 -0.1285  0.0320
   83MOL    H7110075   7.044   6.016   3.461 -3.5386  0.2667  1.4751
   83MOL    H7210076   6.995   5.994   3.624  0.9347 -0.1970  1.3420
   83MOL    H7310077   7.188   5.819   3.657 -2.8372  1.7401  2.1484
   83MOL    C7410078   7.056   5.752   3.505 -0.0246  0.0639  0.8903
   83MOL    C7510079   6.924   5.714   3.589  1.0998 -0.4207  0.6477
   83MOL   Cl7610080   6.969   5.642   3.743  0.1108  0.2088  0.0242
   83MOL    H7710081   7.119   5.665   3.491 -0.8889 -0.4148 -0.0902
   83MOL    H7810082   7.030   5.780   3.403  3.6862  0.1958 -0.0842
   83MOL    H7910083   6.872   5.804   3.621  1.9365  0.7207 -1.1669
   83MOL    C8010084   6.834   5.619   3.509 -0.0559  0.3943  0.0043
   83MOL    C8110085   6.764   5.682   3.383  0.0846 -0.3518 -0.0576
   83MOL   Cl8210086   6.629   5.787   3.434  0.0146  0.0433  0.2794
   83MOL    H8310087   6.768   5.556   3.568  1.6421 -2.8750 -1.4414
   83MOL    H8410088   6.898   5.548   3.455  0.3953  0.0991  0.9185
   83MOL    H8510089   6.836   5.748   3.336  0.9349 -0.5361  0.9849
   83MOL    C8610090   6.711   5.571   3.288 -0.1984  0.5750  0.4422
   83MOL    C8710091   6.668   5.623   3.143  0.7127  0.9143 -0.7277
   83MOL   Cl8810092   6.580   5.480   3.074  0.2112  0.3257 -0.0913
   83MOL    H8910093   6.625   5.526   3.337 -0.3259 -0.9423 -1.1356
   83MOL    H9010094   6.779   5.486   3.282 -1.5749 -0.6416  1.7614
   83MOL    H9110095   6.598   5.706   3.147 -1.0376 -0.5433 -0.4403
   83MOL    C9210096   6.782   5.646   3.048 -0.7030  0.0227 -0.6116
   83MOL    C9310097   6.847   5.781   3.045 -0.0206 -0.2383  0.0651
   83MOL   Cl9410098   6.728   5.904   3.013 -0.1773  0.2865  0.0919
   83MOL    H9510099   6.754   5.624   2.945  0.2362 -1.7619 -0.5159
   83MOL    H9610100   6.858   5.569   3.060 -1.5250 -0.6158  0.6298
   83MOL    H9710101   6.887   5.806   3.143 -0.2761  2.7192 -0.5220
   83MOL    C9810102   6.974   5.805   2.964  0.4109  0.1817  0.0249
   83MOL    C9910103   7.090   5.700   2.979  0.5318 -0.4330  0.1716
   83MOL  Cl10010104   7.138   5.670   3.146 -0.1506  0.5909 -0.0229
   83MOL   H10110105   7.005   5.908   2.980  1.7498  0.1792 -2.3808
   83MOL   H10210106   6.947   5.806   2.858 -0.7280 -0.3916  0.3035
   83MOL   H10310107   7.051   5.608   2.935  2.5221 -0.5608 -1.3976
   83MOL   C10410108   7.214   5.750   2.905 -0.2566 -0.4456  0.3242
   83MOL   C10510109   7.219   5.747   2.746  0.0770 -0.0232 -0.5973
   83MOL  Cl10610110   7.262   5.582   2.704  0.0952 -0.4915  0.5901
   83MOL   H10710111   7.300   5.690   2.935  0.3832 -0.9564 -2.3827
   83MOL   H10810112   7.242   5.844   2.952  0.3442 -1.1601  1.4136
   83MOL   H10910113   7.124   5.765   2.696 -0.9998 -0.6731  1.1548
   83MOL   C11010114   7.327   5.842   2.688 -0.4271 -0.2344 -0.2946
   83MOL   C11110115   7.306   5.992   2.696  0.1446  0.4257 -0.6904
   83MOL  Cl11210116   7.171   6.031   2.588 -0.1383  0.5212 -0.3458
   83MOL   H11310117   7.359   5.821   2.586 -0.9543 -1.1621 -0.2792
   83MOL   H11410118   7.416   5.830   2.750  1.2819 -0.6706 -2.7802
   83MOL   H11510119   7.281   6.028   2.796 -0.8679  1.6559 -1.3655
   83MOL   C11610120   7.430   6.079   2.656 -0.5342  0.1711 -0.2532
   83MOL   C11710121   7.411   6.231   2.640 -0.0339  0.0123 -0.1521
   83MOL  Cl11810122   7.556   6.296   2.558  0.3043 -0.1696 -0.0546
   83MOL   H11910123   7.462   6.034   2.562 -0.8060 -0.4062 -0.0741
   83MOL   H12010124   7.515   6.059   2.720 -1.6138 -0.1356  1.1025
   83MOL   H12110125   7.330   6.261   2.573  0.6584 -1.0533 -1.4834
   83MOL   H12210126   7.397   6.283   2.735  0.9851 -0.7828  0.4443
   84MOL     C110127   2.457   5.441   6.413  0.2961 -0.1344  0.1475
   84MOL     C210128   2.496   5.554   6.514 -0.0240 -0.0147  0.1522
   84MOL    Cl310129   2.342   5.644   6.545  0.0859 -0.5361  0.2654
   84MOL     H410130   2.546   5.380   6.402 -1.2240 -2.2252 -0.8950
   84MOL     H510131   2.380   5.373   6.450 -0.0586  0.6321  0.8347
   84MOL     H610132   2.537   5.514   6.606  0.3303 -0.2632 -0.1109
   84MOL     H710133   2.421   5.479   6.317 -1.4320  0.2889  0.9453
   84MOL     C810134   2.600   5.645   6.444 -0.2271 -0.8712 -0.3809
   84MOL     C910135   2.691   5.753   6.531 -0.1386  0.0791 -0.2998
   84MOL   Cl1010136   2.584   5.879   6.581  0.0287 -0.0776 -0.2271
   84MOL    H1110137   2.545   5.698   6.366 -0.7835 -2.0523 -0.8018
   84MOL    H1210138   2.659   5.580   6.379  0.3430 -0.2370 -0.5083
   84MOL    H1310139   2.728   5.705   6.622  0.2118  1.6166  0.3805
   84MOL    C1410140   2.809   5.813   6.452  1.0617  0.2071 -0.3384
   84MOL    C1510141   2.927   5.715   6.428 -0.5223  0.0507  0.1063
   84MOL   Cl1610142   3.006   5.685   6.583  0.0900  0.1324 -0.0038
   84MOL    H1710143   2.837   5.909   6.496 -0.4525  0.1962  0.6943
   84MOL    H1810144   2.773   5.843   6.353 -0.1704  0.6754  0.2416
   84MOL    H1910145   2.899   5.615   6.395  1.2544 -1.7937  3.8415
   84MOL    C2010146   3.033   5.772   6.330 -0.7272  0.7706  0.2771
   84MOL    C2110147   3.009   5.756   6.180  0.1046  0.1850 -1.0489
   84MOL   Cl2210148   3.057   5.585   6.145 -0.1720 -0.0206  0.1786
   84MOL    H2310149   3.123   5.716   6.356 -0.5502  0.7456 -0.3572
   84MOL    H2410150   3.051   5.874   6.362  0.2555  0.0851  1.9402
   84MOL    H2510151   2.902   5.760   6.160  0.5309 -0.1582 -3.6253
   84MOL    C2610152   3.080   5.841   6.074 -0.0572  0.4680 -1.1771
   84MOL    C2710153   2.995   5.865   5.945 -0.7263  0.2990 -0.0122
   84MOL   Cl2810154   3.011   5.721   5.841  0.0761 -0.0672 -0.1104
   84MOL    H2910155   3.171   5.807   6.024 -0.3184 -0.7152 -0.8554
   84MOL    H3010156   3.101   5.935   6.124  1.9914  0.9416 -2.8608
   84MOL    H3110157   2.888   5.868   5.965 -1.1530  0.2232 -2.2337
   84MOL    C3210158   3.057   5.984   5.864  0.0109  0.4168 -0.2806
   84MOL    C3310159   3.039   6.121   5.926 -0.8945  0.0046  0.0160
   84MOL   Cl3410160   2.869   6.159   5.962  0.1469  0.0260 -0.1392
   84MOL    H3510161   3.021   5.968   5.762 -0.1308 -1.6823  0.0810
   84MOL    H3610162   3.160   5.964   5.834  0.9347  2.7814  1.2404
   84MOL    H3710163   3.083   6.115   6.025 -1.9544 -2.3900  0.3868
   84MOL    C3810164   3.095   6.237   5.847  0.1748 -0.6257 -0.4094
   84MOL    C3910165   3.252   6.249   5.828  0.2263 -0.5351 -0.6445
   84MOL   Cl4010166   3.332   6.234   5.990 -0.1565  0.0308 -0.1583
   84MOL    H4110167   3.074   6.330   5.899 -0.5814 -0.3121 -1.2629
   84MOL    H4210168   3.049   6.253   5.749 -3.1648 -0.5305  1.1419
   84MOL    H4310169   3.280   6.169   5.759  1.4602 -0.4396 -0.2608
   84MOL    C4410170   3.304   6.371   5.758 -0.6893  0.1254  0.9032
   84MOL    C4510171   3.276   6.378   5.607 -0.0972  1.2111  0.3387
   84MOL   Cl4610172   3.361   6.247   5.521  0.0904  0.0548 -0.0376
   84MOL    H4710173   3.411   6.377   5.773 -0.5254  2.0917 -0.7216
   84MOL    H4810174   3.252   6.459   5.796 -0.2715  1.2252 -0.9914
   84MOL    H4910175   3.172   6.349   5.594  0.5528 -0.5832 -1.0534
   84MOL    C5010176   3.321   6.510   5.546 -0.5626 -0.4156  0.4618
   84MOL    C5110177   3.215   6.625   5.572  0.1101  0.0509 -0.5583
   84MOL   Cl5210178   3.052   6.580   5.506 -0.1774 -0.3807 -0.2427
   84MOL    H5310179   3.329   6.515   5.437  1.0041  0.0153  0.5835
   84MOL    H5410180   3.417   6.545   5.584  0.0355 -0.4132 -0.9800
   84MOL    H5510181   3.197   6.631   5.679  1.7231 -0.2614 -0.2589
   84MOL    C5610182   3.256   6.759   5.510  1.0577  0.6758 -0.3515
   84MOL    C5710183   3.383   6.827   5.564  1.0000 -0.1320  0.0990
   84MOL   Cl5810184   3.338   6.901   5.723 -0.5234  0.3200 -0.0910
   84MOL    H5910185   3.173   6.825   5.532  0.0460 -1.0701  1.1587
   84MOL    H6010186   3.264   6.765   5.401  0.6437  0.0318 -0.4165
   84MOL    H6110187   3.459   6.752   5.586 -0.5332 -1.1482  2.0507
   84MOL    C6210188   3.444   6.923   5.458  0.6709 -0.3012  0.5909
   84MOL    C6310189   3.557   7.019   5.520  0.1889  0.3360 -0.3536
   84MOL   Cl6410190   3.610   7.126   5.393 -0.2670  0.1932 -0.1893
   84MOL    H6510191   3.366   6.989   5.418  1.7326 -0.2457 -1.4807
   84MOL    H6610192   3.484   6.865   5.374  1.7248  0.4324  0.5820
   84MOL    H6710193   3.510   7.082   5.596 -1.0057  0.5758 -1.2835
   84MOL    C6810194   3.681   6.946   5.579 -0.6290 -0.1966  0.3511
   84MOL    C6910195   3.794   7.030   5.637  0.1345  0.1615 -0.5182
   84MOL   Cl7010196   3.901   7.099   5.518  0.0594 -0.1398  0.0521
   84MOL    H7110197   3.714   6.879   5.499  1.2400 -0.0250  0.9549
   84MOL    H7210198   3.645   6.883   5.660  1.1884 -0.6024  0.8624
   84MOL    H7310199   3.743   7.111   5.690 -1.6787 -2.3240  1.7080
   84MOL    C7410200   3.881   6.955   5.749  0.2116  0.0095 -0.1031
   84MOL    C7510201   3.982   7.058   5.811 -0.0763 -0.1534  0.1478
   84MOL   Cl7610202   4.105   6.958   5.904  0.0045 -0.0622 -0.1170
   84MOL    H7710203   3.932   6.876   5.694  0.5876 -0.5113  0.9695
   84MOL    H7810204   3.818   6.919   5.831 -0.1308  0.5535 -0.1204
   84MOL    H7910205   4.047   7.103   5.736  1.4354  0.2010  1.6333
   84MOL    C8010206   3.929   7.163   5.918 -1.0878  0.3257 -0.2755
   84MOL    C8110207   3.883   7.293   5.864  0.1166 -0.8125 -0.1611
   84MOL   Cl8210208   4.009   7.361   5.760  0.1762  0.5562  0.0430
   84MOL    H8310209   4.006   7.187   5.992  1.9725 -2.2389 -2.4630
   84MOL    H8410210   3.860   7.113   5.986 -1.1020 -1.0616 -1.2736
   84MOL    H8510211   3.794   7.272   5.805 -0.1902  0.4492 -0.1641
   84MOL    C8610212   3.850   7.398   5.972  0.2287  0.5785 -0.2654
   84MOL    C8710213   3.734   7.366   6.062  0.4664  0.1917 -0.6493
   84MOL   Cl8810214   3.589   7.382   5.971  0.1343 -0.1733 -0.4071
   84MOL    H8910215   3.833   7.497   5.930  0.1214  0.7416  0.1607
   84MOL    H9010216   3.946   7.420   6.020  0.2306  0.3482 -0.1662
   84MOL    H9110217   3.745   7.261   6.089 -0.4300 -0.5552 -3.0197
   84MOL    C9210218   3.743   7.459   6.185 -0.6735 -0.0118 -0.2576
   84MOL    C9310219   3.867   7.431   6.282  0.9352 -0.9148  0.2682
   84MOL   Cl9410220   3.877   7.262   6.334  0.0437  0.0663  0.1222
   84MOL    H9510221   3.650   7.459   6.242 -1.4791 -0.2356 -1.5401
   84MOL    H9610222   3.751   7.562   6.149 -0.7984  0.1282  0.1176
   84MOL    H9710223   3.960   7.454   6.228  0.1552  3.3894  0.5394
   84MOL    C9810224   3.873   7.520   6.403  0.8974  0.4264 -0.2391
   84MOL    C9910225   3.921   7.663   6.385 -0.3255  0.3670 -0.9778
   84MOL  Cl10010226   4.085   7.662   6.318 -0.0123 -0.2010 -0.3825
   84MOL   H10110227   3.936   7.468   6.475 -1.9891 -1.2048  1.2075
   84MOL   H10210228   3.776   7.523   6.454  0.4053 -1.5697 -1.0163
   84MOL   H10310229   3.860   7.708   6.306 -0.3656 -0.7787 -1.6108
   84MOL   C10410230   3.917   7.765   6.504  0.5489  0.2928 -0.0181
   84MOL   C10510231   3.786   7.835   6.538  0.0910  0.4933 -0.0556
   84MOL  Cl10610232   3.817   7.959   6.665  0.2183  0.2502  0.4072
   84MOL   H10710233   3.992   7.842   6.488  2.5277 -0.7924  3.4284
   84MOL   H10810234   3.956   7.704   6.586  3.2541 -0.4363 -1.8094
   84MOL   H10910235   3.764   7.893   6.448  1.4871  0.3802 -0.4765
   84MOL   C11010236   3.665   7.738   6.588 -0.8665  0.5999  0.7065
   84MOL   C11110237   3.530   7.804   6.625 -0.6129  0.0010 -0.2467
   84MOL  Cl11210238   3.426   7.694   6.724  0.1387  0.2164 -0.0829
   84MOL   H11310239   3.709   7.688   6.675  1.5212  1.6037  0.1255
   84MOL   H11410240   3.640   7.667   6.509 -1.1024  2.4077 -0.8816
   84MOL   H11510241   3.557   7.882   6.695 -0.5551 -1.0591  0.9252
   84MOL   C11610242   3.451   7.846   6.499 -0.2795 -0.2141  0.8631
   84MOL   C11710243   3.318   7.900   6.529  0.3199 -0.4142 -0.3830
   84MOL  Cl11810244   3.274   8.011   6.400  0.3118 -0.0019 -0.1380
   84MOL   H11910245   3.443   7.767   6.425  0.2956 -0.0330  0.6022
   84MOL   H12010246   3.509   7.922   6.448 -0.6365 -1.2338 -1.1031
   84MOL   H12110247   3.238   7.826   6.531 -0.5564  0.5106 -0.4772
   84MOL   H12210248   3.320   7.960   6.620  1.3374 -0.4544 -0.3738
   85MOL     C110249   6.802   4.702   6.529  0.8656  0.3547  0.0038
   85MOL     C210250   6.854   4.596   6.434 -0.6355 -0.1075  0.5692
   85MOL    Cl310251   7.037   4.604   6.439 -0.0131  0.0140 -0.1110
   85MOL     H410252   6.821   4.797   6.480 -0.1798  0.6057  0.0674
   85MOL     H510253   6.694   4.696   6.548  0.7429  1.7762 -0.2114
   85MOL     H610254   6.816   4.500   6.470  0.5588 -0.8788 -0.1632
   85MOL     H710255   6.858   4.715   6.621  1.2913  1.1110 -0.3602
   85MOL     C810256   6.813   4.622   6.284  0.6178  0.1612  0.0287
   85MOL     C910257   6.842   4.513   6.186  0.3169  0.1945  0.4370
   85MOL   Cl1010258   6.771   4.570   6.030  0.2338  0.2813  0.0175
   85MOL    H1110259   6.851   4.718   6.250  0.0626 -0.0677 -1.2772
   85MOL    H1210260   6.706   4.644   6.289  0.9307  1.7166  0.0209
   85MOL    H1310261   6.950   4.522   6.175  0.0385  1.5037 -1.3480
   85MOL    C1410262   6.804   4.370   6.221  0.2832  0.3573 -0.0423
   85MOL    C1510263   6.652   4.338   6.261 -0.4234 -0.0986  0.0794
   85MOL   Cl1610264   6.631   4.327   6.444 -0.0318 -0.0167  0.3049
   85MOL    H1710265   6.869   4.336   6.301  0.7211  1.2043 -0.0314
   85MOL    H1810266   6.829   4.307   6.135 -1.1737 -0.5002  0.1523
   85MOL    H1910267   6.591   4.419   6.223  1.3300  1.6942  0.9691
   85MOL    C2010268   6.606   4.211   6.197  0.3046  0.1073  0.2987
   85MOL    C2110269   6.593   4.205   6.043 -0.0427 -0.5587 -0.5331
   85MOL   Cl2210270   6.516   4.350   5.983  0.2879  0.0876 -0.2044
   85MOL    H2310271   6.512   4.181   6.244  0.9937 -0.8257  1.0868
   85MOL    H2410272   6.673   4.130   6.224  0.8965  0.3905 -0.3269
   85MOL    H2510273   6.690   4.184   5.997 -1.0752 -1.7682 -2.1804
   85MOL    C2610274   6.505   4.093   5.986 -0.2143  0.1731  0.2992
   85MOL    C2710275   6.560   3.950   6.007 -0.2524 -0.1745 -0.2134
   85MOL   Cl2810276   6.684   3.937   5.876  1.0309  0.1229 -0.3542
   85MOL    H2910277   6.489   4.109   5.880  1.5472 -2.3905 -0.3907
   85MOL    H3010278   6.410   4.101   6.038  0.2092 -0.2113  1.1637
   85MOL    H3110279   6.594   3.928   6.108 -3.6192  0.5381  1.1118
   85MOL    C3210280   6.454   3.838   5.982 -0.6509 -0.1535 -0.1062
   85MOL    C3310281   6.507   3.689   6.000  0.4261 -0.5236  0.6938
   85MOL   Cl3410282   6.560   3.640   5.835 -0.1434 -0.0183  0.2969
   85MOL    H3510283   6.409   3.846   5.883 -0.9020  1.3600  0.1276
   85MOL    H3610284   6.369   3.853   6.049 -0.6229  0.7940 -0.2747
   85MOL    H3710285   6.593   3.698   6.067  0.1279 -1.3157  1.1863
   85MOL    C3810286   6.394   3.590   6.043  0.3714 -0.1094 -0.0959
   85MOL    C3910287   6.383   3.568   6.195 -0.0150 -0.2352  0.1784
   85MOL   Cl4010288   6.545   3.499   6.250 -0.3516 -0.4251 -0.0396
   85MOL    H4110289   6.434   3.497   6.004  0.7787 -0.4418  1.1128
   85MOL    H4210290   6.295   3.591   5.996  1.3408 -0.7539 -2.2270
   85MOL    H4310291   6.366   3.665   6.242  2.0609  1.5511 -2.6036
   85MOL    C4410292   6.277   3.462   6.234  0.3499  0.1111  0.6026
   85MOL    C4510293   6.129   3.521   6.240  0.3589 -0.0979  0.3409
   85MOL   Cl4610294   6.118   3.641   6.373 -0.4498  0.1985 -0.2566
   85MOL    H4710295   6.294   3.416   6.331 -2.0292 -1.0754  0.5240
   85MOL    H4810296   6.298   3.381   6.163  0.0819 -0.9788  1.7391
   85MOL    H4910297   6.110   3.578   6.149 -1.7761 -1.3810 -0.0523
   85MOL    C5010298   6.029   3.404   6.243 -0.7564  0.0511  0.9054
   85MOL    C5110299   5.880   3.427   6.209  0.7809  0.3014  0.0790
   85MOL   Cl5210300   5.862   3.495   6.047  0.2299  0.1729 -0.0774
   85MOL    H5310301   6.039   3.353   6.338 -0.2511 -1.3607  0.1070
   85MOL    H5410302   6.064   3.326   6.175 -2.1606 -0.3505  0.6450
   85MOL    H5510303   5.833   3.329   6.204  0.7136  0.3080  0.5812
   85MOL    C5610304   5.796   3.521   6.302  0.4808  0.6021  0.5289
   85MOL    C5710305   5.769   3.472   6.447  0.5352 -0.1148  0.1448
   85MOL   Cl5810306   5.642   3.349   6.445 -0.5571  0.0245  0.1899
   85MOL    H5910307   5.703   3.537   6.247 -0.3459 -1.5679  1.2449
   85MOL    H6010308   5.841   3.618   6.286  0.4321  0.6612  0.7508
   85MOL    H6110309   5.857   3.422   6.487  1.8831  1.9182 -0.2138
   85MOL    C6210310   5.725   3.589   6.538  0.5240  0.2400 -0.1554
   85MOL    C6310311   5.686   3.556   6.682 -0.1673 -0.4756 -0.1971
   85MOL   Cl6410312   5.586   3.684   6.758  0.2319 -0.0286  0.0040
   85MOL    H6510313   5.643   3.644   6.491  0.5130  0.6728  0.3700
   85MOL    H6610314   5.814   3.652   6.531 -1.0275  2.5364  0.0669
   85MOL    H6710315   5.618   3.470   6.685  0.3958 -0.9536 -1.0728
   85MOL    C6810316   5.813   3.549   6.769 -0.1583  0.7271 -0.4529
   85MOL    C6910317   5.780   3.510   6.916 -0.1934  0.2005  0.5113
   85MOL   Cl7010318   5.937   3.531   7.002  0.1305  0.0844 -0.3284
   85MOL    H7110319   5.870   3.641   6.769 -0.0638  0.6685 -0.6914
   85MOL    H7210320   5.879   3.477   6.721  0.4950  1.1064 -0.1185
   85MOL    H7310321   5.721   3.594   6.951 -0.4918  0.3899 -0.4551
   85MOL    C7410322   5.731   3.362   6.934 -0.2601 -0.0468 -1.1478
   85MOL    C7510323   5.743   3.311   7.080 -0.2074 -0.3523  0.6652
   85MOL   Cl7610324   5.683   3.148   7.099 -0.2376 -0.5291 -0.1008
   85MOL    H7710325   5.764   3.293   6.857  2.1535 -0.0874 -0.1285
   85MOL    H7810326   5.626   3.370   6.908 -0.1606  1.2557 -1.1794
   85MOL    H7910327   5.844   3.302   7.122 -0.3479 -0.2193  1.0345
   85MOL    C8010328   5.658   3.402   7.177 -0.4263  0.5449 -0.5424
   85MOL    C8110329   5.722   3.404   7.320 -0.1119 -0.3555 -0.4404
   85MOL   Cl8210330   5.685   3.250   7.401 -0.0758  0.3530 -0.0463
   85MOL    H8310331   5.551   3.386   7.184 -0.3398  0.4463  0.6232
   85MOL    H8410332   5.677   3.505   7.146  1.6736  0.0909 -0.9060
   85MOL    H8510333   5.830   3.419   7.310 -0.0062 -1.2163 -0.6580
   85MOL    C8610334   5.650   3.511   7.401 -0.3792  0.4238  0.1803
   85MOL    C8710335   5.736   3.569   7.513  0.0786 -0.2025  0.0264
   85MOL   Cl8810336   5.616   3.665   7.601 -0.3428 -0.1657  0.0437
   85MOL    H8910337   5.546   3.482   7.415 -0.3496  0.8679  1.3585
   85MOL    H9010338   5.628   3.598   7.339  0.4603  0.6895  0.2494
   85MOL    H9110339   5.758   3.497   7.592 -1.1857 -1.8011 -1.0370
   85MOL    C9210340   5.850   3.670   7.474  0.7710  1.0590 -0.2333
   85MOL    C9310341   5.959   3.703   7.571  0.0171 -0.2252 -0.2702
   85MOL   Cl9410342   5.893   3.808   7.701  0.2642  0.0329 -0.1528
   85MOL    H9510343   5.793   3.756   7.440 -1.6501 -0.5267 -0.3248
   85MOL    H9610344   5.898   3.623   7.388 -1.6825 -0.9536 -0.5656
   85MOL    H9710345   5.995   3.611   7.620 -1.2046 -1.2015 -1.1841
   85MOL    C9810346   6.080   3.772   7.513 -0.8485  0.4056 -0.0330
   85MOL    C9910347   6.167   3.685   7.421  0.2146  0.1372  0.7317
   85MOL  Cl10010348   6.222   3.541   7.504 -0.0655 -0.4896  0.1874
   85MOL   H10110349   6.148   3.805   7.591 -0.5397  0.0498 -0.1515
   85MOL   H10210350   6.050   3.861   7.457  2.6155  1.2197 -0.6854
   85MOL   H10310351   6.103   3.648   7.341  0.9458  0.3362  0.0553
   85MOL   C10410352   6.294   3.759   7.355 -0.2148 -0.4226  0.0071
   85MOL   C10510353   6.273   3.877   7.254  0.6195  0.2650  0.1631
   85MOL  Cl10610354   6.216   3.804   7.102  0.1155 -0.1760 -0.3664
   85MOL   H10710355   6.361   3.684   7.312  1.0434  0.6926 -0.0217
   85MOL   H10810356   6.352   3.794   7.440 -0.2352 -1.2848  0.3866
   85MOL   H10910357   6.196   3.937   7.301 -0.8057 -0.4760 -1.1890
   85MOL   C11010358   6.410   3.945   7.228  0.8088  0.3707  0.6677
   85MOL   C11110359   6.411   4.070   7.140  0.1946 -0.4252  0.4568
   85MOL  Cl11210360   6.583   4.100   7.101 -0.0397 -0.0339 -0.0888
   85MOL   H11310361   6.469   3.871   7.175  0.4738  2.3919 -2.6931
   85MOL   H11410362   6.456   3.966   7.324 -1.0357 -1.5895  2.0181
   85MOL   H11510363   6.355   4.051   7.048 -1.5575  1.9469  1.0048
   85MOL   C11610364   6.349   4.191   7.215  0.4202 -0.2795 -0.4191
   85MOL   C11710365   6.349   4.320   7.130 -0.6157  0.4111 -0.5887
   85MOL  Cl11810366   6.227   4.287   7.001 -0.1387  0.4603  0.2223
   85MOL   H11910367   6.406   4.204   7.306 -0.7201  1.7814  0.0324
   85MOL   H12010368   6.249   4.182   7.257  1.5362 -1.4429  2.0598
   85MOL   H12110369   6.315   4.413   7.176 -1.3458  0.5312 -1.3483
   85MOL   H12210370   6.449   4.338   7.091 -0.3380  1.3935  0.5307
   86MOL     C110371   2.274   6.664   0.728 -0.5823  0.0317 -0.6325
   86MOL     C210372   2.373   6.695   0.614  0.4974  0.8256 -0.2559
   86MOL    Cl310373   2.385   6.879   0.595 -0.2141 -0.0046 -0.0571
   86MOL     H410374   2.300   6.727   0.813 -0.0222 -0.7485 -0.2181
   86MOL     H510375   2.169   6.683   0.706 -1.0175 -0.5109  0.8779
   86MOL     H610376   2.471   6.654   0.638  0.5812  0.4120 -1.2693
   86MOL     H710377   2.284   6.562   0.765  0.3969  0.6530  0.8955
   86MOL     C810378   2.315   6.638   0.482  0.6395 -0.3233 -0.0290
   86MOL     C910379   2.294   6.494   0.471  0.1326  0.1133 -0.0509
   86MOL   Cl1010380   2.443   6.406   0.445 -0.1833  0.0128 -0.2580
   86MOL    H1110381   2.377   6.677   0.401 -0.9903 -0.6603 -1.4772
   86MOL    H1210382   2.219   6.688   0.469 -0.2696 -1.5627  1.7127
   86MOL    H1310383   2.251   6.450   0.561 -0.3424 -0.3338 -0.4881
   86MOL    C1410384   2.200   6.455   0.356 -0.5513 -0.0501  0.0451
   86MOL    C1510385   2.053   6.487   0.391  0.0307  0.5361  0.2935
   86MOL   Cl1610386   1.991   6.447   0.554  0.2260 -0.1374 -0.0416
   86MOL    H1710387   2.214   6.351   0.325  1.4084 -0.2973  1.6138
   86MOL    H1810388   2.223   6.499   0.259 -0.6055  0.3592  0.2174
   86MOL    H1910389   2.035   6.592   0.370 -2.4737  0.3100  1.1827
   86MOL    C2010390   1.965   6.416   0.298 -0.2919  0.3955 -0.3966
   86MOL    C2110391   1.963   6.451   0.149 -0.3507  0.6321  0.4710
   86MOL   Cl2210392   1.878   6.606   0.133 -0.4298 -0.2820  0.3622
   86MOL    H2310393   1.862   6.435   0.330  0.2096  0.2541  1.3310
   86MOL    H2410394   1.976   6.308   0.303 -0.9694  0.3344 -0.1791
   86MOL    H2510395   2.068   6.468   0.125 -0.2789 -0.6809 -0.1765
   86MOL    C2610396   1.894   6.346   0.058 -1.4068  0.5618 -0.5760
   86MOL    C2710397   1.929   6.363   8.433 -1.0154 -0.3843  0.7235
   86MOL   Cl2810398   1.823   6.501   8.377 -0.3151 -0.1271  0.3662
   86MOL    H2910399   1.787   6.346   0.079 -1.3494  0.4814 -0.2786
   86MOL    H3010400   1.921   6.248   0.096  0.4599  1.1142 -0.4446
   86MOL    H3110401   2.031   6.399   8.419 -0.7200 -0.3596  2.7444
   86MOL    C3210402   1.888   6.234   8.356 -0.1762  0.1367  0.3430
   86MOL    C3310403   1.981   6.114   8.380  0.0698  0.2553  0.0478
   86MOL   Cl3410404   2.142   6.165   8.336 -0.5826 -0.2410 -0.0177
   86MOL    H3510405   1.883   6.253   8.249 -1.3822  1.1521  0.5701
   86MOL    H3610406   1.787   6.213   8.390 -0.5294  1.9041  0.4545
   86MOL    H3710407   1.979   6.090   8.486 -0.7694  0.6669  0.1276
   86MOL    C3810408   1.941   5.982   8.306  0.1393  0.2941 -0.1549
   86MOL    C3910409   1.812   5.905   8.358 -0.2233  0.4399 -0.2556
   86MOL   Cl4010410   1.841   5.875   0.004 -0.0042 -0.2095  0.3245
   86MOL    H4110411   2.027   5.916   8.314  0.8872  1.5667  3.2484
   86MOL    H4210412   1.931   6.003   8.200 -1.2249 -1.7246 -0.4524
   86MOL    H4310413   1.726   5.971   8.349 -1.2567 -0.6732  1.2523
   86MOL    C4410414   1.782   5.769   8.282  0.5465  0.5089 -0.6444
   86MOL    C4510415   1.721   5.788   8.144 -0.1002 -0.3793  0.8745
   86MOL   Cl4610416   1.548   5.852   8.165 -0.0405  0.5203  0.1419
   86MOL    H4710417   1.715   5.713   8.348  0.9710  3.1065  2.1038
   86MOL    H4810418   1.877   5.717   8.269  0.0336 -0.8088  0.6810
   86MOL    H4910419   1.780   5.867   8.098  0.0951 -2.3700 -2.3741
   86MOL    C5010420   1.718   5.666   8.054  0.2069  0.4108  0.8981
   86MOL    C5110421   1.853   5.602   8.013  0.7219 -0.0482  0.6105
   86MOL   Cl5210422   1.961   5.730   7.941  0.1951  0.5078 -0.1647
   86MOL    H5310423   1.662   5.704   7.969  3.3335  2.1584 -0.4899
   86MOL    H5410424   1.663   5.583   8.097  0.1156  0.0351  0.0690
   86MOL    H5510425   1.901   5.557   8.100  1.5730 -2.9281 -1.3074
   86MOL    C5610426   1.837   5.488   7.913  0.1461 -1.0345 -0.7318
   86MOL    C5710427   1.758   5.363   7.958  0.4135  0.0884  0.1241
   86MOL   Cl5810428   1.788   5.319   8.130  0.0314  0.4066  0.0621
   86MOL    H5910429   1.938   5.452   7.895 -0.2480 -3.2194  1.2598
   86MOL    H6010430   1.785   5.522   7.823 -1.6879 -2.5612 -0.2932
   86MOL    H6110431   1.650   5.378   7.957  0.0744 -1.6174  3.3681
   86MOL    C6210432   1.783   5.235   7.868  0.3952 -0.0024  0.7734
   86MOL    C6310433   1.764   5.257   7.711  0.4967 -0.6515  0.3513
   86MOL   Cl6410434   1.586   5.272   7.687  0.4018 -0.0513  0.0168
   86MOL    H6510435   1.730   5.148   7.906  3.2467 -0.5590  3.7473
   86MOL    H6610436   1.886   5.199   7.872  0.7937  1.0541  0.3253
   86MOL    H6710437   1.811   5.348   7.674  1.6188 -1.1666  0.4814
   86MOL    C6810438   1.811   5.139   7.622 -0.3405 -0.8312 -0.2413
   86MOL    C6910439   1.801   5.170   7.467  0.3563 -0.6683 -0.3670
   86MOL   Cl7010440   1.815   5.011   7.383 -0.1661 -0.4410 -0.1278
   86MOL    H7110441   1.767   5.047   7.660 -0.3414 -0.5108  0.5451
   86MOL    H7210442   1.917   5.122   7.640 -0.1657  0.4844  0.0322
   86MOL    H7310443   1.702   5.211   7.452 -0.5091 -2.8589 -0.8053
   86MOL    C7410444   1.924   5.254   7.418  0.3410  0.5443 -0.0167
   86MOL    C7510445   1.939   5.309   7.275  0.2141 -0.1371  0.5953
   86MOL   Cl7610446   2.103   5.374   7.263  0.2733 -0.0325 -0.2821
   86MOL    H7710447   2.000   5.176   7.416 -1.3009 -1.0807  0.2683
   86MOL    H7810448   1.959   5.323   7.494 -1.1756 -0.3600  1.5191
   86MOL    H7910449   1.933   5.224   7.206  2.1411 -0.5124  0.8671
   86MOL    C8010450   1.824   5.408   7.234  0.1631 -0.2882 -0.1760
   86MOL    C8110451   1.829   5.547   7.309 -0.3759  0.2263 -0.6005
   86MOL   Cl8210452   1.739   5.529   7.465 -0.1817 -0.2375  0.0095
   86MOL    H8310453   1.728   5.361   7.254 -1.0821  1.8165 -0.9474
   86MOL    H8410454   1.826   5.410   7.125 -2.5599 -1.7378 -0.2976
   86MOL    H8510455   1.931   5.565   7.340 -0.5765  1.4280 -0.6300
   86MOL    C8610456   1.775   5.665   7.225 -0.0765  0.2272 -0.2348
   86MOL    C8710457   1.802   5.802   7.281  0.3483  0.3253 -0.7868
   86MOL   Cl8810458   1.761   5.921   7.147  0.4884 -0.0403  0.0661
   86MOL    H8910459   1.673   5.637   7.200 -0.1224  1.3874 -1.4366
   86MOL    H9010460   1.827   5.657   7.129 -0.2985  1.2421 -0.4519
   86MOL    H9110461   1.736   5.836   7.361  2.8158 -1.7238  2.2666
   86MOL    C9210462   1.949   5.822   7.322  0.8922 -0.0424  0.7085
   86MOL    C9310463   1.975   5.802   7.473  0.1034  0.1458  0.0850
   86MOL   Cl9410464   1.879   5.915   7.561 -0.2688 -0.0936  0.1341
   86MOL    H9510465   1.979   5.923   7.295 -0.1860  0.8844  2.8748
   86MOL    H9610466   2.011   5.750   7.268 -1.9797 -0.5055 -2.1283
   86MOL    H9710467   1.944   5.700   7.496  1.8212 -0.3524  0.2704
   86MOL    C9810468   2.117   5.815   7.529 -0.5447  0.4941  0.4430
   86MOL    C9910469   2.214   5.692   7.533 -0.3413 -0.1804 -0.5821
   86MOL  Cl10010470   2.274   5.655   7.371 -0.2432 -0.1967  0.1486
   86MOL   H10110471   2.104   5.836   7.635  0.1468  0.4253  0.5409
   86MOL   H10210472   2.158   5.910   7.494 -1.7271  1.3162  1.2643
   86MOL   H10310473   2.297   5.718   7.599 -0.6090  0.8499 -0.6416
   86MOL   C10410474   2.151   5.565   7.586 -0.6373 -0.0455 -0.4060
   86MOL   C10510475   2.244   5.447   7.592 -0.3087 -0.3789 -0.1213
   86MOL  Cl10610476   2.168   5.329   7.697 -0.0066  0.1669  0.0053
   86MOL   H10710477   2.064   5.532   7.530 -2.7584 -0.8662  3.2125
   86MOL   H10810478   2.113   5.576   7.687  1.8743  1.2525  0.4466
   86MOL   H10910479   2.258   5.412   7.489 -0.7753 -1.5069  0.1897
   86MOL   C11010480   2.385   5.469   7.642 -0.2236 -0.0527 -0.1661
   86MOL   C11110481   2.465   5.340   7.661  0.3529 -0.0598  0.2371
   86MOL  Cl11210482   2.622   5.377   7.741  0.0223  0.3567  0.1875
   86MOL   H11310483   2.394   5.528   7.733 -0.6699 -0.7551  0.3354
   86MOL   H11410484   2.449   5.518   7.569  0.8779  0.2328  0.9798
   86MOL   H11510485   2.415   5.273   7.731  1.5979 -1.7049 -0.4082
   86MOL   C11610486   2.494   5.261   7.527 -0.4326 -0.0182 -0.7307
   86MOL   C11710487   2.574   5.131   7.555 -0.2774  0.2333  0.3209
   86MOL  Cl11810488   2.629   5.068   7.395 -0.1976 -0.1107  0.4307
   86MOL   H11910489   2.534   5.327   7.450  1.0571 -0.0829 -0.0255
   86MOL   H12010490   2.395   5.237   7.489 -0.9955  0.1271  0.6484
   86MOL   H12110491   2.663   5.150   7.614 -0.8845  0.3960  1.1900
   86MOL   H12210492   2.517   5.056   7.610  0.2447  0.4955  1.2251
   87MOL     C110493   3.701   0.084   4.904  0.3696 -0.1801 -0.1638
   87MOL     C210494   3.683   0.081   5.058  0.3977 -0.0190  0.3402
   87MOL    Cl310495   3.688   8.433   5.115  0.1578  0.4171  0.3523
   87MOL     H410496   3.691   0.190   4.877  1.0965 -0.0924 -0.1014
   87MOL     H510497   3.799   0.048   4.874 -0.8386 -2.4747 -1.4657
   87MOL     H610498   3.770   0.134   5.098  0.4907  1.1942 -1.4075
   87MOL     H710499   3.630   0.017   4.856 -1.1097  1.3769 -0.2033
   87MOL     C810500   3.553   0.159   5.093  0.6734  0.3490 -0.6492
   87MOL     C910501   3.539   0.193   5.242 -0.0510 -0.1560  0.2703
   87MOL   Cl1010502   3.477   0.062   5.347  0.0370 -0.1907  0.3272
   87MOL    H1110503   3.467   0.099   5.063 -0.3672  0.7206  1.4740
   87MOL    H1210504   3.550   0.252   5.035  0.3286 -0.9521 -2.7619
   87MOL    H1310505   3.641   0.205   5.279  0.0919  0.2120 -0.2527
   87MOL    C1410506   3.487   0.330   5.282  0.1061  0.5545  0.1166
   87MOL    C1510507   3.336   0.355   5.278  0.3303 -0.1083  0.8725
   87MOL   Cl1610508   3.265   0.318   5.121  0.1876  0.4009 -0.0922
   87MOL    H1710509   3.533   0.406   5.219  1.1232  1.4899  1.9517
   87MOL    H1810510   3.512   0.358   5.384  0.0947 -1.6050  0.7518
   87MOL    H1910511   3.294   0.280   5.345 -2.3290 -0.1181 -0.7021
   87MOL    C2010512   3.284   0.486   5.329  0.8588  0.3846  0.0101
   87MOL    C2110513   3.132   0.490   5.348  0.7006 -0.4763 -0.0656
   87MOL   Cl2210514   3.078   0.662   5.359 -0.2902  0.1620 -0.3181
   87MOL    H2310515   3.312   0.567   5.261  0.6535  0.1450 -0.3592
   87MOL    H2410516   3.332   0.516   5.422  1.1111  2.4346 -0.7457
   87MOL    H2510517   3.079   0.446   5.264  2.3197 -0.2972 -1.2146
   87MOL    C2610518   3.084   0.423   5.479  0.5486  0.1945 -0.6565
   87MOL    C2710519   2.931   0.404   5.492  0.3759 -0.8522 -0.3233
   87MOL   Cl2810520   2.890   0.458   5.663 -0.1345 -0.4578 -0.2915
   87MOL    H2910521   3.126   0.478   5.563 -1.7732  0.2296  0.5166
   87MOL    H3010522   3.128   0.326   5.500  0.3437  0.3162  0.3344
   87MOL    H3110523   2.889   0.485   5.433 -1.2294  0.1731  2.1367
   87MOL    C3210524   2.880   0.268   5.462 -0.6200 -0.2988 -0.3836
   87MOL    C3310525   2.884   0.219   5.311  0.3533  0.1116 -0.5607
   87MOL   Cl3410526   2.768   0.320   5.226 -0.1362 -0.1858 -0.3600
   87MOL    H3510527   2.787   0.257   5.518 -0.1228 -0.1359  0.4783
   87MOL    H3610528   2.947   0.190   5.499 -1.0039  0.0044  0.9662
   87MOL    H3710529   2.985   0.235   5.275  1.1814 -0.2457  1.5741
   87MOL    C3810530   2.850   0.069   5.296 -0.5403 -0.2467 -0.1521
   87MOL    C3910531   2.874   0.018   5.158  0.8632 -0.0154 -0.4108
   87MOL   Cl4010532   2.798   8.377   5.152 -0.0260  0.0388 -0.2092
   87MOL    H4110533   2.742   0.062   5.306 -0.7031 -0.2562 -1.8838
   87MOL    H4210534   2.902   0.003   5.366 -0.4093  2.7743  2.7444
   87MOL    H4310535   2.833   0.070   5.072  3.0154  0.6102 -1.0804
   87MOL    C4410536   3.028   0.005   5.125  0.5625  0.4214  0.9199
   87MOL    C4510537   3.119   8.446   5.213  0.2778  0.6031 -0.0487
   87MOL   Cl4610538   3.158   0.013   5.363 -0.2860  0.0412 -0.0531
   87MOL    H4710539   3.067   0.102   5.094  1.2824  0.4786  1.9978
   87MOL    H4810540   3.023   8.482   5.028  4.5644 -0.1747  0.9445
   87MOL    H4910541   3.067   8.358   5.251 -0.1645  0.9612  0.1931
   87MOL    C5010542   3.247   8.401   5.150 -0.2694 -0.7463 -0.5558
   87MOL    C5110543   3.235   8.316   5.018  0.0339 -0.7895  0.7298
   87MOL   Cl5210544   3.108   8.193   5.043 -0.2475  0.2489 -0.2938
   87MOL    H5310545   3.311   8.339   5.213 -0.1834 -3.5885 -3.3029
   87MOL    H5410546   3.304   8.484   5.109  0.4045 -1.1726 -0.4829
   87MOL    H5510547   3.195   8.384   4.942 -1.8172  0.0272  2.3953
   87MOL    C5610548   3.366   8.247   4.975  0.1707  0.1208  0.5311
   87MOL    C5710549   3.374   8.205   4.819 -0.6597  0.7790 -0.0469
   87MOL   Cl5810550   3.359   8.351   4.713  0.3370 -0.3957 -0.3343
   87MOL    H5910551   3.370   8.162   5.043 -0.3528 -0.5858 -0.3005
   87MOL    H6010552   3.456   8.304   4.997 -0.4712  0.7270  1.6468
   87MOL    H6110553   3.472   8.163   4.795  0.1264  1.3310  2.0642
   87MOL    C6210554   3.261   8.101   4.779 -0.0766 -0.5131 -0.6233
   87MOL    C6310555   3.268   7.959   4.837  0.2751  1.0297  0.4263
   87MOL   Cl6410556   3.435   7.897   4.835 -0.2980 -0.2310  0.0679
   87MOL    H6510557   3.266   8.093   4.671  0.5022  1.2679 -0.7458
   87MOL    H6610558   3.165   8.151   4.797  0.4161  0.8560 -1.6689
   87MOL    H6710559   3.234   7.967   4.940 -0.1861 -0.4225  0.4034
   87MOL    C6810560   3.184   7.863   4.749 -0.6759  0.3153 -0.3094
   87MOL    C6910561   3.152   7.720   4.803 -0.5991  0.2953  0.2342
   87MOL   Cl7010562   3.069   7.646   4.666 -0.2307 -0.1767  0.0622
   87MOL    H7110563   3.231   7.866   4.650 -0.9685  2.6497 -0.3869
   87MOL    H7210564   3.081   7.897   4.740 -1.2866 -1.3094  0.3273
   87MOL    H7310565   3.249   7.671   4.812 -0.4476  0.7292  1.0373
   87MOL    C7410566   3.070   7.715   4.929  0.2177 -0.1433 -0.4327
   87MOL    C7510567   3.018   7.573   4.969 -0.2503  0.9440  0.3832
   87MOL   Cl7610568   2.925   7.613   5.116  0.0355  0.1289  0.1164
   87MOL    H7710569   2.995   7.794   4.921  1.4692  1.1572  0.4726
   87MOL    H7810570   3.136   7.747   5.009 -0.0757 -1.1763  0.2397
   87MOL    H7910571   2.951   7.530   4.894  1.6815  1.9298 -1.9707
   87MOL    C8010572   3.127   7.467   5.001 -0.1340  0.5280  0.3298
   87MOL    C8110573   3.092   7.314   5.018  0.7241  0.4636 -0.7007
   87MOL   Cl8210574   3.013   7.295   5.177  0.2426 -0.2904  0.1206
   87MOL    H8310575   3.191   7.493   5.085 -0.0172 -2.5079  1.2240
   87MOL    H8410576   3.203   7.468   4.923 -0.3989 -3.5117 -0.0736
   87MOL    H8510577   3.031   7.278   4.934  0.1487  1.5456 -0.7626
   87MOL    C8610578   3.222   7.233   5.018 -0.8364 -0.4213  0.0458
   87MOL    C8710579   3.229   7.081   5.058 -0.3982 -0.7151 -0.6594
   87MOL   Cl8810580   3.384   7.059   5.141  0.0888  0.0190  0.2493
   87MOL    H8910581   3.290   7.290   5.081  1.7815 -1.1622 -2.0096
   87MOL    H9010582   3.279   7.245   4.926  0.8006  0.2833  1.1285
   87MOL    H9110583   3.159   7.046   5.134  0.0602 -0.7614 -0.2521
   87MOL    C9210584   3.228   6.991   4.933  0.0319 -0.7355 -0.9675
   87MOL    C9310585   3.261   6.842   4.964 -0.1183 -0.3409  0.0283
   87MOL   Cl9410586   3.297   6.759   4.809 -0.0123  0.0087 -0.1004
   87MOL    H9510587   3.291   7.026   4.852 -0.6024  0.5619 -0.9132
   87MOL    H9610588   3.126   7.007   4.896  0.1056  0.5422 -0.6256
   87MOL    H9710589   3.359   6.842   5.010  1.1056 -0.6016 -2.4796
   87MOL    C9810590   3.153   6.769   5.045  0.1024  0.2193 -0.3060
   87MOL    C9910591   3.183   6.623   5.069  0.1703 -0.1480 -0.4141
   87MOL  Cl10010592   3.047   6.560   5.167  0.0159  0.1350  0.4849
   87MOL   H10110593   3.059   6.769   4.989  0.8063 -0.1028 -1.5032
   87MOL   H10210594   3.139   6.828   5.136  0.7708  1.3670 -0.9357
   87MOL   H10310595   3.169   6.573   4.973  0.2877  0.8123 -0.9434
   87MOL   C10410596   3.326   6.587   5.122 -0.9425 -0.1125  0.0041
   87MOL   C10510597   3.352   6.429   5.136 -0.0692 -0.0132 -0.2157
   87MOL  Cl10610598   3.510   6.408   5.227  0.0290  0.1215  0.0295
   87MOL   H10710599   3.338   6.634   5.220 -1.2485  0.5645 -0.2837
   87MOL   H10810600   3.405   6.632   5.062  1.6191  1.4804  4.3131
   87MOL   H10910601   3.272   6.381   5.192  0.5547 -0.2781  0.4589
   87MOL   C11010602   3.353   6.355   4.998 -0.0665  0.0320 -0.1364
   87MOL   C11110603   3.422   6.217   4.985  0.3231 -0.0279 -0.1750
   87MOL  Cl11210604   3.420   6.176   4.810 -0.3637 -0.3903  0.0891
   87MOL   H11310605   3.412   6.419   4.932  1.4112 -0.9280  0.2310
   87MOL   H11410606   3.250   6.352   4.963  0.2991 -0.9242 -1.1588
   87MOL   H11510607   3.529   6.225   5.004  0.5212  0.8158 -1.4958
   87MOL   C11610608   3.355   6.100   5.064  0.0176 -0.3145 -0.4943
   87MOL   C11710609   3.428   5.968   5.047  0.1128  0.4966  0.4718
   87MOL  Cl11810610   3.351   5.836   5.150 -0.2636 -0.4810 -0.0687
   87MOL   H11910611   3.249   6.093   5.036  0.4502 -0.5917 -2.1130
   87MOL   H12010612   3.352   6.122   5.171  0.3606  2.0732 -0.9390
   87MOL   H12110613   3.427   5.943   4.941  0.4712 -0.0205  0.5906
   87MOL   H12210614   3.534   5.977   5.071  0.5339 -0.6128 -0.9071
   88MOL     C110615   3.014   7.722   8.138 -0.2897  0.3670  0.1671
   88MOL     C210616   3.011   7.793   8.271 -0.5708  0.3861  0.8483
   88MOL    Cl310617   2.982   7.658   8.388 -0.0422  0.1883 -0.5195
   88MOL     H410618   3.081   7.637   8.148  0.9749  1.1516 -1.5190
   88MOL     H510619   2.923   7.669   8.111  0.0816  0.3504 -1.0776
   88MOL     H610620   3.106   7.842   8.293 -1.3870  2.1773  0.5182
   88MOL     H710621   3.040   7.780   8.050  1.0248 -1.1902 -0.5037
   88MOL     C810622   2.902   7.907   8.286  0.3182 -0.4668 -0.9060
   88MOL     C910623   2.911   7.999   8.413 -0.7974  0.1895  0.2035
   88MOL   Cl1010624   2.743   8.052   8.438 -0.0490 -0.0356 -0.1231
   88MOL    H1110625   2.813   7.845   8.279 -0.0026  0.0089 -1.1218
   88MOL    H1210626   2.878   7.965   8.196 -2.2495 -3.6941 -2.3905
   88MOL    H1310627   2.951   7.949   8.502 -0.6714 -1.1913 -0.6206
   88MOL    C1410628   3.006   8.119   8.394  0.9050 -0.2857 -0.7041
   88MOL    C1510629   3.034   8.194   0.003 -0.0162 -1.0029  0.9185
   88MOL   Cl1610630   3.042   8.378   8.508  0.2655 -0.4150  0.0551
   88MOL    H1710631   2.960   8.186   8.322  0.9162  1.6495  1.0138
   88MOL    H1810632   3.104   8.092   8.355  0.9291  1.0484 -1.5818
   88MOL    H1910633   2.946   8.185   0.067 -0.8441  1.2908  0.1485
   88MOL    C2010634   3.172   8.146   0.058  0.8217  0.0002  0.0681
   88MOL    C2110635   3.176   8.017   0.140 -0.9233  0.8778  0.1303
   88MOL   Cl2210636   3.060   8.017   0.270  0.3079  0.1636 -0.5151
   88MOL    H2310637   3.199   8.222   0.131 -0.0249 -0.2631  0.6519
   88MOL    H2410638   3.260   8.151   8.518  1.6595  0.3131  1.2090
   88MOL    H2510639   3.146   7.937   0.073 -1.1828  0.3462  0.8724
   88MOL    C2610640   3.317   7.988   0.195  0.1171  0.1199  0.1949
   88MOL    C2710641   3.349   7.840   0.231  0.0207  0.5374  0.0645
   88MOL   Cl2810642   3.500   7.846   0.320  0.1426 -0.3175 -0.0725
   88MOL    H2910643   3.331   8.034   0.293 -0.2582 -0.9753  0.7707
   88MOL    H3010644   3.396   8.034   0.134  1.0786 -2.6528 -0.7239
   88MOL    H3110645   3.265   7.810   0.295 -0.3504 -1.2342 -1.2047
   88MOL    C3210646   3.358   7.726   0.121 -0.1514 -0.1000  0.1046
   88MOL    C3310647   3.453   7.758   0.002 -0.4580 -0.6570 -0.3198
   88MOL   Cl3410648   3.350   7.855   8.414  0.1112 -0.0995 -0.2126
   88MOL    H3510649   3.255   7.715   0.086 -0.2354  1.8153 -0.3206
   88MOL    H3610650   3.387   7.637   0.176  0.2498  0.4965  0.8548
   88MOL    H3710651   3.530   7.824   0.040 -1.5557  1.3975 -1.5837
   88MOL    C3810652   3.514   7.641   8.444  0.0290 -1.0214 -0.0914
   88MOL    C3910653   3.610   7.554   8.515 -0.3479 -0.0921  0.1915
   88MOL   Cl4010654   3.753   7.639   0.050  0.0491 -0.0037  0.1085
   88MOL    H4110655   3.582   7.666   8.364  1.3781  0.5689  1.5081
   88MOL    H4210656   3.441   7.587   8.385 -0.7523 -0.4494  0.3332
   88MOL    H4310657   3.556   7.515   0.076 -3.0506 -0.4267 -1.5831
   88MOL    C4410658   3.658   7.431   8.445  0.1115 -0.2349 -0.8788
   88MOL    C4510659   3.572   7.309   8.433 -0.5715 -0.1663 -0.4408
   88MOL   Cl4610660   3.533   7.246   0.066  0.3642 -0.3129 -0.0510
   88MOL    H4710661   3.736   7.400   8.514 -1.2382 -0.8979  0.3674
   88MOL    H4810662   3.697   7.449   8.344 -0.1973  1.7404 -0.6647
   88MOL    H4910663   3.482   7.342   8.380 -2.3971 -3.2255  0.6282
   88MOL    C5010664   3.639   7.194   8.359  0.3742  0.6234  0.1126
   88MOL    C5110665   3.695   7.219   8.222  0.3825 -0.6957  0.0244
   88MOL   Cl5210666   3.565   7.303   8.135 -0.3108 -0.1519  0.0514
   88MOL    H5310667   3.572   7.109   8.346  1.2231 -0.2188  1.0786
   88MOL    H5410668   3.714   7.142   8.419  2.0130  2.8000  0.0241
   88MOL    H5510669   3.776   7.292   8.217 -1.4130  1.4825  1.9709
   88MOL    C5610670   3.730   7.092   8.145  0.0589  0.4357 -0.4710
   88MOL    C5710671   3.810   7.107   8.013 -0.5564  0.0999  0.3669
   88MOL   Cl5810672   3.816   6.950   7.929 -0.6093 -0.1103 -0.2569
   88MOL    H5910673   3.634   7.041   8.131  0.4503 -0.6083  0.5535
   88MOL    H6010674   3.782   7.029   8.217 -2.0849 -0.8796 -0.0192
   88MOL    H6110675   3.753   7.173   7.948 -1.4863 -0.7280  0.3296
   88MOL    C6210676   3.952   7.169   8.016 -0.2299  0.7089 -0.6154
   88MOL    C6310677   3.989   7.253   7.900  0.0916 -0.1895 -0.3107
   88MOL   Cl6410678   3.995   7.163   7.750  0.0738  0.3218  0.1911
   88MOL    H6510679   4.029   7.100   8.051 -0.4491  1.4421  1.4277
   88MOL    H6610680   3.961   7.247   8.091 -1.1712  2.6785 -2.5162
   88MOL    H6710681   3.911   7.328   7.886 -0.7040 -0.5822  1.7975
   88MOL    C6810682   4.131   7.316   7.923 -0.2551  0.9970  0.6807
   88MOL    C6910683   4.165   7.434   7.833  0.5094  0.2209 -0.2257
   88MOL   Cl7010684   4.316   7.518   7.878  0.5212  0.0676  0.1820
   88MOL    H7110685   4.209   7.241   7.917 -2.3521 -1.1138 -0.8474
   88MOL    H7210686   4.145   7.351   8.025  1.4600  2.0225  0.1172
   88MOL    H7310687   4.179   7.405   7.728  0.5226  0.1411 -0.2021
   88MOL    C7410688   4.056   7.546   7.832  0.0782  0.5897 -0.2653
   88MOL    C7510689   3.951   7.528   7.720 -0.0620  0.2162  0.7412
   88MOL   Cl7610690   4.037   7.587   7.575  0.1842 -0.0243 -0.0172
   88MOL    H7710691   4.105   7.643   7.825 -0.0167  0.6278 -0.4044
   88MOL    H7810692   4.013   7.537   7.932 -0.0939  1.9416 -0.2126
   88MOL    H7910693   3.927   7.424   7.698 -0.6676  0.2371  1.2913
   88MOL    C8010694   3.819   7.605   7.740  0.6427 -0.5347 -0.1044
   88MOL    C8110695   3.690   7.531   7.690 -0.6250 -0.0233 -0.5466
   88MOL   Cl8210696   3.565   7.648   7.703 -0.1731 -0.3261  0.0049
   88MOL    H8310697   3.829   7.701   7.690  0.2722  1.6365  3.8389
   88MOL    H8410698   3.815   7.637   7.844 -0.7622  0.6461 -0.5128
   88MOL    H8510699   3.708   7.508   7.585  0.8485 -1.2945 -0.0372
   88MOL    C8610700   3.645   7.408   7.773  0.5922 -0.0595  0.3222
   88MOL    C8710701   3.514   7.339   7.713 -0.6843 -0.4241  0.5436
   88MOL   Cl8810702   3.501   7.180   7.781  0.0257 -0.2172 -0.1969
   88MOL    H8910703   3.636   7.435   7.878  1.3219  0.7266  0.1904
   88MOL    H9010704   3.715   7.324   7.768 -1.6282 -1.9051 -0.5530
   88MOL    H9110705   3.429   7.392   7.756 -0.6726 -1.1727  1.5281
   88MOL    C9210706   3.491   7.338   7.558 -0.1070  0.8412  0.0293
   88MOL    C9310707   3.571   7.232   7.481  0.6937  0.0233 -0.6641
   88MOL   Cl9410708   3.752   7.240   7.499  0.2281  0.3290 -0.4442
   88MOL    H9510709   3.501   7.440   7.520 -0.9980  0.7451 -0.5002
   88MOL    H9610710   3.386   7.310   7.547  0.4917 -1.3086 -0.4687
   88MOL    H9710711   3.532   7.134   7.508 -1.2034  0.5311 -1.4698
   88MOL    C9810712   3.541   7.240   7.326 -0.4618  0.4323 -0.7061
   88MOL    C9910713   3.397   7.200   7.285 -0.5333 -0.4857  0.6623
   88MOL  Cl10010714   3.380   7.026   7.314 -0.2785  0.0881  0.1372
   88MOL   H10110715   3.606   7.166   7.279  0.1145  0.4276  0.0838
   88MOL   H10210716   3.569   7.340   7.295  1.4542  0.5208  1.1818
   88MOL   H10310717   3.323   7.255   7.344  0.7724  2.9088 -0.7820
   88MOL   C10410718   3.369   7.219   7.133 -0.3033 -0.0417 -0.0568
   88MOL   C10510719   3.374   7.361   7.071 -0.2502 -0.0389  0.2539
   88MOL  Cl10610720   3.218   7.438   7.112  0.1498 -0.3702 -0.4865
   88MOL   H10710721   3.278   7.167   7.105 -0.4918  0.5594 -0.5622
   88MOL   H10810722   3.438   7.151   7.083  1.3342  3.1406 -2.3720
   88MOL   H10910723   3.449   7.427   7.113 -1.1177  0.3418  1.2209
   88MOL   C11010724   3.402   7.343   6.918 -0.2193  0.1498  0.0108
   88MOL   C11110725   3.552   7.313   6.884  0.2445  0.0550  0.5248
   88MOL  Cl11210726   3.638   7.471   6.911 -0.0024  0.0369  0.3981
   88MOL   H11310727   3.364   7.423   6.855  3.6231  0.6319 -1.8513
   88MOL   H11410728   3.341   7.256   6.895 -0.4214  0.1820  0.4050
   88MOL   H11510729   3.598   7.233   6.943 -2.9040 -2.0604  0.2558
   88MOL   C11610730   3.559   7.278   6.737  0.0414  0.5258  0.0351
   88MOL   C11710731   3.707   7.273   6.674  0.0218 -0.2160  0.1463
   88MOL  Cl11810732   3.803   7.153   6.743 -0.2574  0.1035 -0.5634
   88MOL   H11910733   3.494   7.345   6.681 -1.4102  0.3152  1.4369
   88MOL   H12010734   3.514   7.178   6.733 -1.2367  1.1304 -1.7597
   88MOL   H12110735   3.696   7.269   6.566  1.9321 -0.4174 -0.0623
   88MOL   H12210736   3.763   7.364   6.699  0.3208 -0.2907 -0.2336
   89MOL     C110737   6.958   6.375   1.282  0.0742 -0.0278  0.2253
   89MOL     C210738   6.852   6.477   1.329 -0.5407  0.3383 -0.1577
   89MOL    Cl310739   6.760   6.542   1.183  0.3443  0.1436 -0.0392
   89MOL     H410740   6.899   6.299   1.231 -0.0017 -0.0684  0.3747
   89MOL     H510741   7.022   6.434   1.216 -1.5517  1.6872  0.1233
   89MOL     H610742   6.786   6.429   1.401  0.3928 -1.2215 -0.3168
   89MOL     H710743   7.016   6.327   1.361 -1.7222 -0.2069  1.4654
   89MOL     C810744   6.910   6.591   1.410 -0.6289 -0.1229  0.0685
   89MOL     C910745   6.964   6.568   1.548 -0.2012 -0.0575  0.7114
   89MOL   Cl1010746   6.829   6.555   1.669  0.3556  0.4332  0.0079
   89MOL    H1110747   6.832   6.665   1.423  0.1171  0.4685  1.2718
   89MOL    H1210748   6.982   6.647   1.351  1.7391 -2.7082  0.3683
   89MOL    H1310749   7.010   6.470   1.539  0.6645  0.1231  2.7845
   89MOL    C1410750   7.057   6.678   1.598 -0.4052  0.1879 -0.2689
   89MOL    C1510751   7.192   6.678   1.514 -0.0510  0.5997  0.1772
   89MOL   Cl1610752   7.288   6.527   1.527  0.2037 -0.5017 -0.3987
   89MOL    H1710753   7.078   6.658   1.703 -1.3324 -0.1412 -0.1361
   89MOL    H1810754   6.994   6.767   1.597 -0.2651  0.3080  0.7004
   89MOL    H1910755   7.164   6.691   1.410  0.2233  0.6699  0.1118
   89MOL    C2010756   7.282   6.795   1.561  0.1220 -0.4767  1.2557
   89MOL    C2110757   7.420   6.813   1.486  0.6096 -0.0860  0.7141
   89MOL   Cl2210758   7.493   6.977   1.528  0.4133 -0.2397  0.1412
   89MOL    H2310759   7.309   6.782   1.666  1.1860 -0.2830  1.0140
   89MOL    H2410760   7.226   6.886   1.538  0.2057 -0.5258  0.8439
   89MOL    H2510761   7.482   6.740   1.538 -2.5266 -1.4498  2.6923
   89MOL    C2610762   7.405   6.801   1.339  0.1832 -0.3837  0.2897
   89MOL    C2710763   7.532   6.768   1.262  0.5920 -0.0220  0.8401
   89MOL   Cl2810764   7.591   6.935   1.214  0.2323  0.3389 -0.3446
   89MOL    H2910765   7.367   6.899   1.310 -1.4702 -1.4417 -1.2849
   89MOL    H3010766   7.334   6.722   1.311  2.4109 -1.5955 -2.1338
   89MOL    H3110767   7.617   6.727   1.316  1.1386  0.1053  0.0857
   89MOL    C3210768   7.517   6.687   1.132 -0.6616 -0.7001  0.1996
   89MOL    C3310769   7.485   6.536   1.169  0.0801 -0.3245  0.6677
   89MOL   Cl3410770   7.634   6.466   1.206 -0.2153 -0.2637 -0.2832
   89MOL    H3510771   7.601   6.686   1.062  0.2209  0.0187  1.2380
   89MOL    H3610772   7.435   6.732   1.076 -0.8314 -1.5295 -0.2239
   89MOL    H3710773   7.422   6.514   1.255 -1.0749  0.0364 -0.0807
   89MOL    C3810774   7.424   6.459   1.050 -0.4610 -0.2728  0.2055
   89MOL    C3910775   7.401   6.309   1.079 -0.0252 -0.5819  0.3833
   89MOL   Cl4010776   7.370   6.238   0.916  0.2412  0.0375 -0.0874
   89MOL    H4110777   7.483   6.471   0.959  0.1108 -1.0846  0.4570
   89MOL    H4210778   7.327   6.493   1.016 -0.9661  0.2588  2.1292
   89MOL    H4310779   7.490   6.257   1.114 -1.0546 -3.5079 -1.1387
   89MOL    C4410780   7.282   6.277   1.170 -0.5558 -0.1053 -0.6317
   89MOL    C4510781   7.252   6.127   1.202 -0.6851 -0.5348  0.2922
   89MOL   Cl4610782   7.164   6.119   1.358 -0.6008 -0.1024  0.2438
   89MOL    H4710783   7.191   6.327   1.138 -0.6985 -0.3161 -0.5585
   89MOL    H4810784   7.299   6.324   1.267  1.5521 -1.7073 -0.2099
   89MOL    H4910785   7.182   6.093   1.126 -1.6954  0.0778  0.9302
   89MOL    C5010786   7.379   6.031   1.199 -0.0036  0.6265  0.2547
   89MOL    C5110787   7.351   5.886   1.244 -0.5061  0.1787  0.1824
   89MOL   Cl5210788   7.516   5.809   1.259 -0.0283  0.0402 -0.4128
   89MOL    H5310789   7.456   6.071   1.266 -0.8087  1.8176  0.4831
   89MOL    H5410790   7.426   6.021   1.101 -2.6100  0.0718 -0.9802
   89MOL    H5510791   7.313   5.894   1.345 -0.4353  1.7203  0.0961
   89MOL    C5610792   7.260   5.794   1.147  1.0933  0.2573  0.7142
   89MOL    C5710793   7.245   5.645   1.193  0.0057  0.7430  0.6446
   89MOL   Cl5810794   7.131   5.572   1.082 -0.2327  0.1513 -0.3245
   89MOL    H5910795   7.286   5.791   1.042 -2.8607 -0.5858 -0.2981
   89MOL    H6010796   7.160   5.838   1.154  1.8008  2.1200 -0.7365
   89MOL    H6110797   7.339   5.590   1.196 -0.1210  0.5399  1.0835
   89MOL    C6210798   7.174   5.629   1.329  0.3263  0.0403 -0.3766
   89MOL    C6310799   7.146   5.489   1.379 -0.1611  0.4972 -0.5562
   89MOL   Cl6410800   7.048   5.499   1.534 -0.2902  0.1154  0.2928
   89MOL    H6510801   7.081   5.686   1.322  0.0279 -0.4423 -0.2832
   89MOL    H6610802   7.232   5.690   1.398 -1.5720  1.2013  0.2274
   89MOL    H6710803   7.092   5.441   1.298  1.2048  0.6549 -1.5636
   89MOL    C6810804   7.267   5.397   1.401  0.3851 -0.7107  0.3449
   89MOL    C6910805   7.362   5.425   1.517  0.5114 -0.2935 -0.2206
   89MOL   Cl7010806   7.483   5.541   1.459  0.0192 -0.4728  0.2235
   89MOL    H7110807   7.316   5.402   1.304  0.0993  3.8907  0.3596
   89MOL    H7210808   7.233   5.294   1.414 -1.2474 -0.6378 -2.8063
   89MOL    H7310809   7.302   5.468   1.598  1.0495  0.3468 -0.1629
   89MOL    C7410810   7.435   5.303   1.556  0.3913  0.1286  0.2553
   89MOL    C7510811   7.522   5.341   1.683  0.8541  0.3334  0.1471
   89MOL   Cl7610812   7.622   5.198   1.694  0.1731 -0.1388  0.5081
   89MOL    H7710813   7.504   5.272   1.477 -0.6138  3.2528 -1.9616
   89MOL    H7810814   7.368   5.218   1.570  0.8379 -0.3025 -0.1887
   89MOL    H7910815   7.591   5.424   1.668 -0.1585  1.0960 -0.2791
   89MOL    C8010816   7.449   5.368   1.815 -0.2696  0.6164  0.9985
   89MOL    C8110817   7.532   5.402   1.943 -0.8133 -0.1103  0.6589
   89MOL   Cl8210818   7.424   5.391   2.082  0.4206 -0.2532 -0.1417
   89MOL    H8310819   7.387   5.281   1.839 -2.2087  1.8919  0.7969
   89MOL    H8410820   7.376   5.448   1.803 -0.8526 -0.2691 -1.8176
   89MOL    H8510821   7.611   5.328   1.950  0.2959  0.8777 -1.0816
   89MOL    C8610822   7.596   5.545   1.940 -0.0729 -0.2738  0.9632
   89MOL    C8710823   7.719   5.583   1.854  0.3742  0.3803  0.0453
   89MOL   Cl8810824   7.855   5.474   1.898 -0.0668  0.1605  0.1804
   89MOL    H8910825   7.626   5.559   2.044  0.1122 -1.1156  1.0283
   89MOL    H9010826   7.513   5.613   1.919  0.6362  0.4489  0.4902
   89MOL    H9110827   7.701   5.573   1.747  0.9876 -0.0565 -0.0180
   89MOL    C9210828   7.766   5.727   1.885  0.4576 -0.2326 -0.3646
   89MOL    C9310829   7.847   5.783   1.778  0.5008  0.4249 -0.0476
   89MOL   Cl9410830   7.949   5.909   1.860  0.0956 -0.5847 -0.5094
   89MOL    H9510831   7.812   5.734   1.984 -0.4851  0.6008  0.0263
   89MOL    H9610832   7.679   5.790   1.902  1.6615  1.2735  0.2843
   89MOL    H9710833   7.914   5.710   1.734 -1.5084 -0.7483 -1.2376
   89MOL    C9810834   7.764   5.844   1.653 -0.2166  0.5097 -0.0240
   89MOL    C9910835   7.859   5.897   1.541 -0.0483  0.8359 -0.1667
   89MOL  Cl10010836   7.797   6.055   1.496  0.0850 -0.5480 -0.2968
   89MOL   H10110837   7.687   5.915   1.679 -1.2059 -0.5546 -0.0033
   89MOL   H10210838   7.709   5.765   1.601  1.0358 -0.2420 -0.2465
   89MOL   H10310839   7.962   5.908   1.574 -0.4339  1.3062  0.9294
   89MOL   C10410840   7.864   5.819   1.413  0.4237  0.3671  0.4203
   89MOL   C10510841   7.940   5.679   1.405  0.2677 -0.6324 -0.5121
   89MOL  Cl10610842   7.857   5.563   1.512  0.3413  0.1260 -0.0207
   89MOL   H10710843   7.927   5.879   1.347  1.4303 -1.0531  0.0585
   89MOL   H10810844   7.762   5.804   1.379 -0.8041  0.6784  3.8687
   89MOL   H10910845   7.926   5.635   1.307  1.5549  0.4409 -1.1838
   89MOL   C11010846   8.091   5.689   1.433 -0.2391 -0.3530 -0.6846
   89MOL   C11110847   8.181   5.652   1.312 -0.4718  0.2424 -0.0535
   89MOL  Cl11210848   8.149   5.483   1.253 -0.1773 -0.0008 -0.2731
   89MOL   H11310849   8.115   5.621   1.514 -0.1990  2.5974  1.8712
   89MOL   H11410850   8.117   5.788   1.471 -0.1289 -0.7569  0.3191
   89MOL   H11510851   8.154   5.717   1.229  0.1204  0.1137 -0.3497
   89MOL   C11610852   8.330   5.670   1.343 -0.5207 -0.7760  0.1078
   89MOL   C11710853   8.416   5.651   1.217 -0.1579  0.0369  0.1179
   89MOL  Cl11810854   8.393   5.764   1.081 -0.0980  0.1280 -0.2176
   89MOL   H11910855   8.364   5.596   1.415  0.5359  0.0032  0.4221
   89MOL   H12010856   8.345   5.767   1.390 -0.5415 -1.4440  1.5213
   89MOL   H12110857   8.522   5.649   1.240 -0.4016 -2.2996  1.2156
   89MOL   H12210858   8.384   5.551   1.185 -1.2177  0.8811 -1.5180
   90MOL     C110859   1.779   8.000   0.629  0.1692 -0.2939  0.1170
   90MOL     C210860   1.659   7.996   0.542  0.4954  0.7911 -0.2125
   90MOL    Cl310861   1.602   8.143   0.467 -0.0867 -0.0527  0.1350
   90MOL     H410862   1.866   8.052   0.590  0.5355  1.1023  2.6463
   90MOL     H510863   1.751   8.054   0.720  4.1139 -0.2836  1.4381
   90MOL     H610864   1.692   7.937   0.457 -1.1267 -0.1164 -0.2319
   90MOL     H710865   1.812   7.898   0.652  1.1030  0.3222  1.5896
   90MOL     C810866   1.540   7.922   0.613 -0.2523 -0.5261 -0.7703
   90MOL     C910867   1.423   7.878   0.522  0.2197  0.0135 -0.0849
   90MOL   Cl1010868   1.281   7.831   0.617  0.1107 -0.2915 -0.1145
   90MOL    H1110869   1.495   7.980   0.693 -0.1941 -2.2761  0.5518
   90MOL    H1210870   1.576   7.830   0.660  0.8245 -0.3453 -1.2260
   90MOL    H1310871   1.402   7.976   0.479 -3.6579  0.1409  1.8317
   90MOL    C1410872   1.447   7.778   0.412  0.4043  0.4756  0.4794
   90MOL    C1510873   1.432   7.626   0.435 -0.3108 -0.4262  0.1093
   90MOL   Cl1610874   1.565   7.573   0.538  0.4876  0.2391 -0.0067
   90MOL    H1710875   1.546   7.801   0.373 -0.7525  0.9035 -2.2903
   90MOL    H1810876   1.376   7.797   0.331  0.2944 -1.3100  0.1240
   90MOL    H1910877   1.338   7.600   0.484  0.9830 -2.3117  1.6585
   90MOL    C2010878   1.443   7.545   0.303  0.7199 -0.0359 -0.6596
   90MOL    C2110879   1.401   7.396   0.303 -0.4721  0.1498 -0.8316
   90MOL   Cl2210880   1.242   7.359   0.385 -0.0650 -0.1689  0.2922
   90MOL    H2310881   1.539   7.572   0.260  1.0729  0.0622  0.1863
   90MOL    H2410882   1.367   7.590   0.239  0.9456  0.5011 -0.5527
   90MOL    H2510883   1.386   7.360   0.201 -0.4844 -0.7357 -0.5233
   90MOL    C2610884   1.506   7.297   0.353  0.3152 -0.2585  0.5367
   90MOL    C2710885   1.499   7.148   0.293 -0.6730 -0.0425  0.5472
   90MOL   Cl2810886   1.603   7.039   0.399 -0.2553  0.1652 -0.1719
   90MOL    H2910887   1.518   7.294   0.461 -0.6578  0.8032  0.6821
   90MOL    H3010888   1.602   7.334   0.316  0.6558 -2.6146 -1.0485
   90MOL    H3110889   1.398   7.107   0.296 -0.5521 -0.5117 -1.1973
   90MOL    C3210890   1.545   7.142   0.145 -0.3408 -0.0073 -0.1799
   90MOL    C3310891   1.502   7.022   0.057  0.2589  0.0537  0.1104
   90MOL   Cl3410892   1.322   6.994   0.056 -0.1999  0.1516 -0.1870
   90MOL    H3510893   1.654   7.142   0.152 -0.2644  1.6624 -1.1106
   90MOL    H3610894   1.510   7.231   0.091 -0.9786 -0.6294 -0.8003
   90MOL    H3710895   1.530   7.046   8.480 -0.1036 -1.8107 -0.4419
   90MOL    C3810896   1.583   6.893   0.082 -0.6813  0.5215 -0.4405
   90MOL    C3910897   1.582   6.778   8.505  0.4145 -0.4415  0.1588
   90MOL   Cl4010898   1.655   6.843   8.353  0.1201 -0.1853 -0.0679
   90MOL    H4110899   1.563   6.854   0.182 -0.8558  2.3634  0.2687
   90MOL    H4210900   1.687   6.925   0.091 -0.4135 -0.2387 -0.7858
   90MOL    H4310901   1.641   6.689   0.003 -0.2945 -1.9156 -3.3841
   90MOL    C4410902   1.436   6.718   8.479 -0.4873 -0.1272 -0.6041
   90MOL    C4510903   1.431   6.589   8.393 -0.7472 -0.0944 -0.2153
   90MOL   Cl4610904   1.259   6.570   8.353 -0.1561 -0.4109  0.0808
   90MOL    H4710905   1.382   6.802   8.434 -0.6133  0.0299 -0.1656
   90MOL    H4810906   1.391   6.697   0.050 -1.3820  2.3957 -0.4284
   90MOL    H4910907   1.490   6.590   8.302 -2.3370  0.7826 -1.2598
   90MOL    C5010908   1.473   6.475   8.482  0.6937  0.2402  0.4383
   90MOL    C5110909   1.458   6.334   8.407 -0.3745  0.1388  0.8020
   90MOL   Cl5210910   1.549   6.207   8.497 -0.3284 -0.4093  0.0446
   90MOL    H5310911   1.412   6.473   0.047  1.6402  3.1066  1.1879
   90MOL    H5410912   1.578   6.495   8.499  0.6773  0.3682  0.3933
   90MOL    H5510913   1.352   6.308   8.406 -0.0582 -1.1022 -0.7282
   90MOL    C5610914   1.515   6.334   8.250  0.3024 -0.4641 -0.1005
   90MOL    C5710915   1.471   6.215   8.163  0.2703 -0.3752 -0.2414
   90MOL   Cl5810916   1.587   6.201   8.032  0.2536  0.0754  0.2836
   90MOL    H5910917   1.624   6.326   8.252  0.4301  1.1745  0.2545
   90MOL    H6010918   1.488   6.422   8.191  0.7214 -1.3444 -1.6215
   90MOL    H6110919   1.475   6.126   8.226 -1.2390 -0.5938 -0.4321
   90MOL    C6210920   1.334   6.240   8.098  0.0678 -0.7488  0.3518
   90MOL    C6310921   1.276   6.114   8.034 -0.1351 -0.4989 -0.7674
   90MOL   Cl6410922   1.169   6.152   7.894 -0.6978 -0.2511  0.2132
   90MOL    H6510923   1.352   6.305   8.012 -4.7477  0.1271 -0.1108
   90MOL    H6610924   1.260   6.295   8.156 -1.8376 -0.8008 -1.9868
   90MOL    H6710925   1.359   6.047   8.012 -2.1444 -3.4830  0.4881
   90MOL    C6810926   1.195   6.039   8.136  0.0749 -0.7309  0.0296
   90MOL    C6910927   1.120   5.913   8.077  0.5646 -0.4000 -0.0606
   90MOL   Cl7010928   1.021   5.861   8.222  0.3861  0.4060  0.1286
   90MOL    H7110929   1.119   6.114   8.158  0.6814 -0.1626  0.2166
   90MOL    H7210930   1.261   6.013   8.219 -0.6339  0.3624  0.9454
   90MOL    H7310931   1.052   5.945   7.998  0.1767  0.5892  0.6598
   90MOL    C7410932   1.208   5.807   8.032  0.1937  0.4377 -0.4391
   90MOL    C7510933   1.143   5.679   7.970  0.2180 -0.2911 -0.1641
   90MOL   Cl7610934   1.269   5.553   7.984  0.2684 -0.0610 -0.0882
   90MOL    H7710935   1.276   5.780   8.113 -0.9794  0.2870  0.5091
   90MOL    H7810936   1.272   5.852   7.956 -1.8587  1.3249 -1.7000
   90MOL    H7910937   1.058   5.643   8.028  0.0666  0.7667  0.2740
   90MOL    C8010938   1.102   5.705   7.828  1.1385  0.2836  0.0450
   90MOL    C8110939   1.075   5.588   7.729 -0.5343  0.3869  0.1468
   90MOL   Cl8210940   1.078   5.637   7.560 -0.0643 -0.0367 -0.4107
   90MOL    H8310941   1.183   5.764   7.784  1.0623 -1.3454 -2.3367
   90MOL    H8410942   1.028   5.785   7.824  0.4563 -0.3941 -1.1106
   90MOL    H8510943   1.165   5.527   7.739 -2.8370 -3.0126  0.7477
   90MOL    C8610944   0.955   5.498   7.740  0.3928 -0.4440  0.2938
   90MOL    C8710945   0.954   5.398   7.859 -0.6246  0.9119  0.8475
   90MOL   Cl8810946   1.077   5.278   7.850 -0.2074 -0.2131 -0.2114
   90MOL    H8910947   0.947   5.437   7.650 -2.3649 -0.8914  0.7834
   90MOL    H9010948   0.871   5.568   7.748  0.4224 -0.5252  1.4257
   90MOL    H9110949   0.980   5.455   7.948 -1.9174  1.5319  0.8386
   90MOL    C9210950   0.822   5.328   7.873  0.3737 -0.4181  0.4841
   90MOL    C9310951   0.813   5.255   8.012 -0.8173  0.3694 -0.5319
   90MOL   Cl9410952   0.732   5.101   7.985 -0.1447  0.2919  0.2842
   90MOL    H9510953   0.814   5.266   7.784 -1.3602 -1.3386  1.2465
   90MOL    H9610954   0.744   5.405   7.865 -0.4809 -1.1227  1.7705
   90MOL    H9710955   0.910   5.231   8.054 -0.0884  0.7290 -1.9743
   90MOL    C9810956   0.731   5.341   8.112  0.1091  0.3211  0.2715
   90MOL    C9910957   0.722   5.271   8.250 -0.3635 -0.5059  0.2205
   90MOL  Cl10010958   0.606   5.368   8.348  0.3319  0.0408  0.1623
   90MOL   H10110959   0.635   5.362   8.065  0.4355  0.5677 -0.2886
   90MOL   H10210960   0.773   5.441   8.123  3.7802 -0.9325 -1.5144
   90MOL   H10310961   0.679   5.171   8.245 -2.8959  0.6405 -2.0592
   90MOL   C10410962   0.859   5.247   8.323 -0.3942  0.6140  0.0550
   90MOL   C10510963   0.928   5.383   8.363  0.9364  0.0996 -0.0775
   90MOL  Cl10610964   1.043   5.444   8.242  0.2760  0.2069  0.0515
   90MOL   H10710965   0.921   5.179   8.264  0.2634  1.4388 -0.2036
   90MOL   H10810966   0.842   5.191   8.414  1.8151  0.6896  0.5229
   90MOL   H10910967   0.856   5.466   8.362  0.9342  0.1134 -2.8435
   90MOL   C11010968   0.987   5.375   8.504  0.3463  0.2649  0.5333
   90MOL   C11110969   1.062   5.496   0.029 -0.7598  0.1802 -0.4894
   90MOL  Cl11210970   1.131   5.439   0.187 -0.6006 -0.4822  0.0481
   90MOL   H11310971   1.063   5.297   8.503  0.5280  0.4416  0.5183
   90MOL   H11410972   0.918   5.347   0.058  0.7562  2.9617  1.9130
   90MOL   H11510973   1.143   5.526   8.488 -0.7846 -0.9096 -1.0199
   90MOL   C11610974   0.969   5.612   0.050 -0.1054  0.2150  0.2706
   90MOL   C11710975   1.026   5.730   0.131 -0.1527  0.1681  0.7898
   90MOL  Cl11810976   1.150   5.822   0.038 -0.0063  0.1837 -0.3029
   90MOL   H11910977   0.879   5.592   0.108  0.4792  2.2331  1.9425
   90MOL   H12010978   0.918   5.631   8.480  0.4457 -1.7831 -0.4531
   90MOL   H12110979   0.948   5.803   0.154  0.9873  1.6143  0.1819
   90MOL   H12210980   1.059   5.698   0.230  0.4368 -1.4457  0.0857
   91MOL     C110981   0.242   8.420   1.312  1.0364  0.3350  0.0387
   91MOL     C210982   0.311   8.490   1.426  0.1934  0.0023  0.4438
   91MOL    Cl310983   0.459   0.031   1.360 -0.3474  0.0364  0.3086
   91MOL     H410984   0.153   8.368   1.347  0.5249  1.8023  0.9575
   91MOL     H510985   0.220   8.484   1.227 -1.6332 -1.3991 -0.6341
   91MOL     H610986   0.253   0.051   1.459 -1.4484 -1.8981  2.7034
   91MOL     H710987   0.309   8.340   1.281  2.0157  0.1748  2.4551
   91MOL     C810988   0.344   8.391   1.548  0.2457  0.9086  0.0358
   91MOL     C910989   0.227   8.338   1.629  0.9813  0.4333  0.2273
   91MOL   Cl1010990   0.185   8.479   1.724 -0.1176 -0.2475  0.1608
   91MOL    H1110991   0.408   8.453   1.610  0.9987  2.7073 -2.4746
   91MOL    H1210992   0.404   8.310   1.507  0.8110  0.8211  1.0202
   91MOL    H1310993   0.151   8.316   1.555  0.1608 -0.8509  1.4202
   91MOL    C1410994   0.248   8.213   1.727  0.5113  0.0400 -0.3930
   91MOL    C1510995   0.205   8.084   1.668 -0.8577 -0.3200  0.9732
   91MOL   Cl1610996   0.276   8.070   1.502 -0.5449  0.2485 -0.0253
   91MOL    H1710997   0.175   8.223   1.807  0.2226 -0.0376 -0.6468
   91MOL    H1810998   0.345   8.206   1.778 -0.9481  1.1157  2.6123
   91MOL    H1910999   0.260   8.002   1.714  1.4652  1.6371  1.8378
   91MOL    C2011000   0.058   8.052   1.664  0.2778 -0.2164  0.2805
   91MOL    C2111001   0.022   7.904   1.652  0.0052  0.2161  0.6122
   91MOL   Cl2211002   8.393   7.875   1.576  0.1453  0.0201  0.3843
   91MOL    H2311003   0.010   8.103   1.581  1.8622 -0.0139 -0.5300
   91MOL    H2411004   0.011   8.095   1.753  0.0592  0.3439 -0.1054
   91MOL    H2511005   0.092   7.873   1.575 -0.9749 -1.9683  0.5675
   91MOL    C2611006   0.045   7.807   1.771  0.4754 -0.2185  0.3058
   91MOL    C2711007   8.507   7.857   1.902 -0.2486  0.1521 -0.2122
   91MOL   Cl2811008   0.092   7.989   1.973 -0.2623  0.0053  0.1680
   91MOL    H2911009   0.151   7.792   1.792  0.7049  0.7950 -0.1469
   91MOL    H3011010   8.522   7.714   1.742  3.0478 -0.5348 -3.3146
   91MOL    H3111011   8.410   7.905   1.894 -0.2028 -0.1008 -2.4964
   91MOL    C3211012   8.514   7.748   2.010  0.5905  0.3595  0.3199
   91MOL    C3311013   8.397   7.654   2.002 -0.6375  0.4590  0.3505
   91MOL   Cl3411014   8.255   7.744   2.062 -0.7163  0.2005 -0.2212
   91MOL    H3511015   8.513   7.802   2.105 -1.1762 -0.0491  0.5624
   91MOL    H3611016   0.089   7.708   2.011  1.4978  2.5739  0.5981
   91MOL    H3711017   8.367   7.611   1.906 -1.3282  0.6862  0.4655
   91MOL    C3811018   8.409   7.549   2.112 -0.1887 -0.0449  0.3089
   91MOL    C3911019   8.495   7.427   2.074 -0.3825  0.8906  0.2450
   91MOL   Cl4011020   8.395   7.323   1.969 -0.1915 -0.2475 -0.0276
   91MOL    H4111021   8.311   7.512   2.141 -0.3753 -1.1484 -1.6452
   91MOL    H4211022   8.449   7.605   2.197 -0.1629 -0.8959  0.8562
   91MOL    H4311023   0.058   7.452   2.014  0.1498 -1.4126  0.0253
   91MOL    C4411024   0.010   7.342   2.200 -0.5177 -0.7443  0.5581
   91MOL    C4511025   0.136   7.254   2.185  0.7475  0.1627 -0.0571
   91MOL   Cl4611026   0.104   7.122   2.072  0.1879  0.2007  0.4956
   91MOL    H4711027   8.458   7.273   2.231 -0.0809 -1.1542  0.7503
   91MOL    H4811028   0.024   7.409   2.285 -0.6989  0.7007 -0.5157
   91MOL    H4911029   0.213   7.326   2.156  0.4515  0.2404 -0.6483
   91MOL    C5011030   0.192   7.195   2.325 -0.2020 -0.3030  0.0787
   91MOL    C5111031   0.229   7.298   2.432  0.6542  0.6350 -0.0230
   91MOL   Cl5211032   0.335   7.417   2.357 -0.0303 -0.5699  0.3091
   91MOL    H5311033   0.287   7.146   2.304  0.2639  1.1038 -1.1762
   91MOL    H5411034   0.120   7.127   2.370  1.2285  0.0724  3.1117
   91MOL    H5511035   0.136   7.337   2.472  0.4874 -0.1901  0.3972
   91MOL    C5611036   0.297   7.244   2.557 -0.6206  0.5994  0.2725
   91MOL    C5711037   0.329   7.358   2.656 -0.2838  0.1894 -0.2421
   91MOL   Cl5811038   0.400   7.271   2.795 -0.3540 -0.1518 -0.2803
   91MOL    H5911039   0.394   7.201   2.531 -0.5936  2.4539 -2.8725
   91MOL    H6011040   0.238   7.165   2.603 -2.2612  0.2292 -2.3777
   91MOL    H6111041   0.408   7.418   2.610 -0.1006 -0.4649 -0.7884
   91MOL    C6211042   0.215   7.453   2.703 -0.4047  0.1803 -0.2963
   91MOL    C6311043   0.101   7.393   2.800  0.0157  0.6538 -0.2886
   91MOL   Cl6411044   0.010   7.273   2.705  0.1717 -0.0514 -0.4533
   91MOL    H6511045   0.173   7.507   2.618  0.3249 -1.6210 -1.8489
   91MOL    H6611046   0.263   7.532   2.759 -1.1471  0.3196  0.1543
   91MOL    H6711047   0.150   7.337   2.879  1.2284  1.3086 -0.5666
   91MOL    C6811048   0.015   7.506   2.864  0.3239  0.1640 -0.1762
   91MOL    C6911049   8.420   7.438   2.949 -0.6381  0.1260 -0.0959
   91MOL   Cl7011050   8.340   7.571   3.035 -0.0955 -0.1869  0.2863
   91MOL    H7111051   0.002   7.573   2.780 -0.6440 -0.4583 -0.5285
   91MOL    H7211052   0.074   7.553   2.943 -1.2681 -3.2551  3.1933
   91MOL    H7311053   8.352   7.399   2.874 -1.6037  0.8754  0.3849
   91MOL    C7411054   8.461   7.322   3.047 -0.1850  0.1788 -0.0503
   91MOL    C7511055   8.340   7.280   3.127 -0.0300 -0.0121 -0.2261
   91MOL   Cl7611056   8.385   7.184   3.269 -0.0548  0.1630 -0.1518
   91MOL    H7711057   0.010   7.372   3.109 -1.4885 -0.6922  2.2772
   91MOL    H7811058   8.514   7.234   3.009 -0.6814  0.6054 -1.7870
   91MOL    H7911059   8.292   7.360   3.183  1.5075  0.3147  0.6505
   91MOL    C8011060   8.231   7.204   3.048 -0.4619  0.0185 -0.3331
   91MOL    C8111061   8.093   7.216   3.109 -0.0944  1.0494 -0.3171
   91MOL   Cl8211062   8.002   7.079   3.032 -0.2047 -0.0994  0.1108
   91MOL    H8311063   8.261   7.099   3.053 -0.3238  0.0625 -0.2379
   91MOL    H8411064   8.232   7.241   2.945 -1.3250 -0.8417 -0.6587
   91MOL    H8511065   8.107   7.184   3.212 -1.1099  0.0494 -0.4801
   91MOL    C8611066   8.025   7.353   3.074  0.2193 -0.1729  0.0190
   91MOL    C8711067   7.918   7.406   3.174  0.1888 -0.2463 -0.5197
   91MOL   Cl8811068   7.984   7.412   3.343 -0.4909  0.1468 -0.1735
   91MOL    H8911069   7.998   7.349   2.969  1.6999  0.6572 -0.3957
   91MOL    H9011070   8.111   7.419   3.077 -0.1678  0.3891 -1.0899
   91MOL    H9111071   7.901   7.512   3.156  0.0001 -0.1461  0.2006
   91MOL    C9211072   7.785   7.331   3.181  0.2668 -0.0627  0.3103
   91MOL    C9311073   7.712   7.331   3.051 -0.3342  0.6963 -0.1770
   91MOL   Cl9411074   7.667   7.500   3.000  0.1013  0.2172  0.1704
   91MOL    H9511075   7.724   7.379   3.257  0.2716  1.6420 -0.7486
   91MOL    H9611076   7.805   7.228   3.209  0.5580 -0.2055 -0.4022
   91MOL    H9711077   7.767   7.291   2.966 -0.3817 -0.5181  0.3561
   91MOL    C9811078   7.578   7.250   3.068 -0.0672 -0.1901 -0.2034
   91MOL    C9911079   7.488   7.239   2.941  0.2795  0.1031  0.7271
   91MOL  Cl10011080   7.370   7.374   2.947 -0.4943  0.5635  0.1690
   91MOL   H10111081   7.520   7.300   3.146 -2.5370 -0.3511 -1.8646
   91MOL   H10211082   7.604   7.156   3.115  1.8690  0.2904 -0.2831
   91MOL   H10311083   7.547   7.264   2.853 -1.7464 -0.3695 -0.8172
   91MOL   C10411084   7.416   7.108   2.936  0.6350  0.1547  0.2810
   91MOL   C10511085   7.343   7.084   2.805 -0.7174  0.0929 -0.7320
   91MOL  Cl10611086   7.274   6.925   2.810  0.1066 -0.0944 -0.1726
   91MOL   H10711087   7.338   7.109   3.012 -0.9909 -0.2873 -1.3352
   91MOL   H10811088   7.483   7.026   2.963 -0.7376 -0.1538  2.8773
   91MOL   H10911089   7.259   7.153   2.807 -2.2032 -1.7047  1.3170
   91MOL   C11011090   7.425   7.093   2.671  0.6303  0.4824 -0.7165
   91MOL   C11111091   7.349   7.087   2.539 -0.2568  0.6745 -0.0168
   91MOL  Cl11211092   7.444   7.017   2.408  0.3336 -0.7218 -0.0135
   91MOL   H11311093   7.494   7.009   2.668  1.2144  0.8112  1.8314
   91MOL   H11411094   7.495   7.177   2.674  2.3898 -0.9000 -2.3109
   91MOL   H11511095   7.270   7.012   2.550 -0.4804  0.9994  0.5923
   91MOL   C11611096   7.266   7.208   2.484 -1.2155  0.8898 -0.7188
   91MOL   C11711097   7.175   7.183   2.367 -0.1116  0.1089 -0.2224
   91MOL  Cl11811098   7.113   7.340   2.304 -0.1179  0.6348  0.4673
   91MOL   H11911099   7.348   7.279   2.472  0.6510 -1.6258 -3.5839
   91MOL   H12011100   7.206   7.244   2.568  0.0329  4.7150 -1.3302
   91MOL   H12111101   7.242   7.145   2.290 -0.2926 -0.2700 -0.1901
   91MOL   H12211102   7.093   7.112   2.379  0.6572 -0.8779 -0.7790
   92MOL     C111103   6.238   1.883   0.251 -0.2677 -0.0025  0.6199
   92MOL     C211104   6.327   1.910   0.375  0.4035  0.3383 -0.1552
   92MOL    Cl311105   6.425   2.045   0.346 -0.5765  0.8990 -0.0404
   92MOL     H411106   6.184   1.972   0.219  1.2214  0.6754 -0.0486
   92MOL     H511107   6.303   1.853   0.169 -0.0630  0.5167  0.5911
   92MOL     H611108   6.252   1.927   0.452  0.6419 -2.6388  0.8239
   92MOL     H711109   6.160   1.808   0.269 -1.1126  0.8876  0.6977
   92MOL     C811110   6.415   1.784   0.407  0.1651 -0.5904  0.3757
   92MOL     C911111   6.482   1.784   0.538  0.5310  0.4566 -0.4872
   92MOL   Cl1011112   6.576   1.632   0.547  0.1603  0.1379 -0.0025
   92MOL    H1111113   6.479   1.779   0.319 -1.2031  1.2054 -0.7514
   92MOL    H1211114   6.359   1.690   0.405 -1.4615  0.3911 -2.3699
   92MOL    H1311115   6.548   1.868   0.562  0.7663 -0.4003  1.9616
   92MOL    C1411116   6.379   1.785   0.657 -0.6689 -0.5717  0.1902
   92MOL    C1511117   6.449   1.820   0.796  0.0425 -0.1470 -0.4530
   92MOL   Cl1611118   6.375   1.722   0.923 -0.4213  0.2853 -0.2008
   92MOL    H1711119   6.330   1.689   0.675 -0.3741 -0.7633 -0.0330
   92MOL    H1811120   6.291   1.847   0.641 -0.3511 -1.0679 -3.9107
   92MOL    H1911121   6.553   1.787   0.796  0.0381 -0.2579  1.9553
   92MOL    C2011122   6.438   1.965   0.835 -0.2786 -0.7114 -0.7236
   92MOL    C2111123   6.508   2.068   0.743  0.3244  0.1449  0.6639
   92MOL   Cl2211124   6.678   2.027   0.739 -0.1690 -0.4089 -0.0606
   92MOL    H2311125   6.487   1.963   0.932 -0.5051 -0.6253 -0.6080
   92MOL    H2411126   6.334   1.994   0.849  0.1608  1.5261 -1.8138
   92MOL    H2511127   6.487   2.062   0.636  1.9081  2.0536  0.2131
   92MOL    C2611128   6.503   2.213   0.785 -1.0057  0.4816 -0.9500
   92MOL    C2711129   6.358   2.272   0.777  0.7516  0.3859  0.2888
   92MOL   Cl2811130   6.304   2.287   0.603 -0.1431  0.0308  0.1110
   92MOL    H2911131   6.568   2.276   0.726 -0.2512 -1.3957 -2.1530
   92MOL    H3011132   6.538   2.216   0.888 -3.7704  2.3554  0.0010
   92MOL    H3111133   6.287   2.206   0.828 -0.8569  1.5747 -0.3482
   92MOL    C3211134   6.331   2.407   0.850 -0.3419  0.4734  0.2623
   92MOL    C3311135   6.384   2.537   0.784  0.3036  0.0156  0.3931
   92MOL   Cl3411136   6.559   2.543   0.816  0.2021 -0.3257 -0.2807
   92MOL    H3511137   6.377   2.400   0.948  0.0536 -2.1031 -0.0503
   92MOL    H3611138   6.224   2.414   0.867 -0.0203 -0.0479  2.6873
   92MOL    H3711139   6.376   2.540   0.675  2.9384  2.7512  0.1750
   92MOL    C3811140   6.324   2.673   0.838  0.3364  0.0607  0.0678
   92MOL    C3911141   6.178   2.683   0.838  0.1005  0.1493 -0.3321
   92MOL   Cl4011142   6.115   2.659   0.674  0.0276 -0.0782  0.0020
   92MOL    H4111143   6.371   2.747   0.774 -1.2631  1.1220  0.0854
   92MOL    H4211144   6.360   2.682   0.941 -0.6045 -0.8796  0.4881
   92MOL    H4311145   6.143   2.605   0.905 -0.2833  1.4962  1.0623
   92MOL    C4411146   6.129   2.828   0.887  0.0050 -0.2362 -0.2679
   92MOL    C4511147   6.169   2.887   1.029  0.0307 -0.8700  0.3216
   92MOL   Cl4611148   6.349   2.923   1.039  0.2953 -0.0754  0.1827
   92MOL    H4711149   6.020   2.834   0.877  0.2681  0.5766 -3.2677
   92MOL    H4811150   6.176   2.903   0.824 -0.0981  1.5683  1.7715
   92MOL    H4911151   6.115   2.980   1.049  1.1345  0.1222 -1.2674
   92MOL    C5011152   6.139   2.798   1.153 -1.1497 -0.2745  0.1794
   92MOL    C5111153   5.996   2.759   1.170 -0.4327  0.2375  0.0281
   92MOL   Cl5211154   5.892   2.906   1.181  0.0133  0.0539 -0.1062
   92MOL    H5311155   6.181   2.851   1.238 -0.8076 -1.3472  0.6917
   92MOL    H5411156   6.210   2.718   1.131 -0.2945  0.7568 -0.8408
   92MOL    H5511157   5.971   2.701   1.081  2.0239 -2.0358  0.7821
   92MOL    C5611158   5.966   2.676   1.296 -0.2172  0.1141 -1.3328
   92MOL    C5711159   6.053   2.548   1.330  0.4921 -0.6839  0.3969
   92MOL   Cl5811160   6.085   2.458   1.183  0.2277  0.1362  0.0502
   92MOL    H5911161   5.872   2.633   1.264 -0.4410  1.4953 -2.5920
   92MOL    H6011162   5.956   2.735   1.388 -0.3196 -0.1018 -1.2060
   92MOL    H6111163   6.149   2.586   1.366  1.3005 -2.2900 -0.0120
   92MOL    C6211164   5.987   2.462   1.439 -0.5129  0.3965  0.3201
   92MOL    C6311165   6.073   2.428   1.569  0.4902  0.0344  0.8988
   92MOL   Cl6411166   6.214   2.332   1.525  0.5457 -0.3141  0.0627
   92MOL    H6511167   5.961   2.367   1.392 -0.6163  1.8273 -2.6009
   92MOL    H6611168   5.889   2.497   1.471 -0.0385  1.0417  1.0900
   92MOL    H6711169   6.110   2.519   1.617 -0.5642  0.9256  0.0490
   92MOL    C6811170   5.999   2.340   1.665  0.0143 -0.2879  0.3975
   92MOL    C6911171   5.885   2.412   1.734 -0.8553  0.1804  0.3065
   92MOL   Cl7011172   5.942   2.562   1.819 -0.2789 -0.1350 -0.3662
   92MOL    H7111173   6.073   2.312   1.740  0.4170 -1.6164 -0.4786
   92MOL    H7211174   5.969   2.252   1.608  0.1341  1.0792 -1.8570
   92MOL    H7311175   5.823   2.439   1.648  0.3994 -1.6005 -1.1926
   92MOL    C7411176   5.810   2.328   1.835  0.7635  0.6374  0.4692
   92MOL    C7511177   5.722   2.230   1.769 -0.0795  0.1715  0.2908
   92MOL   Cl7611178   5.598   2.321   1.690 -0.0395  0.0674  0.4890
   92MOL    H7711179   5.736   2.396   1.877  0.6714 -0.2059  1.6959
   92MOL    H7811180   5.871   2.290   1.917 -0.2385 -0.4255  0.7290
   92MOL    H7911181   5.786   2.168   1.707  2.1302 -0.2854  2.9393
   92MOL    C8011182   5.655   2.126   1.863  0.6069  0.1201  0.8153
   92MOL    C8111183   5.562   2.019   1.793 -0.0667 -0.2371 -0.2132
   92MOL   Cl8211184   5.481   1.931   1.927  0.2745 -0.0264  0.1232
   92MOL    H8311185   5.607   2.178   1.946  1.0486  0.1474  1.0589
   92MOL    H8411186   5.733   2.069   1.914  2.5215  1.2581 -0.7453
   92MOL    H8511187   5.483   2.067   1.734 -0.2239  0.3144  0.4354
   92MOL    C8611188   5.636   1.919   1.706 -0.1070  0.0457 -0.0514
   92MOL    C8711189   5.534   1.826   1.642  0.3680 -0.0613 -0.7167
   92MOL   Cl8811190   5.585   1.654   1.671 -0.4360  0.1834 -0.2308
   92MOL    H8911191   5.702   1.850   1.760  0.1746  0.5329  0.2288
   92MOL    H9011192   5.696   1.975   1.634  1.0885 -1.3151 -0.1556
   92MOL    H9111193   5.435   1.829   1.689  0.4461  1.4016 -0.6192
   92MOL    C9211194   5.523   1.838   1.484  0.7381 -0.1863 -0.2955
   92MOL    C9311195   5.469   1.971   1.422  0.5996 -0.1148 -0.2180
   92MOL   Cl9411196   5.306   1.998   1.495 -0.3708 -0.2026  0.0726
   92MOL    H9511197   5.444   1.768   1.460 -0.0684 -0.0793  1.9010
   92MOL    H9611198   5.616   1.805   1.436  0.9475 -1.1556  0.7467
   92MOL    H9711199   5.528   2.057   1.455  0.0931  0.3332 -0.4716
   92MOL    C9811200   5.459   1.965   1.271  0.7616  0.3733 -0.0903
   92MOL    C9911201   5.478   2.089   1.189 -0.5056  0.0842 -0.3021
   92MOL  Cl10011202   5.382   2.070   1.046  0.3527  0.1950 -0.0467
   92MOL   H10111203   5.361   1.923   1.249  0.8990 -0.3720  0.6767
   92MOL   H10211204   5.513   1.880   1.229 -1.1254 -0.0928 -1.6616
   92MOL   H10311205   5.446   2.174   1.250  1.8716  0.7233  0.0957
   92MOL   C10411206   5.628   2.109   1.139 -0.1286 -0.0904  0.5240
   92MOL   C10511207   5.735   2.117   1.243  0.1469 -0.2123 -0.3332
   92MOL  Cl10611208   5.692   2.257   1.343  0.1447  0.4114 -0.6442
   92MOL   H10711209   5.634   2.202   1.082 -1.9622 -0.9659 -1.1852
   92MOL   H10811210   5.652   2.038   1.060 -0.6173 -0.4812  0.7247
   92MOL   H10911211   5.731   2.031   1.311  0.6642 -0.8435 -1.0965
   92MOL   C11011212   5.876   2.145   1.189 -0.4697 -0.2580 -0.4528
   92MOL   C11111213   5.946   2.036   1.106  0.6388 -0.4889 -0.1977
   92MOL  Cl11211214   5.941   1.872   1.177 -0.0791  0.1653 -0.3218
   92MOL   H11311215   5.939   2.191   1.266  1.1868 -2.5121 -0.4186
   92MOL   H11411216   5.860   2.225   1.116 -1.5941 -1.9019 -2.0297
   92MOL   H11511217   5.886   2.020   1.016 -3.2965  3.2639  1.5802
   92MOL   C11611218   6.086   2.073   1.078 -0.3123  0.2525 -0.1057
   92MOL   C11711219   6.192   2.045   1.184  0.1504  0.1538  0.0019
   92MOL  Cl11811220   6.357   2.101   1.137 -0.2568  0.2293 -0.3884
   92MOL   H11911221   6.097   2.171   1.031 -4.6734  0.2274 -1.3540
   92MOL   H12011222   6.111   2.003   0.998 -1.0613  0.6478 -0.6939
   92MOL   H12111223   6.161   2.100   1.273  0.0198  0.2183 -0.0824
   92MOL   H12211224   6.195   1.938   1.201 -1.2318 -0.0430 -0.9134
   93MOL     C111225   3.174   4.816   5.990  0.1148 -0.0090  0.0160
   93MOL     C211226   3.139   4.663   5.987 -0.3055 -0.1929 -0.0156
   93MOL    Cl311227   3.254   4.567   5.885 -0.2136 -0.4141  0.2328
   93MOL     H411228   3.177   4.866   5.894  1.5333 -3.3994 -1.7868
   93MOL     H511229   3.113   4.872   6.061 -0.4694  0.2804 -0.7180
   93MOL     H611230   3.140   4.631   6.091 -1.6248 -0.1993  0.0027
   93MOL     H711231   3.280   4.836   6.011  0.2690  0.3470 -1.0502
   93MOL     C811232   3.001   4.635   5.923 -0.2963  0.1317 -0.4246
   93MOL     C911233   2.897   4.716   6.001  0.1784  0.7537 -0.2004
   93MOL   Cl1011234   2.907   4.673   6.169 -0.2557 -0.1901 -0.4580
   93MOL    H1111235   2.972   4.530   5.928 -0.0854  0.1242  0.7745
   93MOL    H1211236   3.007   4.660   5.817  0.6537 -1.2570 -0.7121
   93MOL    H1311237   2.912   4.824   5.996 -0.6908  0.8827 -0.2161
   93MOL    C1411238   2.748   4.692   5.956  0.9380  0.2314 -0.5190
   93MOL    C1511239   2.708   4.715   5.811 -0.1406 -0.0495  0.3419
   93MOL   Cl1611240   2.770   4.589   5.697  0.1421  0.1065 -0.0849
   93MOL    H1711241   2.689   4.761   6.016 -1.5095 -3.1377  1.1178
   93MOL    H1811242   2.713   4.590   5.973  0.8439  0.5223  1.1458
   93MOL    H1911243   2.601   4.698   5.820  0.0011 -0.2229  1.8157
   93MOL    C2011244   2.749   4.861   5.772 -0.0193  1.1884  0.1050
   93MOL    C2111245   2.698   4.887   5.632  0.0611 -0.5063 -0.7382
   93MOL   Cl2211246   2.787   5.020   5.558  0.0959 -0.0218 -0.2925
   93MOL    H2311247   2.858   4.868   5.767  0.0673 -0.8165 -1.4361
   93MOL    H2411248   2.726   4.945   5.837 -0.0732  0.7841  0.6076
   93MOL    H2511249   2.720   4.801   5.569 -1.0594 -2.9650  2.0898
   93MOL    C2611250   2.547   4.904   5.631  0.1653  0.4203  0.5344
   93MOL    C2711251   2.481   5.040   5.662 -0.3626  0.1040  0.3682
   93MOL   Cl2811252   2.373   5.002   5.800  0.2573  0.0517  0.2253
   93MOL    H2911253   2.499   4.816   5.673 -0.2134  0.0560 -0.6556
   93MOL    H3011254   2.521   4.878   5.528 -2.5712 -1.9419  1.7549
   93MOL    H3111255   2.556   5.111   5.695  0.2797 -0.1194 -0.6018
   93MOL    C3211256   2.389   5.098   5.549 -0.1347  0.0297  0.4763
   93MOL    C3311257   2.475   5.142   5.424  0.2202  0.2639 -0.2657
   93MOL   Cl3411258   2.559   5.284   5.471 -0.1850 -0.1625  0.1356
   93MOL    H3511259   2.318   5.166   5.596  0.4283 -0.0775  1.4785
   93MOL    H3611260   2.312   5.026   5.519  1.1258 -0.9422 -0.4742
   93MOL    H3711261   2.542   5.062   5.395 -0.3476 -0.2407 -0.1860
   93MOL    C3811262   2.387   5.177   5.300 -0.2486 -0.3817  0.1497
   93MOL    C3911263   2.461   5.254   5.187 -0.0333  0.4556  0.0142
   93MOL   Cl4011264   2.343   5.264   5.048  0.0376  0.0014 -0.1580
   93MOL    H4111265   2.294   5.227   5.328  0.3027  0.6112  0.2274
   93MOL    H4211266   2.363   5.079   5.261 -0.6142 -1.0269  1.9755
   93MOL    H4311267   2.476   5.357   5.219 -2.9607  1.1240 -0.5974
   93MOL    C4411268   2.593   5.179   5.143  0.5377 -0.1474 -0.3247
   93MOL    C4511269   2.664   5.257   5.022 -0.4930 -0.3105 -0.4140
   93MOL   Cl4611270   2.616   5.212   4.861 -0.4255 -0.1097 -0.0884
   93MOL    H4711271   2.574   5.076   5.113 -2.0226  0.0991  0.3987
   93MOL    H4811272   2.661   5.162   5.227 -0.6429 -0.5573  0.5553
   93MOL    H4911273   2.623   5.357   5.037  0.3560 -0.2236  1.4549
   93MOL    C5011274   2.818   5.258   5.042 -0.1563 -0.1939  0.1034
   93MOL    C5111275   2.866   5.383   5.125 -0.3467  0.6651 -0.1907
   93MOL   Cl5211276   3.022   5.436   5.062 -0.0563  0.0356 -0.1331
   93MOL    H5311277   2.863   5.259   4.943 -0.4413 -1.0064 -0.0354
   93MOL    H5411278   2.863   5.164   5.073  3.4106  1.9525  1.8845
   93MOL    H5511279   2.792   5.461   5.110 -3.9016 -2.4887  0.2963
   93MOL    C5611280   2.885   5.349   5.276  0.0338  0.2000 -0.2118
   93MOL    C5711281   2.950   5.469   5.363 -0.1956 -0.4101 -0.1201
   93MOL   Cl5811282   3.024   5.411   5.513  0.3500  0.0016  0.2009
   93MOL    H5911283   2.959   5.269   5.268 -0.2439 -0.0789 -0.0173
   93MOL    H6011284   2.793   5.306   5.315 -0.3189  2.4035  1.4884
   93MOL    H6111285   3.033   5.509   5.306 -1.0046  2.3553  0.5790
   93MOL    C6211286   2.849   5.580   5.399  0.1762 -0.1273  0.0544
   93MOL    C6311287   2.904   5.721   5.369  0.3494  0.3009  0.0016
   93MOL   Cl6411288   2.908   5.736   5.193 -0.2646 -0.5200  0.2667
   93MOL    H6511289   2.823   5.569   5.504 -0.9140 -1.5961 -0.3564
   93MOL    H6611290   2.764   5.563   5.334 -0.8665 -1.0135  1.6086
   93MOL    H6711291   2.831   5.795   5.403 -0.2807  1.2306 -3.2414
   93MOL    C6811292   3.042   5.765   5.430 -0.4579  0.6796 -0.0174
   93MOL    C6911293   3.083   5.913   5.403 -0.2732 -0.4148  0.7103
   93MOL   Cl7011294   3.231   5.937   5.490  0.3804 -0.0791 -0.0735
   93MOL    H7111295   3.121   5.700   5.393 -1.4509  0.0906 -1.1374
   93MOL    H7211296   3.029   5.752   5.538 -0.5148  0.9861  0.0132
   93MOL    H7311297   3.091   5.932   5.296 -0.6249 -2.4416  0.3140
   93MOL    C7411298   2.986   6.018   5.466 -0.1667  0.1432 -0.1636
   93MOL    C7511299   2.927   6.119   5.368 -0.1598  0.1916  0.1532
   93MOL   Cl7611300   3.055   6.240   5.324  0.2012 -0.0134 -0.0746
   93MOL    H7711301   3.032   6.077   5.545 -0.8987  3.2372 -1.9865
   93MOL    H7811302   2.902   5.962   5.508  1.6947 -0.9382  2.2593
   93MOL    H7911303   2.898   6.062   5.279 -0.4369 -0.3882  0.6112
   93MOL    C8011304   2.802   6.184   5.418 -0.0812  0.1664  0.7120
   93MOL    C8111305   2.764   6.307   5.340  0.2143 -0.3593 -0.0901
   93MOL   Cl8211306   2.629   6.381   5.435 -0.6965 -0.0963 -0.2172
   93MOL    H8311307   2.813   6.216   5.521  0.6672 -1.3618  1.1245
   93MOL    H8411308   2.720   6.112   5.428 -0.3310  0.5329  1.3433
   93MOL    H8511309   2.848   6.377   5.334  0.5828 -0.8636 -1.1517
   93MOL    C8611310   2.728   6.279   5.189  1.0631 -0.4561 -0.0658
   93MOL    C8711311   2.607   6.191   5.172  0.1898 -0.3112 -0.2589
   93MOL   Cl8811312   2.649   6.016   5.189  0.1295 -0.1703 -0.2446
   93MOL    H8911313   2.810   6.248   5.124 -0.9429 -0.4939 -2.6845
   93MOL    H9011314   2.708   6.370   5.132  0.2985 -1.6056 -1.6859
   93MOL    H9111315   2.541   6.215   5.256 -0.8231  0.1384 -1.1770
   93MOL    C9211316   2.536   6.199   5.038  0.0687  0.1000  0.2574
   93MOL    C9311317   2.455   6.329   5.006  0.0048  0.9387 -0.4525
   93MOL   Cl9411318   2.327   6.326   5.126 -0.5705 -0.0840  0.0632
   93MOL    H9511319   2.467   6.115   5.037 -0.7838  0.7864  0.6059
   93MOL    H9611320   2.612   6.179   4.964  0.5689 -1.3515  1.1263
   93MOL    H9711321   2.514   6.418   5.031 -0.7876  2.1304 -2.6891
   93MOL    C9811322   2.399   6.344   4.862 -0.2480 -0.6319 -0.4986
   93MOL    C9911323   2.510   6.339   4.752  0.8481  0.4052 -0.1332
   93MOL  Cl10011324   2.628   6.469   4.788  0.3192  0.1364 -0.1518
   93MOL   H10111325   2.348   6.441   4.864 -0.8564 -0.9150 -1.6331
   93MOL   H10211326   2.324   6.268   4.845 -0.1392 -0.6408 -0.9393
   93MOL   H10311327   2.563   6.244   4.764 -0.5133 -0.2797  0.4959
   93MOL   C10411328   2.446   6.364   4.610 -0.2140 -0.3323 -0.2194
   93MOL   C10511329   2.359   6.256   4.567  0.0353 -0.1916  0.4107
   93MOL  Cl10611330   2.455   6.109   4.583  0.0082  0.2217  0.3208
   93MOL   H10711331   2.526   6.374   4.537 -1.0940 -1.4767 -1.3520
   93MOL   H10811332   2.403   6.464   4.614  1.3781  0.3609  0.1397
   93MOL   H10911333   2.278   6.236   4.637 -0.2388  1.8536  0.7038
   93MOL   C11011334   2.302   6.267   4.425  0.1656 -0.7923 -0.4458
   93MOL   C11111335   2.170   6.186   4.406 -0.0095 -0.1662  0.0899
   93MOL  Cl11211336   2.206   6.010   4.385  0.1152  0.1120 -0.1423
   93MOL   H11311337   2.366   6.238   4.341  0.1375  1.6457 -1.3487
   93MOL   H11411338   2.282   6.374   4.420  0.5072 -0.6394  1.1243
   93MOL   H11511339   2.114   6.200   4.498 -3.2223  1.9978 -2.0972
   93MOL   C11611340   2.081   6.222   4.285  0.3658 -0.0376 -0.3614
   93MOL   C11711341   2.028   6.370   4.287 -0.5483 -0.0109  0.3838
   93MOL  Cl11811342   1.907   6.366   4.414  0.3394 -0.2501  0.1713
   93MOL   H11911343   1.991   6.162   4.271 -1.7818  3.1441 -0.6741
   93MOL   H12011344   2.133   6.206   4.191 -0.9269  0.5397 -1.1926
   93MOL   H12111345   2.103   6.446   4.308 -0.4043 -0.4457  1.4268
   93MOL   H12211346   1.978   6.398   4.194  1.2088 -1.2519 -0.9454
   94MOL     C111347   3.774   7.914   4.463  0.0995  0.1298  0.6853
   94MOL     C211348   3.787   8.025   4.564 -0.6317 -0.5486 -0.8039
   94MOL    Cl311349   3.827   7.954   4.726 -0.0168  0.0707  0.0335
   94MOL     H411350   3.753   7.960   4.366  1.9907 -0.5942 -0.0846
   94MOL     H511351   3.860   7.849   4.455  0.2159  0.2187  1.2258
   94MOL     H611352   3.882   8.070   4.532  0.3492 -1.3547  0.9113
   94MOL     H711353   3.700   7.850   4.510  0.3007 -0.8198 -0.2792
   94MOL     C811354   3.676   8.131   4.567 -0.1060 -0.0092 -0.2841
   94MOL     C911355   3.668   8.227   4.448  0.6850  0.1138  0.1185
   94MOL   Cl1011356   3.787   8.360   4.457 -0.0857 -0.1861  0.3112
   94MOL    H1111357   3.692   8.182   4.663 -1.9927  2.8016 -1.3901
   94MOL    H1211358   3.585   8.073   4.579  0.9196 -1.2641  1.7329
   94MOL    H1311359   3.688   8.172   4.356 -0.6216  0.1622 -0.2132
   94MOL    C1411360   3.534   8.297   4.441  0.2726 -0.5592 -0.2677
   94MOL    C1511361   3.502   8.359   4.297 -0.2079 -0.2535  0.8816
   94MOL   Cl1611362   3.349   8.454   4.306  0.0056 -0.0872  0.3351
   94MOL    H1711363   3.542   8.381   4.511 -2.6324 -1.6281  1.4522
   94MOL    H1811364   3.448   8.244   4.482 -0.1108  0.0838 -0.2287
   94MOL    H1911365   3.580   8.428   4.264 -0.5618 -0.6862 -0.9278
   94MOL    C2011366   3.475   8.253   4.190 -0.4725  0.1907  0.3896
   94MOL    C2111367   3.521   8.288   4.052 -1.1583  0.2966  0.3463
   94MOL   Cl2211368   3.395   8.405   3.983  0.0130  0.3260 -0.0098
   94MOL    H2311369   3.368   8.241   4.179 -0.1266 -1.0416 -1.7496
   94MOL    H2411370   3.500   8.151   4.220 -0.7815  0.6493  2.3021
   94MOL    H2511371   3.619   8.336   4.050 -0.1398 -1.7526 -0.3852
   94MOL    C2611372   3.533   8.172   3.960 -0.7165  0.5816  0.4108
   94MOL    C2711373   3.627   8.058   4.005 -0.6416  0.1518 -0.3281
   94MOL   Cl2811374   3.786   8.124   4.005  0.3226  0.0829 -0.4687
   94MOL    H2911375   3.562   8.219   3.865  2.4301 -1.8515  0.0735
   94MOL    H3011376   3.435   8.126   3.948 -0.3884  0.4290 -2.1112
   94MOL    H3111377   3.609   8.026   4.107 -1.1351  1.4261 -0.0013
   94MOL    C3211378   3.617   7.943   3.910  0.3849 -0.2507  0.5356
   94MOL    C3311379   3.719   7.835   3.938 -0.3919  0.5449  0.2996
   94MOL   Cl3411380   3.708   7.716   3.809  0.3911 -0.0731  0.2733
   94MOL    H3511381   3.621   7.982   3.808 -0.2130  0.4801  0.7880
   94MOL    H3611382   3.513   7.915   3.919  0.8600 -2.8511 -1.4383
   94MOL    H3711383   3.816   7.885   3.930 -0.4764  0.6248 -0.1997
   94MOL    C3811384   3.705   7.758   4.073 -0.1545  0.3299  0.3038
   94MOL    C3911385   3.844   7.682   4.096 -0.1634 -0.3483 -0.6640
   94MOL   Cl4011386   3.809   7.566   4.227  0.0149 -0.0201  0.0318
   94MOL    H4111387   3.615   7.697   4.069 -1.3868  2.1930 -1.7231
   94MOL    H4211388   3.705   7.820   4.162  0.3390  1.6792 -0.6242
   94MOL    H4311389   3.856   7.628   4.003  0.9653  1.8842 -1.8693
   94MOL    C4411390   3.966   7.774   4.137 -0.0419  0.1728  0.7631
   94MOL    C4511391   4.096   7.682   4.161  0.9423 -0.9396  0.3907
   94MOL   Cl4611392   4.221   7.787   4.242 -0.1058 -0.2611 -0.0339
   94MOL    H4711393   3.940   7.822   4.232 -1.4537 -0.6261  0.7916
   94MOL    H4811394   3.994   7.851   4.065  2.4921  0.0293  1.5254
   94MOL    H4911395   4.085   7.607   4.240  1.3210 -0.0921  1.2661
   94MOL    C5011396   4.155   7.622   4.032 -0.4281  0.1666  0.1468
   94MOL    C5111397   4.297   7.552   4.039 -0.1232  0.0338 -0.0145
   94MOL   Cl5211398   4.336   7.502   3.873  0.0871 -0.2481  0.3047
   94MOL    H5311399   4.165   7.698   3.955  2.5063 -1.4088 -1.1445
   94MOL    H5411400   4.081   7.550   3.996  1.4422 -2.0382  0.5293
   94MOL    H5511401   4.369   7.633   4.052  0.5552 -0.7435  1.1202
   94MOL    C5611402   4.316   7.437   4.146  0.7071  0.0988  0.3081
   94MOL    C5711403   4.458   7.396   4.186  0.0925 -0.4596 -0.0968
   94MOL   Cl5811404   4.545   7.542   4.241  0.0301 -0.2235 -0.0463
   94MOL    H5911405   4.259   7.349   4.116 -0.9478  1.8180 -1.8118
   94MOL    H6011406   4.269   7.460   4.241 -2.0918  0.8319 -1.2000
   94MOL    H6111407   4.461   7.331   4.273 -2.1683 -2.2489 -1.2846
   94MOL    C6211408   4.546   7.323   4.079  0.0878  0.3276  0.1245
   94MOL    C6311409   4.472   7.205   4.015 -0.6365 -0.1168 -0.0952
   94MOL   Cl6411410   4.463   7.067   4.135 -0.1416  0.2327  0.3105
   94MOL    H6511411   4.643   7.290   4.116 -0.8899 -1.3612  1.3099
   94MOL    H6611412   4.568   7.397   4.002 -1.5254  0.8070  0.1021
   94MOL    H6711413   4.374   7.243   3.989 -1.3682 -2.0130 -0.1751
   94MOL    C6811414   4.563   7.152   3.898  0.1116 -0.1902  0.6173
   94MOL    C6911415   4.528   7.014   3.836  0.2100 -0.3756  0.7368
   94MOL   Cl7011416   4.651   6.971   3.716  0.1490  0.2906 -0.2399
   94MOL    H7111417   4.668   7.147   3.927 -0.3074 -2.8255  1.7868
   94MOL    H7211418   4.550   7.227   3.820  1.4491 -1.2876 -0.6956
   94MOL    H7311419   4.538   6.933   3.908  0.2839 -0.9580  0.0849
   94MOL    C7411420   4.388   7.013   3.758  0.3495  0.3487 -0.1480
   94MOL    C7511421   4.319   6.870   3.744 -0.0362  0.2294  0.2701
   94MOL   Cl7611422   4.296   6.790   3.906 -0.0678  0.3563 -0.1952
   94MOL    H7711423   4.398   7.060   3.660 -1.2469  0.3606 -0.3042
   94MOL    H7811424   4.315   7.072   3.813  1.3896  1.5285  0.0008
   94MOL    H7911425   4.219   6.880   3.703  0.3887  1.4854 -0.4776
   94MOL    C8011426   4.382   6.772   3.640 -0.2746  0.6642 -0.0051
   94MOL    C8111427   4.417   6.824   3.505 -0.2160  0.3886 -0.0785
   94MOL   Cl8211428   4.256   6.854   3.419 -0.3196  0.0902 -0.0663
   94MOL    H8311429   4.305   6.696   3.631 -0.9047  1.4633 -1.5162
   94MOL    H8411430   4.473   6.721   3.672 -1.7023 -2.1499 -0.2795
   94MOL    H8511431   4.472   6.918   3.508 -1.2921  0.9745  1.8985
   94MOL    C8611432   4.491   6.728   3.421  0.3155  0.1052 -0.0531
   94MOL    C8711433   4.543   6.776   3.281 -0.4877 -0.0424 -0.1129
   94MOL   Cl8811434   4.572   6.631   3.183  0.2984  0.5227 -0.0028
   94MOL    H8911435   4.421   6.645   3.413  0.1555  0.1729  0.7038
   94MOL    H9011436   4.581   6.686   3.466  0.7216 -0.5344 -1.4125
   94MOL    H9111437   4.459   6.823   3.231  0.1717  2.5604  1.1464
   94MOL    C9211438   4.671   6.868   3.298  0.3696 -0.4457  0.2680
   94MOL    C9311439   4.738   6.920   3.164 -0.4763  0.5949  0.3245
   94MOL   Cl9411440   4.892   6.997   3.192  0.3626 -0.0355  0.1174
   94MOL    H9511441   4.747   6.811   3.352  0.7368 -0.5295 -0.3393
   94MOL    H9611442   4.650   6.952   3.364  1.1793 -0.6262  0.7615
   94MOL    H9711443   4.766   6.834   3.103 -1.0867  0.1066  0.7226
   94MOL    C9811444   4.640   7.008   3.086  0.1648  0.0774  0.1804
   94MOL    C9911445   4.595   6.948   2.947 -0.6194 -0.2370 -0.0405
   94MOL  Cl10011446   4.732   6.947   2.833 -0.2513 -0.3100 -0.0807
   94MOL   H10111447   4.680   7.110   3.080  0.1115  0.1811  1.4112
   94MOL   H10211448   4.542   7.018   3.131 -0.2320  3.9038 -1.3273
   94MOL   H10311449   4.568   6.845   2.968  0.4710 -0.1682  1.7955
   94MOL   C10411450   4.475   7.014   2.880 -0.5885 -0.5176  0.5083
   94MOL   C10511451   4.414   6.940   2.759  1.4297  0.0439 -0.9607
   94MOL  Cl10611452   4.355   7.060   2.638  0.3555 -0.0509 -0.4773
   94MOL   H10711453   4.503   7.117   2.858 -2.4963 -0.0757  0.0202
   94MOL   H10811454   4.395   7.024   2.953 -1.4380 -0.2939 -0.4457
   94MOL   H10911455   4.483   6.867   2.717 -0.6656 -3.1019  0.8876
   94MOL   C11011456   4.286   6.857   2.810 -0.9732 -0.4776 -0.9397
   94MOL   C11111457   4.250   6.727   2.728 -0.5752  0.5164  0.3386
   94MOL  Cl11211458   4.104   6.659   2.798  0.1671  0.1519  0.5463
   94MOL   H11311459   4.198   6.921   2.822 -2.0077 -2.0753  0.2797
   94MOL   H11411460   4.300   6.821   2.912  0.5900 -3.0590 -2.0159
   94MOL   H11511461   4.238   6.749   2.622  3.9296  0.7968 -0.2089
   94MOL   C11611462   4.352   6.610   2.741  0.0119  0.5389  0.2716
   94MOL   C11711463   4.316   6.482   2.669  1.0353  0.3847 -0.4352
   94MOL  Cl11811464   4.274   6.498   2.504 -0.0167 -0.0108  0.1904
   94MOL   H11911465   4.384   6.593   2.844  1.6036 -2.0117 -0.5926
   94MOL   H12011466   4.447   6.635   2.694 -0.3084  1.7090  0.2319
   94MOL   H12111467   4.377   6.391   2.675 -0.7166 -0.8118 -0.2730
   94MOL   H12211468   4.220   6.443   2.704 -0.0701  0.0392 -3.6141
   95MOL     C111469   5.462   4.160   2.777  1.0823 -0.3262 -0.1899
   95MOL     C211470   5.432   4.110   2.923 -0.2056  0.5443 -0.4407
   95MOL    Cl311471   5.291   4.007   2.923  0.2927 -0.2807 -0.0761
   95MOL     H411472   5.398   4.242   2.744  0.0578 -0.0224  2.4020
   95MOL     H511473   5.564   4.198   2.777  1.0764 -0.0565  3.6031
   95MOL     H611474   5.518   4.052   2.956  0.3909  2.1356  0.8251
   95MOL     H711475   5.462   4.078   2.705 -0.7926  0.0850 -0.6752
   95MOL     C811476   5.398   4.238   3.004  0.0462  0.6662 -0.3649
   95MOL     C911477   5.512   4.339   3.030 -0.2666  0.6820 -0.2423
   95MOL   Cl1011478   5.641   4.257   3.131 -0.4588  0.0500  0.2484
   95MOL    H1111479   5.359   4.222   3.104  1.6335 -1.2132 -0.0302
   95MOL    H1211480   5.312   4.285   2.956 -0.4999  1.1782  1.1026
   95MOL    H1311481   5.552   4.362   2.930 -0.4052 -1.7340 -0.8939
   95MOL    C1411482   5.478   4.466   3.094 -1.1576  0.7811  0.0578
   95MOL    C1511483   5.380   4.558   3.013 -0.3974  0.1868 -0.3090
   95MOL   Cl1611484   5.441   4.586   2.844  0.0314 -0.0823  0.2357
   95MOL    H1711485   5.567   4.526   3.113 -2.1564  1.8198  1.5706
   95MOL    H1811486   5.429   4.450   3.190 -0.3485  0.3105  0.3973
   95MOL    H1911487   5.284   4.506   3.011 -0.2550 -0.2598  2.9978
   95MOL    C2011488   5.357   4.699   3.079  0.6650 -0.1781  0.0500
   95MOL    C2111489   5.313   4.707   3.224 -0.3156  0.3730 -0.0092
   95MOL   Cl2211490   5.141   4.644   3.251  0.0152  0.6727  0.3135
   95MOL    H2311491   5.287   4.748   3.012 -0.0258  1.4752  1.9484
   95MOL    H2411492   5.454   4.748   3.080  1.0981 -1.0187  3.6566
   95MOL    H2511493   5.377   4.636   3.277  0.9793  0.9532 -0.7653
   95MOL    C2611494   5.329   4.855   3.279 -0.0668  0.8765  0.2980
   95MOL    C2711495   5.251   4.965   3.196  0.2103  0.2566  0.5970
   95MOL   Cl2811496   5.349   5.047   3.068 -0.2656 -0.1964  0.1549
   95MOL    H2911497   5.436   4.878   3.275 -0.0557  1.2822  2.3090
   95MOL    H3011498   5.296   4.853   3.382  0.1637  1.0758  0.3768
   95MOL    H3111499   5.163   4.919   3.151 -0.2211 -0.4632  2.1097
   95MOL    C3211500   5.198   5.072   3.301 -0.0363 -0.2495 -0.4122
   95MOL    C3311501   5.107   5.198   3.266 -0.0165  0.1779 -0.2111
   95MOL   Cl3411502   4.981   5.145   3.161 -0.2064 -0.0019 -0.2166
   95MOL    H3511503   5.274   5.108   3.370 -1.5586  0.3738  0.9915
   95MOL    H3611504   5.133   5.008   3.360 -0.8387 -0.9876 -2.0735
   95MOL    H3711505   5.066   5.223   3.364  1.0349 -0.5181  0.4123
   95MOL    C3811506   5.177   5.318   3.213  0.1377  0.1801 -0.1838
   95MOL    C3911507   5.292   5.378   3.305 -0.1731  0.3163 -0.6224
   95MOL   Cl4011508   5.222   5.434   3.456 -0.2599 -0.6319  0.2492
   95MOL    H4111509   5.103   5.392   3.182  0.6979  0.4634 -0.8704
   95MOL    H4211510   5.226   5.291   3.119  0.0623  0.6242 -0.3560
   95MOL    H4311511   5.374   5.310   3.329 -1.1169 -0.4084  0.5768
   95MOL    C4411512   5.356   5.503   3.239 -0.3577 -0.2966  0.7542
   95MOL    C4511513   5.473   5.564   3.315 -0.1963 -0.3225  0.6495
   95MOL   Cl4611514   5.526   5.693   3.209  0.6581  0.1244 -0.1175
   95MOL    H4711515   5.279   5.578   3.226  0.8453  0.7496 -0.5434
   95MOL    H4811516   5.376   5.465   3.138  0.2737  1.8600  0.0343
   95MOL    H4911517   5.443   5.618   3.405  0.2791  2.2292 -0.6599
   95MOL    C5011518   5.595   5.478   3.355  0.2507 -0.2932  0.0397
   95MOL    C5111519   5.709   5.562   3.418  1.9749  0.0428  0.1086
   95MOL   Cl5211520   5.856   5.467   3.433  0.3690  0.1959  0.2620
   95MOL    H5311521   5.614   5.424   3.262 -2.4355  1.6021 -1.6720
   95MOL    H5411522   5.558   5.406   3.428  1.3768 -0.1924  0.7123
   95MOL    H5511523   5.739   5.644   3.353  1.8120 -1.4571 -1.9037
   95MOL    C5611524   5.672   5.622   3.557 -0.0476  0.8538 -0.0507
   95MOL    C5711525   5.626   5.538   3.676 -0.1448  0.2041 -0.0867
   95MOL   Cl5811526   5.554   5.655   3.790 -0.1916 -0.2943 -0.0395
   95MOL    H5911527   5.604   5.704   3.536 -0.5803 -0.0723 -2.0804
   95MOL    H6011528   5.763   5.673   3.589  0.9965 -0.3338 -1.0774
   95MOL    H6111529   5.534   5.490   3.643 -0.6091 -0.4761  2.1057
   95MOL    C6211530   5.731   5.446   3.750  0.5484  0.3921 -0.5237
   95MOL    C6311531   5.722   5.294   3.731 -0.4420 -0.1882  0.8430
   95MOL   Cl6411532   5.572   5.233   3.806  0.1585  0.1478  0.3179
   95MOL    H6511533   5.711   5.456   3.857  2.2043  1.3419 -0.2716
   95MOL    H6611534   5.831   5.490   3.744  1.4354 -1.3044  1.2151
   95MOL    H6711535   5.717   5.276   3.623 -0.5001 -0.7223  0.9317
   95MOL    C6811536   5.839   5.216   3.793 -0.3128  0.2902  0.0345
   95MOL    C6911537   5.974   5.200   3.718  0.8979 -0.0310  0.5832
   95MOL   Cl7011538   6.059   5.357   3.717  0.0085 -0.5955  0.1996
   95MOL    H7111539   5.804   5.114   3.802  1.4510 -0.2118  1.5051
   95MOL    H7211540   5.859   5.252   3.894  2.0566 -0.2875 -0.2047
   95MOL    H7311541   6.033   5.131   3.778 -1.7307 -2.7195  0.2199
   95MOL    C7411542   5.962   5.148   3.575 -0.4220 -0.0898 -0.3567
   95MOL    C7511543   5.886   5.015   3.566  0.0362 -0.4869 -0.5301
   95MOL   Cl7611544   5.961   4.893   3.661  0.0044 -0.0703  0.1263
   95MOL    H7711545   6.060   5.128   3.530 -0.7461 -1.4120 -0.4911
   95MOL    H7811546   5.913   5.228   3.521 -0.9109  0.8490  1.4238
   95MOL    H7911547   5.783   5.033   3.596  0.8851  2.6418  0.6870
   95MOL    C8011548   5.897   4.964   3.417 -0.2595  0.5800 -0.0096
   95MOL    C8111549   5.823   5.050   3.317 -0.4581 -0.8883 -0.2782
   95MOL   Cl8211550   5.660   5.102   3.372  0.0154 -0.2411  0.3799
   95MOL    H8311551   5.854   4.864   3.420 -2.2053  1.2418 -2.8293
   95MOL    H8411552   5.998   4.948   3.379 -0.1919  0.3684  0.2583
   95MOL    H8511553   5.884   5.138   3.300  0.4856 -1.9341 -2.5919
   95MOL    C8611554   5.808   4.969   3.184  0.4415  0.2797 -0.3260
   95MOL    C8711555   5.753   5.049   3.068 -0.7508  0.1138  0.2950
   95MOL   Cl8811556   5.693   4.921   2.962  0.1399 -0.2573 -0.1797
   95MOL    H8911557   5.737   4.890   3.208  2.5921 -1.1381  1.5178
   95MOL    H9011558   5.902   4.923   3.154  0.0765  0.3897 -1.6863
   95MOL    H9111559   5.667   5.111   3.091 -0.3150  0.8900 -0.1427
   95MOL    C9211560   5.870   5.122   3.001 -0.2114 -0.1656 -0.8112
   95MOL    C9311561   5.839   5.258   2.934  0.1653 -0.4840 -0.1656
   95MOL   Cl9411562   5.791   5.378   3.060 -0.1415 -0.3287  0.5126
   95MOL    H9511563   5.915   5.046   2.938  0.4623  0.4448 -1.0768
   95MOL    H9611564   5.943   5.153   3.075 -1.6098 -1.3376  1.0880
   95MOL    H9711565   5.933   5.290   2.889  0.8316 -0.4119  1.2572
   95MOL    C9811566   5.734   5.268   2.829  0.3685 -0.8822  0.4762
   95MOL    C9911567   5.760   5.183   2.698 -0.4360 -0.2799 -0.6397
   95MOL  Cl10011568   5.914   5.246   2.644 -0.0611  0.1465  0.2028
   95MOL   H10111569   5.730   5.371   2.795  0.7508 -0.3646  1.9552
   95MOL   H10211570   5.639   5.245   2.878  0.0608 -1.6492 -0.4605
   95MOL   H10311571   5.776   5.077   2.719  1.4429  0.1924  0.4254
   95MOL   C10411572   5.652   5.218   2.595 -0.0506  0.7169  0.0866
   95MOL   C10511573   5.671   5.139   2.470  0.0704  0.1260 -0.3451
   95MOL  Cl10611574   5.595   5.211   2.329  0.0314 -0.5009 -0.6544
   95MOL   H10711575   5.658   5.324   2.572  0.4855  0.8742  0.9240
   95MOL   H10811576   5.553   5.201   2.637  0.7693 -0.6904  1.5106
   95MOL   H10911577   5.776   5.151   2.443  0.3641 -1.7171 -0.1192
   95MOL   C11011578   5.653   4.986   2.477  0.1899 -0.4523 -0.1417
   95MOL   C11111579   5.510   4.935   2.492 -0.2007  0.2876 -0.8451
   95MOL  Cl11211580   5.461   4.958   2.659 -0.3576 -0.0424  0.4415
   95MOL   H11311581   5.723   4.949   2.552  1.8076  0.6896 -1.0601
   95MOL   H11411582   5.683   4.953   2.378  0.6262  1.0047 -0.5132
   95MOL   H11511583   5.445   4.991   2.425 -0.8215  0.9624  0.3015
   95MOL   C11611584   5.505   4.783   2.464 -0.3445 -1.1039  0.1881
   95MOL   C11711585   5.371   4.719   2.483  0.3487 -0.5645 -0.2224
   95MOL  Cl11811586   5.392   4.540   2.469 -0.2114  0.2725  0.0425
   95MOL   H11911587   5.573   4.737   2.536  1.1364 -0.0518 -0.5379
   95MOL   H12011588   5.532   4.766   2.360 -0.1229 -2.7005  0.4873
   95MOL   H12111589   5.325   4.733   2.581  1.2050 -1.2086  0.2779
   95MOL   H12211590   5.297   4.753   2.410  0.4640 -1.4929 -0.7789
   96MOL     C111591   2.769   4.055   7.718 -0.1309 -0.7178 -0.0889
   96MOL     C211592   2.683   4.047   7.843  0.3285 -0.3519  0.0543
   96MOL    Cl311593   2.512   4.000   7.807  0.0939 -0.0852 -0.0722
   96MOL     H411594   2.742   4.133   7.647 -0.5250 -0.4503  0.3530
   96MOL     H511595   2.877   4.064   7.728  0.1362 -2.6289 -0.8477
   96MOL     H611596   2.721   3.970   7.910 -0.1449  0.8296  1.7131
   96MOL     H711597   2.755   3.962   7.661 -0.0253 -0.7227 -0.1072
   96MOL     C811598   2.680   4.192   7.918 -0.0926  0.0793  0.3406
   96MOL     C911599   2.677   4.188   8.073  0.1881  0.1120 -0.2154
   96MOL   Cl1011600   2.809   4.103   8.161 -0.2625 -0.0604  0.2117
   96MOL    H1111601   2.611   4.264   7.876  1.5440  0.8829 -1.0496
   96MOL    H1211602   2.781   4.231   7.903  0.3428 -1.5114 -1.1123
   96MOL    H1311603   2.685   4.294   8.098 -1.4433 -0.5016  3.2376
   96MOL    C1411604   2.546   4.135   8.133  0.0098  0.0545 -0.3067
   96MOL    C1511605   2.531   4.150   8.288 -0.0833  0.0158  0.4535
   96MOL   Cl1611606   2.415   4.036   8.362 -0.3674 -0.1749  0.2607
   96MOL    H1711607   2.561   4.028   8.115  0.3622  0.3265 -1.6483
   96MOL    H1811608   2.461   4.169   8.074  1.0504 -0.4526 -2.1482
   96MOL    H1911609   2.622   4.111   8.334 -0.2184  1.6954  2.2291
   96MOL    C2011610   2.495   4.294   8.323  0.5016 -0.1980 -0.4196
   96MOL    C2111611   2.506   4.334   8.471 -0.2395 -0.2426  0.4728
   96MOL   Cl2211612   2.682   4.327   8.520  0.3245  0.0434 -0.0077
   96MOL    H2311613   2.394   4.314   8.290 -0.0446  0.2812  1.4603
   96MOL    H2411614   2.549   4.360   8.256  0.1883  1.0050  0.5027
   96MOL    H2511615   2.482   4.441   8.465 -2.1303 -0.6519  0.5781
   96MOL    C2611616   2.402   4.282   0.047  0.6160  0.2321  0.9632
   96MOL    C2711617   2.381   4.364   0.172  0.4576  0.2080  0.2112
   96MOL   Cl2811618   2.306   4.268   0.310 -0.0032  0.2875  0.0210
   96MOL    H2911619   2.426   4.183   0.085 -3.1201 -0.9739  0.3614
   96MOL    H3011620   2.305   4.278   8.522  1.4782  1.0370 -0.8288
   96MOL    H3111621   2.478   4.403   0.202  0.6324 -0.3517  0.3800
   96MOL    C3211622   2.298   4.487   0.150  0.0649  0.3104 -0.0812
   96MOL    C3311623   2.263   4.569   0.274  0.4010  0.1534  0.3527
   96MOL   Cl3411624   2.169   4.703   0.206  0.0126  0.2652  0.3792
   96MOL    H3511625   2.214   4.467   0.083 -0.6825 -0.8514  1.1722
   96MOL    H3611626   2.358   4.553   0.088  1.2380 -2.3572 -1.9069
   96MOL    H3711627   2.191   4.517   0.337  1.5632 -0.6884  1.0002
   96MOL    C3811628   2.382   4.633   0.355  0.1089  0.1885  0.0661
   96MOL    C3911629   2.349   4.678   0.495 -0.1513  0.2259 -0.3694
   96MOL   Cl4011630   2.493   4.775   0.550 -0.2568 -0.0162 -0.2063
   96MOL    H4111631   2.435   4.712   0.303  1.9980  0.7549  2.7678
   96MOL    H4211632   2.457   4.558   0.379 -1.9239 -1.6865  0.7412
   96MOL    H4311633   2.267   4.750   0.491  0.9038  1.3557 -3.6546
   96MOL    C4411634   2.333   4.557   0.591 -0.1271  0.3126 -0.3083
   96MOL    C4511635   2.277   4.578   0.730 -0.0443 -0.1295 -0.7279
   96MOL   Cl4611636   2.099   4.610   0.715  0.2900  0.0009 -0.1187
   96MOL    H4711637   2.434   4.515   0.599 -0.2399  0.0625 -0.1740
   96MOL    H4811638   2.269   4.483   0.544 -0.0749  0.3034 -0.3646
   96MOL    H4911639   2.280   4.480   0.777  2.2501 -0.4816 -1.5745
   96MOL    C5011640   2.344   4.687   0.820 -0.7088  0.2365  0.0828
   96MOL    C5111641   2.491   4.650   0.856 -0.0711 -0.3533 -0.2140
   96MOL   Cl5211642   2.478   4.507   0.962  0.3297 -0.0293 -0.4479
   96MOL    H5311643   2.282   4.701   0.909 -1.3887 -1.8168 -0.0340
   96MOL    H5411644   2.350   4.785   0.773  0.6941 -0.2780 -0.8363
   96MOL    H5511645   2.543   4.624   0.764  1.6860 -0.0998  0.6790
   96MOL    C5611646   2.577   4.755   0.940 -0.5006 -0.3125  0.1477
   96MOL    C5711647   2.729   4.713   0.974  0.3215 -0.2931 -0.6137
   96MOL   Cl5811648   2.799   4.808   1.106  0.0855  0.1865 -0.1139
   96MOL    H5911649   2.523   4.796   1.026 -2.5844  0.1528 -1.3265
   96MOL    H6011650   2.581   4.844   0.878 -1.0648  0.3866  1.0871
   96MOL    H6111651   2.731   4.608   1.005  0.0883 -0.3692 -0.8541
   96MOL    C6211652   2.819   4.735   0.850 -0.6054 -0.4824  0.7426
   96MOL    C6311653   2.927   4.636   0.830 -0.0398 -0.3954 -0.0488
   96MOL   Cl6411654   3.028   4.701   0.690 -0.3597 -0.1259 -0.1122
   96MOL    H6511655   2.871   4.831   0.855 -1.7873  0.1436  1.4267
   96MOL    H6611656   2.746   4.743   0.770 -0.6471  0.5548  0.8748
   96MOL    H6711657   2.995   4.641   0.915 -0.9676  1.9911  0.5947
   96MOL    C6811658   2.875   4.499   0.796 -0.0148 -0.0088 -0.4397
   96MOL    C6911659   2.979   4.399   0.735  0.4885  0.8868 -0.0300
   96MOL   Cl7011660   2.885   4.260   0.667  0.1793 -0.3337  0.2224
   96MOL    H7111661   2.787   4.496   0.732 -0.1670 -2.8037 -0.1468
   96MOL    H7211662   2.838   4.455   0.889  0.3237  1.9113  0.6389
   96MOL    H7311663   3.026   4.444   0.647  0.6712 -0.2170 -0.5105
   96MOL    C7411664   3.090   4.351   0.834  0.0278 -0.0963  0.2505
   96MOL    C7511665   3.207   4.278   0.768 -0.1165  0.0031  0.0685
   96MOL   Cl7611666   3.293   4.402   0.667 -0.1775 -0.6045 -0.2358
   96MOL    H7711667   3.042   4.288   0.909 -1.0331 -0.6428 -0.8635
   96MOL    H7811668   3.130   4.433   0.895 -0.4091 -1.2448  2.1125
   96MOL    H7911669   3.278   4.256   0.848  0.3680  1.2806 -0.0109
   96MOL    C8011670   3.184   4.142   0.685  0.0840 -0.0074 -0.2125
   96MOL    C8111671   3.130   4.022   0.770  0.0104 -0.6976  0.0888
   96MOL   Cl8211672   3.252   3.988   0.894  0.2848 -0.2010  0.6355
   96MOL    H8311673   3.277   4.113   0.637 -0.7964 -0.4868 -1.6660
   96MOL    H8411674   3.114   4.176   0.609  0.0623  0.9115  0.2137
   96MOL    H8511675   3.040   4.054   0.822 -0.2377  1.6770 -1.7561
   96MOL    C8611676   3.115   3.889   0.684  0.1998  0.0041 -0.2768
   96MOL    C8711677   3.115   3.765   0.767  0.3219  0.6515 -0.4238
   96MOL   Cl8811678   3.117   3.628   0.645  0.0535 -0.3790  0.3248
   96MOL    H8911679   3.192   3.885   0.607 -1.2276  3.2667 -2.0313
   96MOL    H9011680   3.017   3.899   0.636  0.1788  2.0790  0.1595
   96MOL    H9111681   3.212   3.765   0.817 -1.7387  1.0491  3.7515
   96MOL    C9211682   2.992   3.759   0.855 -0.2668 -0.3546  0.6787
   96MOL    C9311683   2.963   3.625   0.925  0.3667 -0.0962  0.4015
   96MOL   Cl9411684   2.782   3.616   0.966  0.2328 -0.1477  0.1236
   96MOL    H9511685   2.902   3.768   0.793  0.2344 -2.5594 -0.4105
   96MOL    H9611686   3.000   3.834   0.934 -0.4349  1.1045 -0.6696
   96MOL    H9711687   2.990   3.535   0.870  0.7881  0.1649  0.1720
   96MOL    C9811688   3.043   3.615   1.051  0.1669  0.9657 -0.2561
   96MOL    C9911689   3.030   3.486   1.130 -0.2392 -0.1509  0.6133
   96MOL  Cl10011690   3.095   3.519   1.292 -0.1212  0.0954  0.0535
   96MOL   H10111691   3.005   3.694   1.115 -1.3437  0.3593 -0.3927
   96MOL   H10211692   3.146   3.650   1.039 -0.6315  2.9476 -1.3854
   96MOL   H10311693   2.923   3.463   1.139 -0.5087 -0.1822 -2.2559
   96MOL   C10411694   3.097   3.365   1.065 -0.0551  0.0377 -0.4230
   96MOL   C10511695   3.106   3.234   1.142  0.2279  0.8633  0.3720
   96MOL  Cl10611696   3.192   3.129   1.039  0.4032  0.4611  0.2668
   96MOL   H10711697   3.192   3.408   1.033 -0.9728  2.0808 -0.4494
   96MOL   H10811698   3.053   3.346   0.967 -1.2031  0.6883 -0.0393
   96MOL   H10911699   3.172   3.231   1.228  0.4354  0.1272  0.1910
   96MOL   C11011700   2.967   3.171   1.177 -0.1298 -0.0571 -0.5235
   96MOL   C11111701   2.966   3.053   1.275  0.1822  0.0838 -0.2116
   96MOL  Cl11211702   3.002   2.903   1.180 -0.1225 -0.1886 -0.1357
   96MOL   H11311703   2.913   3.156   1.084  0.9470 -0.7777 -1.0426
   96MOL   H11411704   2.923   3.260   1.223  1.9309  0.4155  0.5800
   96MOL   H11511705   3.058   3.059   1.333  0.5787 -0.2392 -0.7981
   96MOL   C11611706   2.835   3.033   1.345  0.2483  0.1263 -0.7282
   96MOL   C11711707   2.853   2.946   1.471  0.0479 -0.1567  0.2031
   96MOL  Cl11811708   2.697   2.884   1.525  0.3773 -0.0961 -0.1138
   96MOL   H11911709   2.772   2.983   1.271 -1.3787  0.7418  0.2105
   96MOL   H12011710   2.787   3.129   1.366 -1.3736 -0.3402 -2.2141
   96MOL   H12111711   2.921   2.862   1.456  0.7471  0.6142 -0.9798
   96MOL   H12211712   2.898   3.002   1.553  0.9582 -0.2203 -0.2495
   97MOL     C111713   3.137   2.537   7.630  0.1188  0.6437  0.1354
   97MOL     C211714   3.135   2.454   7.758  0.3398  0.0141 -0.4109
   97MOL    Cl311715   3.268   2.339   7.748 -0.5139  0.3845 -0.0840
   97MOL     H411716   3.106   2.478   7.544 -0.1587 -0.8961  1.2713
   97MOL     H511717   3.067   2.620   7.631 -0.4563  0.1730 -1.2672
   97MOL     H611718   3.153   2.526   7.838 -1.0326 -0.8618  0.6993
   97MOL     H711719   3.238   2.573   7.610  0.4855 -1.1253 -1.3542
   97MOL     C811720   3.002   2.384   7.781 -0.0703 -0.2397  0.0322
   97MOL     C911721   2.875   2.469   7.816  0.4178 -0.0549 -0.1621
   97MOL   Cl1011722   2.894   2.559   7.971 -0.1961  0.5210 -0.0654
   97MOL    H1111723   3.016   2.323   7.871  2.4859 -2.8117 -1.9929
   97MOL    H1211724   2.980   2.307   7.707 -0.5871  0.6328 -0.7224
   97MOL    H1311725   2.840   2.538   7.740 -1.6230 -2.4244 -1.4388
   97MOL    C1411726   2.743   2.388   7.840 -0.5478 -0.9584 -0.5530
   97MOL    C1511727   2.698   2.307   7.718 -0.0971  0.5035 -0.1322
   97MOL   Cl1611728   2.679   2.408   7.579  0.0119 -0.3737 -0.2623
   97MOL    H1711729   2.658   2.453   7.861  0.1477  1.2448 -4.0676
   97MOL    H1811730   2.756   2.325   7.928  0.8431  0.3193  0.1749
   97MOL    H1911731   2.776   2.235   7.690 -2.1626 -1.2452 -1.5632
   97MOL    C2011732   2.567   2.235   7.749  0.4175  0.0415  0.1869
   97MOL    C2111733   2.516   2.124   7.647  0.7254 -0.0007  0.2838
   97MOL   Cl2211734   2.377   2.036   7.719  0.2772  0.2681  0.0420
   97MOL    H2311735   2.490   2.311   7.761  0.2756 -0.2317  1.0109
   97MOL    H2411736   2.595   2.194   7.845 -1.7320  2.3610  1.8789
   97MOL    H2511737   2.480   2.165   7.553 -1.0535  0.3099  1.0727
   97MOL    C2611738   2.630   2.020   7.614  0.1165 -0.1099 -0.1209
   97MOL    C2711739   2.608   1.914   7.494  0.0910  0.3544 -0.0006
   97MOL   Cl2811740   2.577   1.999   7.338 -0.2625  0.1119 -0.0715
   97MOL    H2911741   2.657   1.962   7.702  1.2239 -0.7736 -0.8882
   97MOL    H3011742   2.727   2.068   7.606 -1.8823  3.7494 -3.0400
   97MOL    H3111743   2.699   1.857   7.472 -1.3617 -1.2546 -2.0333
   97MOL    C3211744   2.491   1.815   7.512  0.2887  0.1393 -0.7624
   97MOL    C3311745   2.493   1.716   7.635  0.1014  0.2328 -0.0272
   97MOL   Cl3411746   2.631   1.606   7.600 -0.0233  0.1462  0.0587
   97MOL    H3511747   2.494   1.758   7.420  1.4982 -0.5251 -0.3198
   97MOL    H3611748   2.389   1.853   7.503 -0.4107 -2.0914 -2.6040
   97MOL    H3711749   2.512   1.763   7.731 -1.8647  2.4081 -0.6707
   97MOL    C3811750   2.363   1.635   7.638  0.4215  0.6871 -0.1457
   97MOL    C3911751   2.240   1.718   7.683  0.6802  0.0517  0.3374
   97MOL   Cl4011752   2.256   1.726   7.863 -0.0654  0.2253 -0.1500
   97MOL    H4111753   2.382   1.540   7.689  1.2175 -1.4904 -4.2777
   97MOL    H4211754   2.354   1.595   7.537  0.2351 -3.1816  1.3034
   97MOL    H4311755   2.239   1.823   7.653  2.8591  0.1677  0.5832
   97MOL    C4411756   2.108   1.657   7.645  0.4137  0.3140 -0.0156
   97MOL    C4511757   2.031   1.720   7.528  0.1920 -0.8349  0.2563
   97MOL   Cl4611758   1.868   1.664   7.511  0.1141  0.1533  0.0104
   97MOL    H4711759   2.039   1.668   7.729  0.8789 -3.4685  0.9523
   97MOL    H4811760   2.123   1.549   7.640 -0.7695  0.0825  1.1099
   97MOL    H4911761   2.023   1.828   7.533  0.6709 -0.7750 -0.2060
   97MOL    C5011762   2.103   1.676   7.402  0.1676  0.5078  1.0356
   97MOL    C5111763   2.032   1.711   7.264  0.9411 -0.3173 -0.6133
   97MOL   Cl5211764   2.104   1.616   7.136  0.1233  0.2818 -0.1962
   97MOL    H5311765   2.118   1.568   7.403 -1.8278  0.2013  0.1864
   97MOL    H5411766   2.204   1.715   7.389 -0.3182  0.5180 -3.5515
   97MOL    H5511767   1.929   1.675   7.266  1.8735 -3.1576 -0.9901
   97MOL    C5611768   2.032   1.857   7.224  0.1449  0.1446 -0.0143
   97MOL    C5711769   2.164   1.930   7.241  0.0454  0.2358 -0.0781
   97MOL   Cl5811770   2.177   2.001   7.406  0.5356  0.0079 -0.4270
   97MOL    H5911771   1.955   1.919   7.271  0.0240 -1.0994  1.4325
   97MOL    H6011772   2.010   1.844   7.118  0.4256 -1.8745  0.1647
   97MOL    H6111773   2.243   1.855   7.230 -2.2648 -2.2616 -0.2938
   97MOL    C6211774   2.208   2.035   7.138 -0.5353 -0.2968  0.5655
   97MOL    C6311775   2.137   2.174   7.132 -0.4406  0.5728  0.2361
   97MOL   Cl6411776   1.989   2.154   7.033  0.3229 -0.3283 -0.0145
   97MOL    H6511777   2.190   1.987   7.042 -0.9933 -0.3378  0.6699
   97MOL    H6611778   2.316   2.047   7.138 -0.5701  0.6795 -3.0205
   97MOL    H6711779   2.103   2.194   7.234  3.9186  0.5754  1.7819
   97MOL    C6811780   2.215   2.292   7.076 -0.1718 -0.5813  0.0100
   97MOL    C6911781   2.143   2.428   7.109 -0.1318 -0.1108 -0.0371
   97MOL   Cl7011782   2.225   2.556   7.008 -0.0753 -0.0519  0.0340
   97MOL    H7111783   2.233   2.282   6.969  1.0693  2.9039 -0.1899
   97MOL    H7211784   2.317   2.279   7.114 -0.2030  1.2822  0.8073
   97MOL    H7311785   2.038   2.433   7.080 -0.3383  0.1585  0.7305
   97MOL    C7411786   2.140   2.482   7.258  0.0220 -0.4505 -0.3759
   97MOL    C7511787   2.269   2.470   7.337  0.5015  0.6402 -0.1447
   97MOL   Cl7611788   2.241   2.325   7.432  0.3691  0.1605  0.2142
   97MOL    H7711789   2.056   2.454   7.321  1.2628 -0.9484  1.0870
   97MOL    H7811790   2.126   2.590   7.251 -0.1622 -0.4692 -0.2793
   97MOL    H7911791   2.347   2.443   7.265 -0.3457 -2.8272  0.1836
   97MOL    C8011792   2.308   2.589   7.434 -0.7625  0.4574  0.1502
   97MOL    C8111793   2.390   2.698   7.363  0.0619 -0.6737  0.3597
   97MOL   Cl8211794   2.553   2.629   7.319 -0.1335 -0.2267 -0.4455
   97MOL    H8311795   2.355   2.557   7.527 -2.6722 -1.3720  0.5116
   97MOL    H8411796   2.218   2.630   7.479 -1.4294 -1.1740  0.3377
   97MOL    H8511797   2.340   2.732   7.272  0.3601 -0.0977  0.4046
   97MOL    C8611798   2.401   2.821   7.448 -0.6881 -0.2242 -0.5102
   97MOL    C8711799   2.429   2.965   7.376  0.2222  0.9680 -0.3054
   97MOL   Cl8811800   2.594   2.952   7.316 -0.1220  0.1418  0.1634
   97MOL    H8911801   2.485   2.798   7.514  0.2341 -0.9011 -1.8932
   97MOL    H9011802   2.311   2.824   7.509 -0.0744 -0.4452  0.4201
   97MOL    H9111803   2.361   2.995   7.297 -2.1221 -0.5915  1.0647
   97MOL    C9211804   2.439   3.083   7.478  0.1687 -0.5195 -0.0778
   97MOL    C9311805   2.294   3.125   7.523 -0.2735  0.0268 -0.7000
   97MOL   Cl9411806   2.190   3.183   7.385  0.5333 -0.2289 -0.1382
   97MOL    H9511807   2.487   3.173   7.440 -1.2014 -0.1898 -1.0805
   97MOL    H9611808   2.501   3.049   7.561 -0.2668  1.8898  1.2816
   97MOL    H9711809   2.246   3.036   7.562 -2.1998  1.4079  0.1610
   97MOL    C9811810   2.295   3.230   7.638 -0.0879 -0.7754  0.5392
   97MOL    C9911811   2.351   3.190   7.776  0.6903  0.4447 -0.1056
   97MOL  Cl10011812   2.527   3.166   7.771 -0.1834 -0.4485  0.0646
   97MOL   H10111813   2.194   3.269   7.649  0.6445  2.1347 -2.2476
   97MOL   H10211814   2.340   3.320   7.596  1.8194 -1.2270  1.5412
   97MOL   H10311815   2.333   3.259   7.858  0.3946  0.1036  0.1193
   97MOL   C10411816   2.289   3.051   7.830 -0.3421  0.3202 -0.0512
   97MOL   C10511817   2.135   3.043   7.844 -0.9438 -0.0445  0.0845
   97MOL  Cl10611818   2.101   3.146   7.975  0.3450  0.1522  0.5284
   97MOL   H10711819   2.332   3.031   7.928 -1.0783  1.4768  0.5190
   97MOL   H10811820   2.333   2.969   7.774 -0.6899  0.5290 -0.6407
   97MOL   H10911821   2.085   3.087   7.758 -0.0299  0.8969  0.0190
   97MOL   C11011822   2.082   2.912   7.881 -0.3912 -0.5922 -0.2221
   97MOL   C11111823   2.099   2.793   7.787 -0.2966 -0.1137 -0.4167
   97MOL  Cl11211824   2.056   2.813   7.622  0.1462  0.3177  0.3741
   97MOL   H11311825   1.979   2.933   7.908 -1.1743 -1.9018 -2.1407
   97MOL   H11411826   2.119   2.884   7.979  1.3226  0.4437 -0.5447
   97MOL   H11511827   2.207   2.779   7.793 -0.5191 -2.3348 -1.2171
   97MOL   C11611828   2.034   2.673   7.843  0.1388 -0.3619  0.2325
   97MOL   C11711829   1.880   2.681   7.837  0.5450  0.6449  0.6403
   97MOL  Cl11811830   1.800   2.537   7.920 -0.0209  0.2539 -0.2496
   97MOL   H11911831   2.057   2.661   7.949 -0.5415  1.1891  0.5524
   97MOL   H12011832   2.059   2.586   7.781 -1.1677 -0.6082  0.0425
   97MOL   H12111833   1.845   2.773   7.885  1.7801  0.8959  1.0792
   97MOL   H12211834   1.841   2.676   7.735 -0.8925 -0.5253  1.2268
   98MOL     C111835   1.790   2.989   2.412 -0.1705  0.6370 -0.2067
   98MOL     C211836   1.863   3.063   2.532 -0.6945  0.3203  0.3139
   98MOL    Cl311837   1.807   3.014   2.694  0.1183 -0.0301 -0.5948
   98MOL     H411838   1.688   3.025   2.408 -0.2187  0.6784  0.9960
   98MOL     H511839   1.822   3.003   2.309 -0.6880  2.1446 -0.1689
   98MOL     H611840   1.968   3.036   2.525 -0.7442 -0.1641  1.3146
   98MOL     H711841   1.793   2.882   2.435 -1.6163  0.7552  0.5993
   98MOL     C811842   1.864   3.216   2.514  0.2108  0.5255  0.6276
   98MOL     C911843   1.913   3.272   2.380  0.7592  0.0756  0.4017
   98MOL   Cl1011844   2.092   3.255   2.378  0.4857  0.0764 -0.0172
   98MOL    H1111845   1.920   3.261   2.596  1.8259  0.4698 -0.4178
   98MOL    H1211846   1.760   3.248   2.521  0.5110  2.2710 -2.2229
   98MOL    H1311847   1.870   3.218   2.295 -0.0787  1.7415 -0.2530
   98MOL    C1411848   1.870   3.419   2.366 -0.1230 -0.1428 -0.3517
   98MOL    C1511849   1.927   3.490   2.247  0.5553  0.4631  0.6711
   98MOL   Cl1611850   1.890   3.658   2.265 -0.0116 -0.1364  0.1786
   98MOL    H1711851   1.895   3.478   2.455 -2.0356 -0.4883  0.4413
   98MOL    H1811852   1.763   3.436   2.368  0.0489  0.9106  1.4817
   98MOL    H1911853   2.035   3.475   2.238  0.6528  2.0939 -1.3430
   98MOL    C2011854   1.859   3.448   2.115  0.0798 -0.3954  0.1044
   98MOL    C2111855   1.899   3.517   1.989 -0.0065 -0.2565  0.0837
   98MOL   Cl2211856   1.790   3.460   1.864 -0.1416 -0.0357 -0.0474
   98MOL    H2311857   1.754   3.464   2.141  0.3306  0.7642  0.4592
   98MOL    H2411858   1.868   3.344   2.087  3.9691  0.1722 -1.0702
   98MOL    H2511859   1.887   3.625   1.999 -2.7389 -0.6687  1.7720
   98MOL    C2611860   2.042   3.486   1.955  0.7934 -0.1441  1.0030
   98MOL    C2711861   2.100   3.563   1.825  0.4213 -0.1185 -0.1727
   98MOL   Cl2811862   2.262   3.490   1.803  0.2971  0.3510 -0.3612
   98MOL    H2911863   2.055   3.379   1.944 -2.7860 -0.5490  0.1025
   98MOL    H3011864   2.116   3.519   2.027  1.3293  3.0995 -0.9196
   98MOL    H3111865   2.052   3.529   1.734 -1.6697 -0.2452  0.9385
   98MOL    C3211866   2.106   3.720   1.825  0.5886  0.2808 -0.0451
   98MOL    C3311867   2.179   3.776   1.698  0.4992  0.4244 -0.1325
   98MOL   Cl3411868   2.352   3.795   1.733 -0.0900 -0.3444  0.5392
   98MOL    H3511869   2.177   3.750   1.902  1.2269 -1.3562  0.0252
   98MOL    H3611870   2.005   3.758   1.841  1.2922  2.2198 -0.1282
   98MOL    H3711871   2.168   3.704   1.617 -1.0586 -0.2898  0.6865
   98MOL    C3811872   2.125   3.906   1.639 -0.1715 -0.2594 -0.1287
   98MOL    C3911873   1.998   3.901   1.552 -0.6033  0.1988  0.4575
   98MOL   Cl4011874   2.020   3.811   1.405  0.2047 -0.0783 -0.1642
   98MOL    H4111875   2.201   3.940   1.567 -0.1318  0.0166  0.0459
   98MOL    H4211876   2.111   3.978   1.719  1.6766 -0.9923  0.8846
   98MOL    H4311877   1.932   3.836   1.610 -1.1979  0.1660 -0.2465
   98MOL    C4411878   1.933   4.037   1.520 -0.6412  0.5249  0.4343
   98MOL    C4511879   1.805   4.029   1.435 -0.1023  0.2846  0.1473
   98MOL   Cl4611880   1.776   4.179   1.345 -0.0327  0.0946  0.1539
   98MOL    H4711881   2.010   4.077   1.454 -0.8940 -0.3423 -0.3925
   98MOL    H4811882   1.932   4.111   1.600  0.2883  2.8975 -1.6725
   98MOL    H4911883   1.806   3.947   1.363 -0.3030  1.8397 -1.6594
   98MOL    C5011884   1.684   4.018   1.535 -0.3548  0.2985 -0.0974
   98MOL    C5111885   1.551   3.976   1.472  0.3415  0.0792  0.1427
   98MOL   Cl5211886   1.412   4.040   1.563 -0.2193  0.1310 -0.0516
   98MOL    H5311887   1.680   4.115   1.583  1.8715  0.5489 -0.3587
   98MOL    H5411888   1.715   3.947   1.612  0.8310 -0.7095 -1.4859
   98MOL    H5511889   1.534   4.034   1.381 -3.5635 -1.4441 -0.1530
   98MOL    C5611890   1.529   3.824   1.436  0.0052 -0.1069  0.1528
   98MOL    C5711891   1.510   3.735   1.554  0.0459  0.1008  0.2713
   98MOL   Cl5811892   1.668   3.699   1.636 -0.1849  0.3323 -0.0130
   98MOL    H5911893   1.614   3.793   1.376  0.6983  3.3738 -0.8182
   98MOL    H6011894   1.444   3.824   1.367 -2.5002  0.4456  3.1044
   98MOL    H6111895   1.439   3.783   1.621  1.1703  1.7210  0.3435
   98MOL    C6211896   1.446   3.607   1.528  0.2347 -0.2171 -0.2996
   98MOL    C6311897   1.530   3.518   1.438  0.4679  0.4963  0.1132
   98MOL   Cl6411898   1.479   3.541   1.268 -0.2105  0.2589 -0.0097
   98MOL    H6511899   1.343   3.617   1.493 -0.7532 -2.4709  1.7887
   98MOL    H6611900   1.448   3.552   1.622 -0.6250  1.2979  0.6386
   98MOL    H6711901   1.637   3.539   1.446  0.6890 -0.2695 -0.7806
   98MOL    C6811902   1.514   3.366   1.475  0.5856 -0.4182 -0.7103
   98MOL    C6911903   1.619   3.266   1.417 -0.3879  0.2294  0.0817
   98MOL   Cl7011904   1.572   3.096   1.460 -0.0451  0.1587 -0.2055
   98MOL    H7111905   1.413   3.326   1.472 -0.2962  1.2455  3.5233
   98MOL    H7211906   1.539   3.358   1.581  1.6448 -2.0649 -1.0635
   98MOL    H7311907   1.613   3.271   1.308  0.8175  1.7290  0.0634
   98MOL    C7411908   1.768   3.290   1.471  0.5336  0.2921  0.5358
   98MOL    C7511909   1.873   3.250   1.367  0.2162 -0.9879  0.1311
   98MOL   Cl7611910   1.846   3.342   1.219 -0.2392  0.1745  0.4422
   98MOL    H7711911   1.779   3.226   1.558  1.1700  0.2041  0.3937
   98MOL    H7811912   1.789   3.391   1.505  0.3781  0.9598 -1.2645
   98MOL    H7911913   1.971   3.278   1.405  0.5839  0.0502 -1.5259
   98MOL    C8011914   1.879   3.101   1.332 -0.1364 -0.3133 -0.7163
   98MOL    C8111915   1.983   3.061   1.227 -0.3076  0.3450 -0.1918
   98MOL   Cl8211916   1.928   3.086   1.062  0.2329  0.0585  0.1729
   98MOL    H8311917   1.781   3.068   1.299  0.0391 -1.6301  0.0398
   98MOL    H8411918   1.900   3.036   1.417  1.6241 -0.2684 -1.0894
   98MOL    H8511919   2.065   3.132   1.230  0.3544 -0.3250 -1.6385
   98MOL    C8611920   2.044   2.918   1.244 -0.8647  0.2343 -0.0383
   98MOL    C8711921   2.155   2.890   1.149 -0.1682  0.7384 -0.4713
   98MOL   Cl8811922   2.185   2.716   1.157  0.0432  0.0745  0.1027
   98MOL    H8911923   1.961   2.850   1.225 -0.3281 -0.6884  0.9138
   98MOL    H9011924   2.079   2.891   1.343  1.6549  0.5788 -0.8067
   98MOL    H9111925   2.119   2.905   1.047 -1.1658  0.2537 -0.2035
   98MOL    C9211926   2.280   2.977   1.170 -0.5699  0.2082 -0.0485
   98MOL    C9311927   2.406   2.946   1.081 -0.0611 -0.3985 -0.4361
   98MOL   Cl9411928   2.532   3.055   1.140 -0.1437 -0.0298  0.1076
   98MOL    H9511929   2.316   2.978   1.273  2.0140 -2.1469 -0.8675
   98MOL    H9611930   2.256   3.078   1.137  1.7901  1.0600  0.7631
   98MOL    H9711931   2.436   2.842   1.093  0.3870 -0.4479 -1.9073
   98MOL    C9811932   2.379   2.964   0.928 -0.8256 -0.1347  0.2622
   98MOL    C9911933   2.493   2.888   0.847 -0.6326 -0.2456  0.7278
   98MOL  Cl10011934   2.641   2.983   0.821 -0.4079 -0.1688  0.2457
   98MOL   H10111935   2.370   3.067   0.895  1.5653 -0.8135 -2.6894
   98MOL   H10211936   2.288   2.909   0.904 -0.6288  0.0220 -0.8331
   98MOL   H10311937   2.531   2.796   0.892 -1.0123 -1.0144 -0.4962
   98MOL   C10411938   2.443   2.846   0.704 -0.1667  0.8923  0.0853
   98MOL   C10511939   2.348   2.719   0.709 -0.4767  0.0190  0.1278
   98MOL  Cl10611940   2.451   2.574   0.733  0.3256 -0.6245 -0.2687
   98MOL   H10711941   2.533   2.831   0.644 -0.6462 -1.5411 -0.0477
   98MOL   H10811942   2.379   2.926   0.667 -2.1645 -0.2322  1.0548
   98MOL   H10911943   2.300   2.732   0.806 -0.4507  1.6865 -0.0722
   98MOL   C11011944   2.248   2.689   0.595  0.2669 -0.1221 -0.2665
   98MOL   C11111945   2.157   2.811   0.547  0.1005 -0.0982  0.1533
   98MOL  Cl11211946   2.055   2.842   0.681  0.4315 -0.0659  0.0688
   98MOL   H11311947   2.183   2.603   0.603 -2.8866  2.1596 -0.4104
   98MOL   H11411948   2.312   2.666   0.510 -0.8189 -0.0169 -1.1239
   98MOL   H11511949   2.216   2.902   0.538 -3.0105  1.9435 -0.3489
   98MOL   C11611950   2.068   2.779   0.424 -0.9399  0.4006  0.1959
   98MOL   C11711951   1.960   2.891   0.380  0.6428  0.1842  0.2077
   98MOL  Cl11811952   1.854   2.840   0.245 -0.3647  0.1318 -0.4009
   98MOL   H11911953   2.023   2.680   0.435 -1.4792  0.9401  3.1665
   98MOL   H12011954   2.146   2.770   0.348 -0.0739  2.3282  0.8428
   98MOL   H12111955   1.904   2.930   0.465  0.0406  1.2052 -0.6402
   98MOL   H12211956   2.011   2.978   0.338 -0.8558  0.6826 -0.6558
   99MOL     C111957   6.194   1.975   1.574  0.3811  0.0656 -0.0600
   99MOL     C211958   6.113   1.838   1.548 -0.5403 -0.3496  0.0009
   99MOL    Cl311959   5.941   1.862   1.563  0.1883 -0.2508 -0.1536
   99MOL     H411960   6.168   2.011   1.673  2.5627 -1.7265  1.2038
   99MOL     H511961   6.300   1.969   1.549  0.5031 -0.6974  0.6122
   99MOL     H611962   6.132   1.811   1.444 -1.0671 -0.0704 -0.1672
   99MOL     H711963   6.152   2.052   1.510 -0.2211 -0.0700  0.1667
   99MOL     C811964   6.158   1.724   1.650  0.3683 -0.0709  1.1331
   99MOL     C911965   6.309   1.713   1.657 -0.1284 -0.9555  0.8452
   99MOL   Cl1011966   6.383   1.699   1.497 -0.3439 -0.3596 -0.1774
   99MOL    H1111967   6.112   1.631   1.616  0.7317 -0.5443  1.9164
   99MOL    H1211968   6.114   1.749   1.747  1.5685  0.0376  1.6623
   99MOL    H1311969   6.340   1.812   1.689 -0.5972 -0.9772  1.3766
   99MOL    C1411970   6.356   1.610   1.766  0.0498 -0.1904 -0.3877
   99MOL    C1511971   6.515   1.597   1.773 -0.6025 -0.6673  1.1113
   99MOL   Cl1611972   6.547   1.450   1.870 -0.1604 -0.3005 -0.0675
   99MOL    H1711973   6.323   1.510   1.741  1.6951 -0.3527 -2.0884
   99MOL    H1811974   6.306   1.630   1.860 -0.0370 -0.9512 -0.2760
   99MOL    H1911975   6.558   1.578   1.675  2.3566 -0.6378  2.3500
   99MOL    C2011976   6.585   1.713   1.850 -0.7622 -0.1344  0.2275
   99MOL    C2111977   6.550   1.731   2.003  0.8932  0.3034  0.3694
   99MOL   Cl2211978   6.405   1.830   2.008 -0.0505  0.0603 -0.1736
   99MOL    H2311979   6.585   1.808   1.797 -0.2295 -0.2319  0.0532
   99MOL    H2411980   6.690   1.692   1.866 -0.9594  0.1478  2.0750
   99MOL    H2511981   6.524   1.637   2.053  1.0997 -0.7162 -1.3923
   99MOL    C2611982   6.655   1.809   2.091 -0.4773  0.5596  0.1832
   99MOL    C2711983   6.781   1.732   2.125 -0.6861 -0.1556 -0.1804
   99MOL   Cl2811984   6.733   1.587   2.212  0.3938 -0.2775  0.0073
   99MOL    H2911985   6.600   1.848   2.177  0.3720  0.7971  0.6270
   99MOL    H3011986   6.694   1.895   2.036  0.5280  1.3277  2.0112
   99MOL    H3111987   6.839   1.704   2.038 -1.9815  0.6675 -1.3318
   99MOL    C3211988   6.869   1.814   2.215 -0.5912 -0.0777 -0.5897
   99MOL    C3311989   6.935   1.947   2.159 -0.7837 -0.2070 -0.0281
   99MOL   Cl3411990   7.018   1.921   2.004  0.0733  0.6879  0.0759
   99MOL    H3511991   6.948   1.746   2.247  0.1715  1.0120 -0.1405
   99MOL    H3611992   6.811   1.827   2.306 -0.6853 -0.2825 -0.6192
   99MOL    H3711993   6.856   2.022   2.147  0.6807  1.3933  0.0530
   99MOL    C3811994   7.032   2.016   2.247 -0.1290 -0.4257 -0.2668
   99MOL    C3911995   7.037   2.172   2.228 -0.1924  0.0696 -0.5425
   99MOL   Cl4011996   7.172   2.237   2.326 -0.0588 -0.0652 -0.0974
   99MOL    H4111997   7.130   1.971   2.233  0.0619  0.1140 -0.6598
   99MOL    H4211998   7.005   1.988   2.349 -0.8437  2.8666  0.5059
   99MOL    H4311999   7.072   2.196   2.128  2.2670  1.1461  0.5345
   99MOL    C4412000   6.909   2.254   2.256  0.4236 -0.0190  0.0466
   99MOL    C4512001   6.842   2.241   2.399 -1.1273 -0.2702  0.4794
   99MOL   Cl4612002   6.743   2.092   2.430 -0.2135  0.1327 -0.1082
   99MOL    H4712003   6.836   2.218   2.183  1.0757 -1.0098 -0.1274
   99MOL    H4812004   6.932   2.360   2.254  2.2972 -0.3852  1.4151
   99MOL    H4912005   6.913   2.251   2.481 -0.9743 -0.8674  0.4232
   99MOL    C5012006   6.737   2.354   2.428  0.1040 -0.4087 -0.8326
   99MOL    C5112007   6.795   2.497   2.452 -0.1045 -1.0692  0.1899
   99MOL   Cl5212008   6.941   2.502   2.542 -0.2821 -0.3841  0.4266
   99MOL    H5312009   6.681   2.329   2.518  2.8395  4.1165  2.3176
   99MOL    H5412010   6.660   2.364   2.351  0.8813  0.1440 -1.5535
   99MOL    H5512011   6.822   2.522   2.350 -2.5619  1.7646  0.1483
   99MOL    C5612012   6.701   2.604   2.503  0.6478 -0.9239 -0.6216
   99MOL    C5712013   6.610   2.667   2.389 -0.6021 -0.1112 -0.3080
   99MOL   Cl5812014   6.693   2.765   2.263  0.2016 -0.0299  0.4236
   99MOL    H5912015   6.759   2.681   2.553  0.8491 -1.2613 -0.3360
   99MOL    H6012016   6.632   2.559   2.574  0.0034  0.3903 -0.3819
   99MOL    H6112017   6.557   2.583   2.344  0.1742 -1.0933  0.5852
   99MOL    C6212018   6.501   2.769   2.442 -0.2528  1.3317 -0.1838
   99MOL    C6312019   6.377   2.701   2.498 -0.6621  0.0956  0.0621
   99MOL   Cl6412020   6.305   2.578   2.384 -0.0086 -0.3398  0.0569
   99MOL    H6512021   6.466   2.830   2.359 -3.1800  0.3387  0.2853
   99MOL    H6612022   6.548   2.838   2.512  2.3225 -0.5114  0.0020
   99MOL    H6712023   6.395   2.644   2.590 -2.0311  2.9157  2.1348
   99MOL    C6812024   6.272   2.807   2.539  0.2864  0.3053  0.3042
   99MOL    C6912025   6.308   2.895   2.655 -0.1714 -0.6933 -0.0994
   99MOL   Cl7012026   6.321   2.794   2.798  0.2019  0.0452 -0.3081
   99MOL    H7112027   6.177   2.759   2.565  0.2170 -0.2686 -0.9866
   99MOL    H7212028   6.245   2.870   2.455 -1.6457 -0.7910  0.0712
   99MOL    H7312029   6.406   2.938   2.632 -0.3844  0.4520  1.0573
   99MOL    C7412030   6.207   3.009   2.685  0.7398 -0.9670 -0.0810
   99MOL    C7512031   6.192   3.126   2.586 -0.3280 -0.0341  0.4926
   99MOL   Cl7612032   6.344   3.214   2.598 -0.2315  0.0504  0.0965
   99MOL    H7712033   6.238   3.046   2.782 -1.7786  1.2595 -0.0575
   99MOL    H7812034   6.108   2.975   2.715  1.3275 -0.7088  2.2032
   99MOL    H7912035   6.176   3.085   2.486 -0.2824 -0.1082  0.5161
   99MOL    C8012036   6.078   3.218   2.613  0.2770 -0.6206  0.3144
   99MOL    C8112037   6.054   3.328   2.498  0.8055  0.1685  0.3716
   99MOL   Cl8212038   6.145   3.477   2.543  0.3033  0.1155 -0.0107
   99MOL    H8312039   6.090   3.264   2.712  0.6259 -0.2068  0.0807
   99MOL    H8412040   5.984   3.163   2.619 -0.5292  0.7925  1.1505
   99MOL    H8512041   6.109   3.297   2.409  0.1316  1.2100 -0.4178
   99MOL    C8612042   5.902   3.361   2.486  0.0391 -0.2652  0.3145
   99MOL    C8712043   5.808   3.261   2.415  0.0959  1.2365  0.4243
   99MOL   Cl8812044   5.861   3.235   2.251  0.2105  0.5428  0.2751
   99MOL    H8912045   5.895   3.460   2.439  0.3371 -0.6879 -0.6392
   99MOL    H9012046   5.861   3.384   2.584 -0.1592  0.6289  0.0261
   99MOL    H9112047   5.806   3.162   2.461 -1.5092  1.9240  1.8863
   99MOL    C9212048   5.667   3.339   2.404  0.0107 -0.4528  0.2147
   99MOL    C9312049   5.568   3.267   2.311 -0.2314 -0.5198  0.9910
   99MOL   Cl9412050   5.424   3.374   2.286  0.0598  0.2448  0.4406
   99MOL    H9512051   5.678   3.443   2.372 -0.6145  0.3514  2.5300
   99MOL    H9612052   5.619   3.341   2.502 -0.8373  1.7750 -0.2110
   99MOL    H9712053   5.613   3.248   2.213  0.7401  1.6744  0.9679
   99MOL    C9812054   5.519   3.135   2.365  0.3855  0.3123 -0.8346
   99MOL    C9912055   5.446   3.030   2.275  0.5768  0.0044 -0.0868
   99MOL  Cl10012056   5.563   2.977   2.142  0.3229 -0.2521  0.1356
   99MOL   H10112057   5.457   3.152   2.453  0.4571  1.4619 -1.0060
   99MOL   H10212058   5.598   3.082   2.418 -3.0443 -2.9335  1.3146
   99MOL   H10312059   5.418   2.949   2.343  1.0384  0.7268  0.9868
   99MOL   C10412060   5.314   3.082   2.213  0.4426 -0.3218  0.1484
   99MOL   C10512061   5.242   2.988   2.119 -0.1525 -0.0734 -0.0256
   99MOL  Cl10612062   5.176   3.082   1.993  0.1679 -0.3812  0.2670
   99MOL   H10712063   5.340   3.164   2.146 -1.3409  1.0329  1.0791
   99MOL   H10812064   5.242   3.120   2.285  0.8179  1.3581 -0.3499
   99MOL   H10912065   5.311   2.917   2.072 -0.7915  0.7251 -2.2227
   99MOL   C11012066   5.127   2.902   2.188 -1.0093 -0.1413 -0.0926
   99MOL   C11112067   5.159   2.806   2.303  0.2650 -0.6103 -0.3111
   99MOL  Cl11212068   5.259   2.669   2.237 -0.3618 -0.1187  0.5502
   99MOL   H11312069   5.080   2.836   2.115  0.8367 -2.0724  0.4058
   99MOL   H11412070   5.042   2.963   2.219  0.2837  2.4173 -1.4743
   99MOL   H11512071   5.220   2.851   2.381 -0.1861 -0.3922 -0.0830
   99MOL   C11612072   5.023   2.762   2.360 -0.5648  0.1591  0.3200
   99MOL   C11712073   5.046   2.656   2.467  0.0664  0.3804 -0.2908
   99MOL  Cl11812074   4.889   2.619   2.541 -0.1882 -0.1931 -0.1389
   99MOL   H11912075   4.965   2.719   2.279  1.1924 -1.8288  0.0747
   99MOL   H12012076   4.967   2.845   2.403 -0.0243  1.7051 -1.8123
   99MOL   H12112077   5.078   2.562   2.423  0.3006 -0.1032  0.8916
   99MOL   H12212078   5.113   2.689   2.546 -0.0850  1.5153 -0.6326
  100MOL     C112079   7.312   6.558   5.394 -0.5906  0.1449 -0.1561
  100MOL     C212080   7.362   6.667   5.301  0.6194 -0.1620 -0.2547
  100MOL    Cl312081   7.331   6.830   5.372 -0.2718  0.0402 -0.1849
  100MOL     H412082   7.354   6.462   5.366  0.9388  0.3956  1.2151
  100MOL     H512083   7.346   6.575   5.496 -0.6399 -1.1261  0.0814
  100MOL     H612084   7.471   6.672   5.303  0.8433 -3.7176  0.7355
  100MOL     H712085   7.207   6.530   5.403 -0.3803 -0.4259  0.5472
  100MOL     C812086   7.305   6.657   5.159 -0.8879  0.1640 -0.0387
  100MOL     C912087   7.351   6.527   5.083  0.1784 -0.3028 -0.3130
  100MOL   Cl1012088   7.511   6.471   5.116 -0.0648  0.0548 -0.4088
  100MOL    H1112089   7.322   6.754   5.112 -0.4567  0.3689  0.5176
  100MOL    H1212090   7.197   6.659   5.157 -0.9877 -1.6128  2.0384
  100MOL    H1312091   7.285   6.446   5.113 -2.0641  1.4304 -0.4002
  100MOL    C1412092   7.338   6.535   4.931  0.0786  0.5942 -0.0211
  100MOL    C1512093   7.198   6.563   4.873  0.5052  0.6412 -0.1196
  100MOL   Cl1612094   7.078   6.436   4.926 -0.0824 -0.3682  0.2001
  100MOL    H1712095   7.386   6.443   4.897 -0.5766  0.6910 -1.2342
  100MOL    H1812096   7.402   6.617   4.899  0.6249 -0.3625 -1.4287
  100MOL    H1912097   7.163   6.662   4.901 -0.3980  0.4274 -0.4833
  100MOL    C2012098   7.205   6.562   4.717 -0.0855 -0.4269 -0.3794
  100MOL    C2112099   7.175   6.690   4.636  0.0747 -0.2181 -0.1308
  100MOL   Cl2212100   7.167   6.670   4.460  0.1144 -0.0602  0.0067
  100MOL    H2312101   7.143   6.481   4.680  0.8178 -0.9894 -0.6852
  100MOL    H2412102   7.308   6.534   4.694  1.1464  2.3741  1.4442
  100MOL    H2512103   7.072   6.719   4.659 -0.2425 -0.9897 -0.5389
  100MOL    C2612104   7.270   6.805   4.673 -0.2388  0.0338 -0.8219
  100MOL    C2712105   7.202   6.939   4.705 -0.3463  0.2320  0.0112
  100MOL   Cl2812106   7.106   6.916   4.854 -0.0871 -0.5203  0.1026
  100MOL    H2912107   7.347   6.823   4.598  2.1970  0.4961  1.6943
  100MOL    H3012108   7.327   6.784   4.763 -1.4457 -0.2929 -0.1207
  100MOL    H3112109   7.274   7.020   4.719  0.8576 -1.0503  1.2844
  100MOL    C3212110   7.106   6.990   4.596  0.1778  0.0002 -0.2588
  100MOL    C3312111   7.174   7.039   4.470  0.3189  0.5011  0.3602
  100MOL   Cl3412112   7.265   7.181   4.501 -0.0908  0.2352 -0.4641
  100MOL    H3512113   7.041   7.060   4.648 -0.6857 -2.3904  2.0085
  100MOL    H3612114   7.031   6.915   4.571 -1.5306  1.5531  0.1408
  100MOL    H3712115   7.235   6.956   4.434 -1.2176 -0.0052 -1.1557
  100MOL    C3812116   7.072   7.069   4.354 -0.4123  1.0962  0.1183
  100MOL    C3912117   7.139   7.098   4.220 -0.2612  0.2893  0.4301
  100MOL   Cl4012118   7.012   7.139   4.107 -0.3001  0.0403  0.4132
  100MOL    H4112119   7.013   7.155   4.384  1.3531  1.3782  2.9716
  100MOL    H4212120   7.005   6.983   4.344 -0.1563  0.5806  2.3717
  100MOL    H4312121   7.207   7.182   4.230  0.7140 -0.8711  4.5458
  100MOL    C4412122   7.213   6.974   4.165 -0.8345  0.5111  0.1827
  100MOL    C4512123   7.367   7.001   4.173  0.3550  0.3743 -0.2440
  100MOL   Cl4612124   7.398   7.126   4.049  0.1896  0.3985 -0.0412
  100MOL    H4712125   7.177   6.952   4.065  1.3875  0.8834 -0.7383
  100MOL    H4812126   7.183   6.890   4.228  0.3584  1.0110  1.4553
  100MOL    H4912127   7.406   7.044   4.265  1.3368 -3.2414  1.1137
  100MOL    C5012128   7.453   6.886   4.132  0.2849  0.3544  0.6548
  100MOL    C5112129   7.462   6.768   4.229 -0.3453  0.1236 -0.2853
  100MOL   Cl5212130   7.495   6.839   4.389  0.0146  0.1274 -0.0588
  100MOL    H5312131   7.555   6.920   4.112  0.1913  0.3905  0.2298
  100MOL    H5412132   7.415   6.855   4.035 -0.1157  0.9242  0.6270
  100MOL    H5512133   7.363   6.723   4.233  0.5914 -1.8276  2.0438
  100MOL    C5612134   7.565   6.659   4.205 -0.4233 -0.0636 -0.1092
  100MOL    C5712135   7.546   6.521   4.269  0.1278  0.0451  0.6902
  100MOL   Cl5812136   7.413   6.436   4.180 -0.0900  0.1490  0.5502
  100MOL    H5912137   7.666   6.696   4.222  0.1740 -0.8958 -1.7497
  100MOL    H6012138   7.550   6.634   4.100 -1.0285 -3.2065  0.6865
  100MOL    H6112139   7.635   6.462   4.250  0.8663  2.2063 -3.1830
  100MOL    C6212140   7.516   6.523   4.420  0.5782  0.8321  0.0800
  100MOL    C6312141   7.653   6.519   4.497 -0.0136 -0.2116 -0.7945
  100MOL   Cl6412142   7.724   6.357   4.501 -0.0609  0.2182  0.3272
  100MOL    H6512143   7.457   6.434   4.442 -1.5029  2.2497  0.3890
  100MOL    H6612144   7.453   6.602   4.460 -3.7169 -2.2093 -0.3379
  100MOL    H6712145   7.726   6.584   4.448 -1.2304  1.1512 -0.8323
  100MOL    C6812146   7.647   6.573   4.644  0.3786  0.1995 -0.0221
  100MOL    C6912147   7.780   6.627   4.694 -0.4580  0.4031 -0.3540
  100MOL   Cl7012148   7.739   6.662   4.874  0.1405 -0.3413  0.4183
  100MOL    H7112149   7.624   6.498   4.720  1.3256  0.0196  0.0959
  100MOL    H7212150   7.572   6.652   4.658  0.1575 -0.1527  0.8449
  100MOL    H7312151   7.856   6.550   4.689 -0.1700  0.4387  2.4340
  100MOL    C7412152   7.817   6.758   4.625 -0.3493  0.4462  0.2630
  100MOL    C7512153   7.959   6.811   4.662 -0.5006 -0.6629  1.0111
  100MOL   Cl7612154   7.966   6.971   4.603  0.1397  0.1468 -0.3882
  100MOL    H7712155   7.731   6.823   4.646 -1.4917 -0.7082 -0.7262
  100MOL    H7812156   7.812   6.753   4.516  3.2310  1.5928 -0.0145
  100MOL    H7912157   7.976   6.808   4.770  1.9939 -1.2944  0.6422
  100MOL    C8012158   8.078   6.729   4.609  0.1575  0.0129  0.2773
  100MOL    C8112159   8.215   6.786   4.649  0.0327  0.0256 -0.2808
  100MOL   Cl8212160   8.327   6.702   4.538  0.1968 -0.2489 -0.0113
  100MOL    H8312161   8.064   6.716   4.502  2.9207  2.6354 -0.4752
  100MOL    H8412162   8.079   6.628   4.650 -0.8340 -0.2662 -0.3873
  100MOL    H8512163   8.236   6.891   4.629  2.6274 -0.6207 -1.1476
  100MOL    C8612164   8.251   6.773   4.796  0.1904 -0.0260  0.0174
  100MOL    C8712165   8.371   6.854   4.848 -0.5621  0.8822 -0.1039
  100MOL   Cl8812166   8.439   6.775   4.993 -0.1451 -0.1204 -0.2052
  100MOL    H8912167   8.256   6.666   4.819 -0.1955 -0.3305 -1.2980
  100MOL    H9012168   8.166   6.789   4.864  0.0842  0.6760 -0.2779
  100MOL    H9112169   8.451   6.846   4.774  0.1168 -1.2038  0.7995
  100MOL    C9212170   8.351   7.007   4.871  0.3108 -0.1088  0.4581
  100MOL    C9312171   8.268   7.049   4.988  0.3655  0.4967  0.4446
  100MOL   Cl9412172   8.099   7.035   4.938 -0.0668 -0.1557  0.1222
  100MOL    H9512173   8.296   7.042   4.784 -0.0920 -0.9672  0.3627
  100MOL    H9612174   8.443   7.065   4.878  0.4546 -0.5375  2.4514
  100MOL    H9712175   8.268   6.973   5.066 -0.3122  0.0023 -0.0266
  100MOL    C9812176   8.298   7.185   5.046 -0.0546 -0.0933  0.8515
  100MOL    C9912177   8.251   7.196   5.194  0.1344 -0.1844 -0.2288
  100MOL  Cl10012178   8.353   7.093   5.300 -0.0398 -0.2493 -0.1009
  100MOL   H10112179   8.265   7.268   4.983 -0.2042 -1.2988 -0.6786
  100MOL   H10212180   8.405   7.194   5.060  0.1982 -0.6732 -0.6685
  100MOL   H10312181   8.285   7.297   5.219  0.1706  0.1495 -1.5777
  100MOL   C10412182   8.094   7.182   5.214 -0.7528 -0.0847  0.3786
  100MOL   C10512183   8.046   7.247   5.347 -0.4159 -0.6671  0.3952
  100MOL  Cl10612184   8.107   7.415   5.373 -0.1202  0.2062  0.1864
  100MOL   H10712185   8.059   7.079   5.211  1.9785 -1.0518  0.7432
  100MOL   H10812186   8.047   7.233   5.129 -0.2007 -2.2139 -1.2554
  100MOL   H10912187   7.937   7.255   5.346 -0.2763  3.5682  3.5605
  100MOL   C11012188   8.079   7.165   5.470 -0.3982 -0.8189 -0.3161
  100MOL   C11112189   8.066   7.240   5.608 -0.2841 -0.2734 -0.0142
  100MOL  Cl11212190   8.084   7.117   5.733  0.1875  0.0589  0.0981
  100MOL   H11312191   8.180   7.125   5.464 -0.0554  0.0442 -0.3551
  100MOL   H11412192   8.015   7.077   5.471 -1.1398 -0.2941  1.5599
  100MOL   H11512193   8.144   7.314   5.623  0.9932 -1.5295 -0.4111
  100MOL   C11612194   7.933   7.314   5.631  0.1521  0.4154 -0.1327
  100MOL   C11712195   7.908   7.336   5.783  0.7972  0.4361  0.3021
  100MOL  Cl11812196   7.781   7.465   5.810 -0.0514  0.1388  0.2915
  100MOL   H11912197   7.858   7.239   5.606 -0.1419  0.5071  0.4654
  100MOL   H12012198   7.924   7.404   5.571 -1.4091  0.2956 -0.0989
  100MOL   H12112199   7.871   7.250   5.839  0.0546  0.9963  0.6864
  100MOL   H12212200   7.996   7.372   5.836  0.0680  0.9743  1.1587
  101MOL     C112201   0.462   5.331   7.742  0.1211 -0.2264 -0.5673
  101MOL     C212202   0.435   5.480   7.699 -0.2625  0.9338 -0.5169
  101MOL    Cl312203   0.591   5.573   7.719  0.1095 -0.5584  0.4317
  101MOL     H412204   0.544   5.290   7.684  1.9222  2.4415  0.0315
  101MOL     H512205   0.494   5.324   7.846  2.4929  1.3807 -1.1502
  101MOL     H612206   0.401   5.497   7.596 -0.9114 -0.1015 -0.4916
  101MOL     H712207   0.375   5.268   7.725  0.5336 -0.9211 -0.1160
  101MOL     C812208   0.331   5.546   7.783 -0.3302 -0.0609  0.3721
  101MOL     C912209   0.196   5.498   7.763  0.1440  0.6895 -0.3047
  101MOL   Cl1012210   0.126   5.526   7.598  0.0732 -0.1239 -0.4696
  101MOL    H1112211   0.331   5.650   7.750 -0.3111 -0.5467 -1.1668
  101MOL    H1212212   0.365   5.558   7.886  3.1700 -1.7428 -0.5350
  101MOL    H1312213   0.195   5.391   7.786 -0.2622  1.0069  1.1761
  101MOL    C1412214   0.088   5.561   7.867 -0.4874 -0.3252 -0.3926
  101MOL    C1512215   8.488   5.480   7.900 -0.2485  0.3198 -0.0773
  101MOL   Cl1612216   8.372   5.481   7.771  0.1088 -0.0051  0.4983
  101MOL    H1712217   0.070   5.663   7.835  0.9428  0.0780  0.0424
  101MOL    H1812218   0.149   5.580   7.956 -0.2655  3.2940 -1.2663
  101MOL    H1912219   0.003   5.379   7.911 -0.9969  0.0852  0.5475
  101MOL    C2012220   8.425   5.539   8.024  0.0066  0.2213 -0.8074
  101MOL    C2112221   8.297   5.466   8.077 -0.2432  0.4051  0.3837
  101MOL   Cl2212222   8.245   5.530   8.229 -0.1133 -0.2107  0.2807
  101MOL    H2312223   8.399   5.643   8.008  1.9481  1.1585  1.6769
  101MOL    H2412224   8.494   5.554   8.107  0.8696  3.0901 -1.9911
  101MOL    H2512225   8.211   5.482   8.013 -1.2851  0.8356  1.8447
  101MOL    C2612226   8.316   5.317   8.105 -0.3816  0.2384 -0.1328
  101MOL    C2712227   8.201   5.226   8.142  0.0439  0.0973  0.3964
  101MOL   Cl2812228   8.271   5.070   8.204 -0.1028  0.0727  0.0317
  101MOL    H2912229   8.401   5.315   8.174 -0.2933 -0.1828 -0.2590
  101MOL    H3012230   8.347   5.271   8.012 -3.3016 -1.6163 -0.2285
  101MOL    H3112231   8.150   5.277   8.224 -2.4056  2.0801 -2.2765
  101MOL    C3212232   8.112   5.183   8.021  0.4579  0.4206  0.5123
  101MOL    C3312233   7.998   5.085   8.057 -0.6610 -0.9344 -0.0560
  101MOL   Cl3412234   7.896   5.040   7.918 -0.5008 -0.1636 -0.1327
  101MOL    H3512235   8.176   5.148   7.940 -0.2225  0.9117 -0.2400
  101MOL    H3612236   8.057   5.269   7.982  0.3138  0.6529  1.2216
  101MOL    H3712237   8.051   4.995   8.089  0.8325 -0.0342  0.1003
  101MOL    C3812238   7.902   5.130   8.165  1.0032 -0.6096  0.0280
  101MOL    C3912239   7.818   5.023   8.237 -0.8919  0.1679  0.3786
  101MOL   Cl4012240   7.700   5.132   8.319  0.2966  0.2156  0.0998
  101MOL    H4112241   7.834   5.207   8.129  0.3425 -1.4697 -0.5949
  101MOL    H4212242   7.976   5.174   8.232  1.3494  0.9877 -1.3618
  101MOL    H4312243   7.752   4.962   8.175 -2.0143 -1.3908  2.9873
  101MOL    C4412244   7.890   4.932   8.333 -0.2167  1.4623  0.5299
  101MOL    C4512245   7.909   4.789   8.267  0.3282 -0.2218  0.2362
  101MOL   Cl4612246   7.750   4.705   8.267 -0.0767  0.2060  0.2051
  101MOL    H4712247   7.842   4.915   8.429 -1.4634 -3.3200 -0.8365
  101MOL    H4812248   7.990   4.966   8.362  0.3513  0.1085  0.2283
  101MOL    H4912249   7.943   4.796   8.163 -0.5121  1.6218  0.0720
  101MOL    C5012250   8.022   4.700   8.329  0.1749  0.5108 -0.3303
  101MOL    C5112251   8.161   4.737   8.286 -0.4049  0.0960  0.3129
  101MOL   Cl5212252   8.200   4.670   8.125  0.2712  0.0876 -0.1559
  101MOL    H5312253   7.991   4.598   8.305 -0.9640  0.7716  0.0052
  101MOL    H5412254   7.990   4.729   8.429  0.6586  0.7278 -0.2401
  101MOL    H5512255   8.164   4.845   8.272  1.4519  0.0599  0.3712
  101MOL    C5612256   8.268   4.697   8.379 -0.3532  0.2505 -0.0215
  101MOL    C5712257   8.251   4.734   0.009  0.3340  0.3160 -0.3001
  101MOL   Cl5812258   8.235   4.907   0.037  0.2857 -0.0005 -0.1380
  101MOL    H5912259   8.360   4.750   8.357 -0.8377  0.2157 -2.2652
  101MOL    H6012260   8.293   4.591   8.375  0.4638  0.4497 -0.3598
  101MOL    H6112261   8.161   4.687   0.048  1.0338  0.8626  2.0394
  101MOL    C6212262   8.362   4.680   0.091 -0.3194  0.3991  0.6769
  101MOL    C6312263   8.359   4.701   0.243 -1.0507  0.3752 -0.6857
  101MOL   Cl6412264   8.513   4.633   0.302 -0.2427  0.2651 -0.0427
  101MOL    H6512265   8.453   4.729   0.057 -1.7114  2.4410 -0.2053
  101MOL    H6612266   8.371   4.573   0.073  0.4278  0.7761 -1.3342
  101MOL    H6712267   8.363   4.805   0.274 -0.3126  0.4973 -1.1785
  101MOL    C6812268   8.242   4.629   0.320 -0.3893 -0.2899  0.0628
  101MOL    C6912269   8.130   4.722   0.363 -0.4748 -0.6252  0.4417
  101MOL   Cl7012270   8.197   4.860   0.463  0.3201  0.1133 -0.5268
  101MOL    H7112271   8.288   4.591   0.411  2.3095  1.8353 -0.3612
  101MOL    H7212272   8.205   4.541   0.268 -1.8709  0.9725 -1.0649
  101MOL    H7312273   8.087   4.772   0.276  3.1318  0.8399 -0.6104
  101MOL    C7412274   8.027   4.647   0.456  0.4226 -0.0685 -0.1157
  101MOL    C7512275   7.933   4.552   0.374 -0.3026  0.9106  0.9244
  101MOL   Cl7612276   7.805   4.642   0.296  0.0978 -0.1016  0.1522
  101MOL    H7712277   7.967   4.722   0.508  2.0535  0.8197  0.4853
  101MOL    H7812278   8.083   4.580   0.520 -0.9114 -2.3457 -1.2369
  101MOL    H7912279   7.976   4.494   0.293 -1.3477  0.3834  0.7383
  101MOL    C8012280   7.853   4.455   0.469  0.2089  0.0979 -0.0056
  101MOL    C8112281   7.770   4.340   0.398  0.5337 -0.1646 -0.5662
  101MOL   Cl8212282   7.654   4.267   0.520 -0.0105  0.3098 -0.2462
  101MOL    H8312283   7.784   4.512   0.530 -0.8341 -2.0622  0.8945
  101MOL    H8412284   7.922   4.405   0.537  1.8127 -1.2651 -2.5287
  101MOL    H8512285   7.700   4.372   0.320 -1.2890  1.8953  1.8302
  101MOL    C8612286   7.855   4.229   0.328 -0.1701  0.1340  0.1950
  101MOL    C8712287   7.785   4.147   0.217  0.0622  0.0657  0.1849
  101MOL   Cl8812288   7.899   4.013   0.170  0.3075  0.1381 -0.3550
  101MOL    H8912289   7.866   4.168   0.418  0.2629 -0.7292 -0.4368
  101MOL    H9012290   7.955   4.254   0.292  0.5185 -2.8938 -0.0699
  101MOL    H9112291   7.693   4.111   0.264 -0.6828  1.8276  0.1364
  101MOL    C9212292   7.746   4.224   0.085 -0.2744 -0.7857  0.2961
  101MOL    C9312293   7.852   4.263   8.504  0.1948  0.0042 -0.2562
  101MOL   Cl9412294   7.962   4.391   0.039  0.1133 -0.3989  0.4087
  101MOL    H9512295   7.673   4.304   0.099 -1.2424 -1.6404  0.1750
  101MOL    H9612296   7.683   4.158   0.025  1.9064 -1.9792 -0.7541
  101MOL    H9712297   7.915   4.176   8.487 -1.4266 -1.4202  0.8605
  101MOL    C9812298   7.792   4.313   8.366 -0.4686 -0.1355 -0.3549
  101MOL    C9912299   7.721   4.204   8.283  0.0774  0.4959  0.1913
  101MOL  Cl10012300   7.806   4.043   8.283 -0.1702  0.3298 -0.1439
  101MOL   H10112301   7.882   4.351   8.317  0.3285  0.8820  1.8626
  101MOL   H10212302   7.731   4.402   8.380  0.6331  0.7850 -1.2579
  101MOL   H10312303   7.623   4.186   8.327 -2.0002  0.1806 -4.2084
  101MOL   C10412304   7.702   4.245   8.132 -0.1048 -0.1731  0.1864
  101MOL   C10512305   7.605   4.362   8.091  0.6128 -0.0313  0.1042
  101MOL  Cl10612306   7.440   4.322   8.151 -0.0243  0.2017  0.4371
  101MOL   H10712307   7.662   4.156   8.082 -0.4772 -1.3580  2.5510
  101MOL   H10812308   7.801   4.261   8.089  0.5981 -2.6428  0.8001
  101MOL   H10912309   7.635   4.451   8.147  2.2012 -0.5941  0.1718
  101MOL   C11012310   7.601   4.392   7.942  0.0126 -0.3077 -0.5594
  101MOL   C11112311   7.741   4.418   7.872 -0.4787  0.2323  0.4391
  101MOL  Cl11212312   7.828   4.553   7.946 -0.1991 -0.1554  0.0315
  101MOL   H11312313   7.543   4.484   7.934  1.6731  0.8880  0.9550
  101MOL   H11412314   7.540   4.313   7.898 -0.4254 -1.4898  2.1179
  101MOL   H11512315   7.796   4.323   7.876  0.7416  0.7937 -2.0229
  101MOL   C11612316   7.727   4.452   7.729  0.2054 -0.0525 -0.3006
  101MOL   C11712317   7.664   4.342   7.633  0.1653  0.0574  0.6818
  101MOL  Cl11812318   7.676   4.380   7.465 -0.4203  0.2894  0.0642
  101MOL   H11912319   7.828   4.461   7.688 -0.6730  0.5521 -2.4012
  101MOL   H12012320   7.674   4.547   7.722  1.6701  0.6981 -1.6116
  101MOL   H12112321   7.708   4.244   7.650  1.7946  0.3452 -1.7057
  101MOL   H12212322   7.561   4.330   7.666 -0.1747  3.5473  1.0837
  102MOL     C112323   7.228   2.794   3.454 -0.0145  0.7315  0.2567
  102MOL     C212324   7.118   2.898   3.403  0.1821 -0.7325  0.7393
  102MOL    Cl312325   7.007   2.804   3.299 -0.2114  0.0179  0.1397
  102MOL     H412326   7.280   2.752   3.367  0.3466 -1.0904  1.3186
  102MOL     H512327   7.294   2.838   3.529  0.6098 -0.7074  0.5593
  102MOL     H612328   7.065   2.948   3.485 -0.7173 -0.5814  0.0765
  102MOL     H712329   7.184   2.704   3.496 -0.7472  0.4357 -1.0965
  102MOL     C812330   7.179   3.010   3.326 -0.4044 -0.4593  0.0918
  102MOL     C912331   7.246   3.118   3.416 -0.3205 -0.1403 -0.4411
  102MOL   Cl1012332   7.140   3.189   3.536 -0.1835  0.3161 -0.2657
  102MOL    H1112333   7.105   3.061   3.265 -1.1742 -0.3345  1.1258
  102MOL    H1212334   7.245   2.967   3.250 -1.5195 -1.1870 -0.4743
  102MOL    H1312335   7.316   3.065   3.481  1.3798  1.0690 -1.2751
  102MOL    C1412336   7.307   3.232   3.333  0.1891 -0.0197  0.1706
  102MOL    C1512337   7.426   3.187   3.244 -1.1049  0.2752  1.0523
  102MOL   Cl1612338   7.559   3.152   3.360  0.3898  0.1315 -0.6115
  102MOL    H1712339   7.333   3.317   3.395  0.6002  1.9871 -2.6255
  102MOL    H1812340   7.235   3.271   3.260 -0.1090 -0.8558  0.0194
  102MOL    H1912341   7.403   3.098   3.184 -2.1683  1.0464  0.2940
  102MOL    C2012342   7.459   3.305   3.143  0.3846  0.4330  0.1873
  102MOL    C2112343   7.574   3.271   3.039  0.1737 -0.5532 -0.2702
  102MOL   Cl2212344   7.528   3.121   2.962 -0.1932  0.0099 -0.2046
  102MOL    H2312345   7.472   3.395   3.203 -0.4796  1.6484 -1.4134
  102MOL    H2412346   7.374   3.326   3.078 -0.0143  0.3318  0.6780
  102MOL    H2512347   7.574   3.348   2.962 -2.2402  2.1745  2.3395
  102MOL    C2612348   7.705   3.252   3.100 -1.0934 -0.3676  0.3707
  102MOL    C2712349   7.754   3.380   3.165  0.8258 -0.2864 -0.4919
  102MOL   Cl2812350   7.729   3.525   3.056  0.1625  0.3590  0.0833
  102MOL    H2912351   7.772   3.215   3.023  2.0024 -0.9024  3.2161
  102MOL    H3012352   7.706   3.162   3.161  1.2148 -2.2164 -2.2819
  102MOL    H3112353   7.698   3.392   3.258  2.2416 -0.1944  0.3646
  102MOL    C3212354   7.904   3.367   3.216 -0.0829 -0.8537  0.4228
  102MOL    C3312355   7.969   3.463   3.320 -0.4382  0.1987  0.5009
  102MOL   Cl3412356   7.884   3.433   3.471 -0.2209 -0.0771 -0.0976
  102MOL    H3512357   7.970   3.359   3.129  0.5140  1.4588  0.6198
  102MOL    H3612358   7.918   3.272   3.266  0.5444  0.3450  2.5791
  102MOL    H3712359   8.072   3.441   3.348 -0.3006 -0.8673 -0.7748
  102MOL    C3812360   7.957   3.610   3.286  0.3551  0.4770  0.2226
  102MOL    C3912361   8.038   3.655   3.167 -0.3875 -0.6094  0.0582
  102MOL   Cl4012362   8.206   3.653   3.206  0.4405 -0.7058 -0.0302
  102MOL    H4112363   7.960   3.671   3.377  0.8800 -0.6168  0.9479
  102MOL    H4212364   7.852   3.631   3.265  0.0141  0.1573  1.5277
  102MOL    H4312365   8.007   3.594   3.083 -1.0551 -0.0748 -0.0883
  102MOL    C4412366   7.990   3.797   3.120  0.4637  0.2099  0.3066
  102MOL    C4512367   8.067   3.844   2.989 -0.0673 -0.1993  0.2984
  102MOL   Cl4612368   8.041   4.017   2.971  0.3081 -0.2829 -0.2712
  102MOL    H4712369   8.000   3.865   3.205 -0.9965 -0.1953  0.8051
  102MOL    H4812370   7.885   3.783   3.097  0.6165  0.6092 -0.6349
  102MOL    H4912371   8.175   3.834   2.999  0.0075  2.4532  2.6302
  102MOL    C5012372   8.021   3.781   2.854 -0.2666  0.0259 -0.1254
  102MOL    C5112373   8.133   3.793   2.744  0.5511  0.9409 -0.3661
  102MOL   Cl5212374   8.107   3.946   2.662  0.0315  0.1509 -0.6324
  102MOL    H5312375   7.924   3.818   2.822 -0.2139 -0.1010 -0.4251
  102MOL    H5412376   8.007   3.676   2.881  0.5226 -0.1449 -0.3554
  102MOL    H5512377   8.232   3.801   2.788  0.0200  1.9772  0.6912
  102MOL    C5612378   8.119   3.681   2.640  0.5586 -0.3885  0.1175
  102MOL    C5712379   7.997   3.682   2.546  0.1480  0.0769 -0.3981
  102MOL   Cl5812380   7.867   3.614   2.644  0.1384  0.1827  0.4564
  102MOL    H5912381   8.145   3.585   2.684  1.4306 -0.2333 -0.0477
  102MOL    H6012382   8.211   3.702   2.584  0.5422 -1.4882 -0.3217
  102MOL    H6112383   7.971   3.785   2.521 -0.9048  0.3248  1.5908
  102MOL    C6212384   8.025   3.600   2.419 -0.9602 -0.3264 -0.4312
  102MOL    C6312385   7.899   3.566   2.328 -0.6237  0.0116  0.0829
  102MOL   Cl6412386   7.947   3.424   2.227 -0.1844 -0.0751 -0.1258
  102MOL    H6512387   8.081   3.515   2.457  0.4085  0.7257 -0.0623
  102MOL    H6612388   8.107   3.646   2.365  0.5361 -0.7377  1.4448
  102MOL    H6712389   7.812   3.556   2.394  0.6617  2.3677  2.2420
  102MOL    C6812390   7.881   3.686   2.236 -0.1863  0.0144  0.5141
  102MOL    C6912391   7.749   3.692   2.149 -0.6428 -0.5061 -0.8223
  102MOL   Cl7012392   7.756   3.835   2.040  0.2513  0.4363  0.3779
  102MOL    H7112393   7.963   3.684   2.165 -1.4343 -0.1013 -0.9627
  102MOL    H7212394   7.893   3.770   2.303 -0.3498  0.6349 -0.2220
  102MOL    H7312395   7.746   3.600   2.091 -0.3763  0.5609 -2.5841
  102MOL    C7412396   7.621   3.713   2.226  0.5921 -0.2014 -0.0098
  102MOL    C7512397   7.489   3.692   2.159 -0.7735 -0.4484  1.0720
  102MOL   Cl7612398   7.367   3.742   2.276  0.5930  0.1022  0.3311
  102MOL    H7712399   7.625   3.805   2.285  0.4748 -0.9782  1.2232
  102MOL    H7812400   7.638   3.632   2.297 -0.7485 -0.9638 -0.5490
  102MOL    H7912401   7.483   3.760   2.074  1.5847  2.3010  2.9796
  102MOL    C8012402   7.457   3.544   2.129  0.9068  0.3063 -1.2659
  102MOL    C8112403   7.334   3.517   2.045  0.2849 -0.4079 -1.0592
  102MOL   Cl8212404   7.267   3.361   2.097  0.1609  0.3061  0.0569
  102MOL    H8312405   7.444   3.493   2.225 -0.6757  2.2689 -0.3967
  102MOL    H8412406   7.542   3.497   2.079 -0.9329 -3.7249 -0.8560
  102MOL    H8512407   7.262   3.597   2.058 -1.0329 -1.8153  0.5345
  102MOL    C8612408   7.359   3.491   1.901  0.0761 -0.3279  0.8914
  102MOL    C8712409   7.426   3.602   1.825  0.3454  0.3947 -0.0720
  102MOL   Cl8812410   7.340   3.763   1.854 -0.0894 -0.4841  0.0262
  102MOL    H8912411   7.264   3.473   1.852 -0.1127  1.0633  0.7285
  102MOL    H9012412   7.426   3.406   1.887  0.7833  0.4699 -0.6386
  102MOL    H9112413   7.529   3.615   1.859 -0.0277 -0.3275  1.3760
  102MOL    C9212414   7.418   3.573   1.673 -0.4569 -0.0587 -0.3513
  102MOL    C9312415   7.482   3.442   1.611 -0.1037 -0.1286  0.5504
  102MOL   Cl9412416   7.630   3.399   1.705  0.1113 -0.3580  0.1498
  102MOL    H9512417   7.481   3.650   1.629  2.0132 -0.4544  2.3372
  102MOL    H9612418   7.315   3.576   1.638 -1.0217 -0.8094  1.1760
  102MOL    H9712419   7.412   3.359   1.608  1.2949 -1.2929 -1.6855
  102MOL    C9812420   7.537   3.446   1.461  0.0402  0.5051  0.5322
  102MOL    C9912421   7.437   3.448   1.345  0.2409 -0.1155 -0.0830
  102MOL  Cl10012422   7.361   3.282   1.356 -0.3719 -0.1657  0.2496
  102MOL   H10112423   7.607   3.365   1.439  1.1964  1.5744  0.1934
  102MOL   H10212424   7.599   3.535   1.453 -0.6691  0.9680  0.0823
  102MOL   H10312425   7.352   3.514   1.357  1.1536  0.8588  1.1237
  102MOL   C10412426   7.506   3.462   1.207  0.1421  0.0850 -0.5301
  102MOL   C10512427   7.569   3.604   1.186  0.6698  0.5919 -0.3223
  102MOL  Cl10612428   7.431   3.718   1.201  0.0164  0.0735  0.0266
  102MOL   H10712429   7.437   3.454   1.123  0.4390 -1.2642 -0.6501
  102MOL   H10812430   7.575   3.379   1.197 -0.1875 -0.4539  1.4086
  102MOL   H10912431   7.636   3.624   1.269 -0.6126  0.9462  0.6488
  102MOL   C11012432   7.625   3.626   1.052 -0.6560  0.1590 -0.2740
  102MOL   C11112433   7.708   3.752   1.030 -0.2119 -0.9178 -0.0596
  102MOL  Cl11212434   7.720   3.776   0.859 -0.1063  0.0480  0.2749
  102MOL   H11312435   7.545   3.620   0.979  0.8019 -1.7744 -1.7580
  102MOL   H11412436   7.692   3.544   1.026 -0.1011  0.7426 -0.7180
  102MOL   H11512437   7.660   3.841   1.071  3.4681  0.9636  0.2942
  102MOL   C11612438   7.850   3.738   1.092  0.6525  0.1594  0.6352
  102MOL   C11712439   7.942   3.860   1.073  0.0041 -0.6076  0.1047
  102MOL  Cl11812440   8.109   3.807   1.091  0.3607  0.4343  0.0353
  102MOL   H11912441   7.902   3.649   1.058  0.9306  0.6022 -0.1135
  102MOL   H12012442   7.846   3.723   1.200 -0.7472  4.5186  1.3057
  102MOL   H12112443   7.923   3.909   0.978  0.3797  2.7503  1.6950
  102MOL   H12212444   7.917   3.937   1.146 -1.2058 -1.0597  0.1928
  103MOL     C112445   5.935   2.835   5.765 -1.1391  0.0566  0.3456
  103MOL     C212446   5.793   2.785   5.730  0.3970  0.4557  0.8480
  103MOL    Cl312447   5.791   2.697   5.581  0.5773 -0.0798  0.1199
  103MOL     H412448   6.011   2.758   5.748 -1.0897 -0.3014  2.1732
  103MOL     H512449   5.963   2.924   5.707 -1.9257 -0.8471 -1.4702
  103MOL     H612450   5.765   2.710   5.805  1.0249 -1.8708 -1.1722
  103MOL     H712451   5.939   2.882   5.863  1.6134  1.5245 -0.4133
  103MOL     C812452   5.696   2.901   5.727  0.0464 -0.3974 -0.0051
  103MOL     C912453   5.544   2.868   5.705  1.6713 -0.7603  0.4055
  103MOL   Cl1012454   5.459   3.029   5.708 -0.0870 -0.0785  0.6752
  103MOL    H1112455   5.722   2.980   5.657 -1.3098 -0.9815 -1.2034
  103MOL    H1212456   5.697   2.945   5.826 -2.4378  1.2574 -0.6517
  103MOL    H1312457   5.530   2.828   5.604  0.9058 -1.5319  0.8056
  103MOL    C1412458   5.480   2.772   5.810 -0.1151 -0.4172  0.0100
  103MOL    C1512459   5.330   2.758   5.807 -0.0742  0.0669 -0.3762
  103MOL   Cl1612460   5.237   2.885   5.897 -0.2507 -0.3028  0.5727
  103MOL    H1712461   5.516   2.801   5.909  0.0235 -0.0835 -0.1355
  103MOL    H1812462   5.526   2.675   5.795 -1.3546 -1.2420  1.3768
  103MOL    H1912463   5.298   2.764   5.702 -2.4138 -0.0417  0.2936
  103MOL    C2012464   5.285   2.623   5.871  0.8285  0.3070 -0.0845
  103MOL    C2112465   5.131   2.591   5.863 -1.0355 -1.3007  0.5210
  103MOL   Cl2212466   5.114   2.426   5.936 -0.3361  0.1196 -0.3855
  103MOL    H2312467   5.317   2.634   5.974  0.9947  1.4732 -0.2505
  103MOL    H2412468   5.339   2.538   5.829 -0.5357 -0.0361 -1.2148
  103MOL    H2512469   5.078   2.660   5.928  1.5865  0.4526  0.8813
  103MOL    C2612470   5.075   2.577   5.714 -0.0479 -0.0766 -0.4543
  103MOL    C2712471   4.921   2.564   5.694  0.2098  0.8369  0.9945
  103MOL   Cl2812472   4.877   2.503   5.531 -0.2835  0.0737  0.1876
  103MOL    H2912473   5.120   2.486   5.675  0.1923  0.2647 -0.9691
  103MOL    H3012474   5.121   2.653   5.652 -0.6424  0.3350 -0.3912
  103MOL    H3112475   4.876   2.502   5.772 -0.0999  2.1746  1.9004
  103MOL    C3212476   4.849   2.696   5.711 -0.0515 -0.6294  0.4227
  103MOL    C3312477   4.702   2.698   5.698 -0.3084 -0.5556 -0.3514
  103MOL   Cl3412478   4.648   2.859   5.748 -0.3301  0.0002 -0.0704
  103MOL    H3512479   4.883   2.767   5.636 -0.0391  1.4940  2.3820
  103MOL    H3612480   4.881   2.726   5.811 -0.4346 -1.7586  0.8933
  103MOL    H3712481   4.663   2.690   5.597  0.4049  1.1862 -0.7761
  103MOL    C3812482   4.630   2.585   5.773 -0.0233 -0.5125  0.5455
  103MOL    C3912483   4.483   2.599   5.761  0.2090 -0.0807 -0.4304
  103MOL   Cl4012484   4.400   2.512   5.889 -0.2091 -0.2595 -0.3569
  103MOL    H4112485   4.658   2.594   5.878  2.9145 -1.2219 -0.1235
  103MOL    H4212486   4.656   2.482   5.747  1.2459 -0.2924  0.9228
  103MOL    H4312487   4.454   2.701   5.787 -0.3528  0.2794 -2.3615
  103MOL    C4412488   4.436   2.566   5.623  0.1058 -0.1491 -0.9978
  103MOL    C4512489   4.297   2.617   5.578 -0.2377  0.3301 -0.3251
  103MOL   Cl4612490   4.281   2.792   5.604 -0.3820 -0.3244 -0.1052
  103MOL    H4712491   4.453   2.460   5.605 -1.1691 -1.2064  3.3011
  103MOL    H4812492   4.493   2.618   5.546 -0.4860  2.1921  0.1039
  103MOL    H4912493   4.282   2.601   5.471 -3.6711  1.2418 -0.0485
  103MOL    C5012494   4.170   2.550   5.643  0.1256 -1.2090 -0.1300
  103MOL    C5112495   4.141   2.418   5.560 -0.3834  0.0446 -0.4456
  103MOL   Cl5212496   4.064   2.459   5.400 -0.3374 -0.4812  0.3947
  103MOL    H5312497   4.081   2.613   5.637  1.5174  0.7204 -1.4451
  103MOL    H5412498   4.178   2.521   5.748  0.7388 -0.4453  0.0407
  103MOL    H5512499   4.231   2.358   5.547 -1.5172 -1.7070 -0.3293
  103MOL    C5612500   4.050   2.331   5.648  0.7265  0.1892  0.3606
  103MOL    C5712501   4.053   2.183   5.611 -0.6446  0.4326  0.0423
  103MOL   Cl5812502   3.903   2.117   5.679 -0.2870 -0.1865 -0.1684
  103MOL    H5912503   3.948   2.363   5.625  1.2503 -0.2977 -2.9340
  103MOL    H6012504   4.064   2.341   5.755 -0.0423 -2.0580  0.6901
  103MOL    H6112505   4.055   2.160   5.504  0.1154  3.1907 -0.5812
  103MOL    C6212506   4.178   2.114   5.680  0.3327  0.4672  0.2727
  103MOL    C6312507   4.201   1.965   5.645 -0.6915  0.2610  0.3115
  103MOL   Cl6412508   4.329   1.903   5.748 -0.6177 -0.1923 -0.1692
  103MOL    H6512509   4.170   2.120   5.788  1.6450 -0.2197  0.4117
  103MOL    H6612510   4.273   2.167   5.672  1.1242 -0.8152  1.0534
  103MOL    H6712511   4.107   1.913   5.665 -1.5181  1.1368 -1.2697
  103MOL    C6812512   4.248   1.934   5.500  0.5557 -0.9935  0.2192
  103MOL    C6912513   4.307   1.798   5.465  0.4530  0.4419 -0.0189
  103MOL   Cl7012514   4.348   1.810   5.297 -0.5292  0.1178 -0.2910
  103MOL    H7112515   4.317   2.014   5.472 -1.1617  1.2076  2.1638
  103MOL    H7212516   4.166   1.953   5.431  0.6233  0.8162  0.5992
  103MOL    H7312517   4.404   1.787   5.513 -0.2318  0.8105  1.4822
  103MOL    C7412518   4.217   1.678   5.483 -0.8865 -0.0486  0.4636
  103MOL    C7512519   4.290   1.541   5.482  0.2664  0.4988 -0.6249
  103MOL   Cl7612520   4.172   1.416   5.434  0.2190 -0.1237 -0.2856
  103MOL    H7712521   4.123   1.678   5.428  0.8957 -0.7864 -2.7121
  103MOL    H7812522   4.168   1.682   5.580 -0.0652  1.9833  0.8168
  103MOL    H7912523   4.374   1.541   5.411  1.2437 -2.1715  0.4783
  103MOL    C8012524   4.344   1.488   5.617 -0.4069 -0.4974  0.1659
  103MOL    C8112525   4.447   1.378   5.617 -0.7963  0.6066 -0.4515
  103MOL   Cl8212526   4.355   1.237   5.670 -0.4554 -0.5207 -0.1040
  103MOL    H8312527   4.261   1.463   5.683 -2.1564  0.7376 -1.5111
  103MOL    H8412528   4.393   1.569   5.671 -1.4018 -0.3116  0.8153
  103MOL    H8512529   4.476   1.361   5.514  1.3635 -1.2395  0.4046
  103MOL    C8612530   4.573   1.399   5.703 -0.2664 -0.1478 -0.2363
  103MOL    C8712531   4.646   1.532   5.673  0.6055  0.6533 -0.3422
  103MOL   Cl8812532   4.720   1.506   5.512  0.2506 -0.2438  0.1758
  103MOL    H8912533   4.649   1.321   5.693 -1.7203 -1.6766  0.4166
  103MOL    H9012534   4.540   1.393   5.807 -0.1922  0.0623 -0.2021
  103MOL    H9112535   4.589   1.625   5.665  0.2553  0.5197  0.5406
  103MOL    C9212536   4.758   1.571   5.761 -0.0335 -0.0500 -0.2020
  103MOL    C9312537   4.723   1.599   5.910 -0.2455  0.2308 -0.1443
  103MOL   Cl9412538   4.595   1.727   5.908  0.1205 -0.2251  0.0753
  103MOL    H9512539   4.809   1.658   5.719 -0.0573 -0.6350 -1.4626
  103MOL    H9612540   4.832   1.491   5.753 -0.1040 -0.0959 -0.3938
  103MOL    H9712541   4.683   1.514   5.964  1.2483 -0.3565  0.0463
  103MOL    C9812542   4.834   1.655   5.992 -0.0836  0.3561  0.3386
  103MOL    C9912543   4.965   1.565   5.997  0.3044 -0.2395 -0.0578
  103MOL  Cl10012544   4.939   1.401   6.061 -0.1880 -0.3928 -0.1974
  103MOL   H10112545   4.804   1.662   6.097 -1.6043 -0.5791 -0.0262
  103MOL   H10212546   4.859   1.758   5.963 -1.1977  0.6363  0.3725
  103MOL   H10312547   4.998   1.561   5.893  0.1871  1.8551 -0.2021
  103MOL   C10412548   5.081   1.629   6.075  0.8423 -0.1598 -0.1046
  103MOL   C10512549   5.215   1.551   6.074 -0.6791 -0.3025  0.0805
  103MOL  Cl10612550   5.306   1.611   6.213 -0.1275 -0.2411 -0.0045
  103MOL   H10712551   5.057   1.633   6.181  2.1399 -2.8824  0.3250
  103MOL   H10812552   5.097   1.735   6.057  1.5108 -0.0499  1.1233
  103MOL   H10912553   5.194   1.445   6.086 -0.0886 -0.2163  1.9555
  103MOL   C11012554   5.292   1.574   5.942 -0.0872 -0.2120  0.2570
  103MOL   C11112555   5.440   1.538   5.939  0.5423  0.8649  0.9141
  103MOL  Cl11212556   5.506   1.607   5.790 -0.0934  0.0137  0.0553
  103MOL   H11312557   5.298   1.679   5.914 -1.7876 -0.3344 -0.6577
  103MOL   H11412558   5.247   1.518   5.860  1.8818 -0.9100 -0.3648
  103MOL   H11512559   5.483   1.596   6.020  0.5561  1.7723  0.2600
  103MOL   C11612560   5.474   1.383   5.969  0.4054 -0.4971  0.0912
  103MOL   C11712561   5.621   1.365   6.015 -0.3634 -0.4664 -0.4432
  103MOL  Cl11812562   5.638   1.212   6.096  0.1906  0.0927 -0.5094
  103MOL   H11912563   5.435   1.322   5.888 -0.0750  0.8882 -0.7392
  103MOL   H12012564   5.405   1.351   6.047 -0.6407  1.5180  0.0468
  103MOL   H12112565   5.694   1.369   5.935 -2.1988  0.3757 -2.1153
  103MOL   H12212566   5.659   1.432   6.092 -0.3220 -2.1917  1.0923
  104MOL     C112567   2.051   5.345   4.051  0.5025 -0.0521  0.4829
  104MOL     C212568   2.144   5.418   4.148  0.8294  1.2790 -0.1590
  104MOL    Cl312569   2.076   5.361   4.302  0.0097 -0.4077 -0.2722
  104MOL     H412570   2.098   5.354   3.953  1.1911 -2.2218  0.5814
  104MOL     H512571   2.025   5.245   4.086 -1.0284 -0.4373 -1.6479
  104MOL     H612572   2.241   5.370   4.157 -0.9445 -2.1691  1.5447
  104MOL     H712573   1.957   5.398   4.034  0.5486  0.7236  2.5433
  104MOL     C812574   2.141   5.575   4.159  0.3940  0.1857 -0.5015
  104MOL     C912575   2.223   5.651   4.058  0.4854  0.5002  0.7510
  104MOL   Cl1012576   2.398   5.602   4.066  0.5201  0.3886  0.0618
  104MOL    H1112577   2.176   5.602   4.259 -1.5956 -2.1606  0.9038
  104MOL    H1212578   2.041   5.614   4.174  0.6530 -0.0095  2.0704
  104MOL    H1312579   2.197   5.633   3.954 -0.2241  1.5983  0.7275
  104MOL    C1412580   2.206   5.806   4.077 -0.1177 -0.2459  0.1922
  104MOL    C1512581   2.295   5.882   3.980  0.2985  0.2088  0.3076
  104MOL   Cl1612582   2.254   6.052   4.013  0.3795 -0.0411  0.0468
  104MOL    H1712583   2.236   5.829   4.179 -0.3438  0.1348  0.1728
  104MOL    H1812584   2.100   5.828   4.078 -0.0376  0.2392 -0.6063
  104MOL    H1912585   2.401   5.870   4.003  0.0809  1.6569  2.1395
  104MOL    C2012586   2.267   5.847   3.830  1.0573  0.2226 -0.1278
  104MOL    C2112587   2.327   5.945   3.725 -0.0733  0.2653 -0.4014
  104MOL   Cl2212588   2.261   5.880   3.566  0.1129 -0.1647  0.0183
  104MOL    H2312589   2.159   5.852   3.818  0.9487  0.8126  1.0446
  104MOL    H2412590   2.299   5.746   3.806  0.0859 -0.3267  0.8158
  104MOL    H2512591   2.293   6.047   3.739 -1.0623  0.2182 -2.3146
  104MOL    C2612592   2.483   5.942   3.733  0.4455  0.3631 -0.0397
  104MOL    C2712593   2.564   6.020   3.628  0.2658 -0.2480 -0.2476
  104MOL   Cl2812594   2.737   5.988   3.649 -0.0967 -0.2890  0.4835
  104MOL    H2912595   2.515   5.838   3.737  1.2999  0.6819  2.0880
  104MOL    H3012596   2.514   5.982   3.830  1.5321  0.2745 -0.3393
  104MOL    H3112597   2.539   5.977   3.531 -0.2733 -1.2029  0.3096
  104MOL    C3212598   2.541   6.171   3.642 -0.5594  0.0541  0.6529
  104MOL    C3312599   2.573   6.264   3.521 -0.5659 -0.1808 -0.2980
  104MOL   Cl3412600   2.507   6.419   3.569  0.2266  0.2452 -0.1240
  104MOL    H3512601   2.591   6.194   3.736  0.5043 -0.6136  0.2561
  104MOL    H3612602   2.435   6.176   3.666 -0.6527 -0.6127  0.3873
  104MOL    H3712603   2.680   6.287   3.517 -0.2592 -1.1501  1.6732
  104MOL    C3812604   2.521   6.212   3.383  0.0683 -0.2733  0.1553
  104MOL    C3912605   2.368   6.181   3.369  0.0429  0.6400  0.0119
  104MOL   Cl4012606   2.364   6.030   3.269  0.1094 -0.1135  0.6560
  104MOL    H4112607   2.575   6.121   3.357  0.8076 -0.1155  1.1373
  104MOL    H4212608   2.553   6.273   3.299  0.3841  2.9220  2.5180
  104MOL    H4312609   2.338   6.143   3.466 -0.3106 -1.9904 -1.1044
  104MOL    C4412610   2.270   6.288   3.312  0.4460  0.8908  0.1387
  104MOL    C4512611   2.279   6.323   3.163 -0.5140  0.3342  0.0418
  104MOL   Cl4612612   2.438   6.408   3.124  0.1770  0.0138  0.0380
  104MOL    H4712613   2.291   6.386   3.354  2.0291  0.3455  0.6842
  104MOL    H4812614   2.168   6.280   3.349  0.9721 -0.1503  1.4230
  104MOL    H4912615   2.276   6.224   3.117  1.6440  0.3855 -0.2738
  104MOL    C5012616   2.158   6.395   3.112  0.0509 -0.4843 -0.6575
  104MOL    C5112617   2.153   6.417   2.957 -0.2944  0.0549 -0.1172
  104MOL   Cl5212618   2.113   6.584   2.934  0.1045  0.4795 -0.2326
  104MOL    H5312619   2.148   6.491   3.161  2.0583  0.4180 -1.9356
  104MOL    H5412620   2.066   6.339   3.126  0.8569 -1.7028 -0.1054
  104MOL    H5512621   2.252   6.398   2.915 -0.4096 -1.2705  0.1772
  104MOL    C5612622   2.062   6.326   2.882 -0.0389  0.8146 -0.3233
  104MOL    C5712623   2.033   6.362   2.738 -0.6419 -0.3288 -0.1563
  104MOL   Cl5812624   1.897   6.261   2.680 -0.0658 -0.0438  0.2240
  104MOL    H5912625   1.962   6.322   2.925 -1.1246 -2.5982 -2.8952
  104MOL    H6012626   2.098   6.223   2.890 -2.5065 -0.2193 -1.8184
  104MOL    H6112627   1.999   6.466   2.738  2.4940  0.7226 -0.4193
  104MOL    C6212628   2.158   6.331   2.655  0.1618  0.5862  0.0474
  104MOL    C6312629   2.148   6.349   2.505  0.3316  0.3158  0.2950
  104MOL   Cl6412630   2.315   6.299   2.455  0.1406  0.1838 -0.0135
  104MOL    H6512631   2.187   6.227   2.668 -1.2075  0.2778  0.6292
  104MOL    H6612632   2.230   6.403   2.696 -1.0732  1.4138  0.8033
  104MOL    H6712633   2.078   6.286   2.450  0.2021 -1.3948  2.3912
  104MOL    C6812634   2.128   6.497   2.470  0.0558 -0.1609 -0.4914
  104MOL    C6912635   1.981   6.530   2.452  0.0164 -0.0752 -0.1646
  104MOL   Cl7012636   1.914   6.442   2.315 -0.7996  0.1848  0.1755
  104MOL    H7112637   2.181   6.512   2.376  1.7952  0.1091  0.5088
  104MOL    H7212638   2.178   6.565   2.539 -0.5737 -0.7074  0.5197
  104MOL    H7312639   1.926   6.497   2.540 -0.4343 -0.4824 -0.5938
  104MOL    C7412640   1.959   6.683   2.436  0.0194 -0.8907  0.9468
  104MOL    C7512641   1.975   6.767   2.571  0.0707 -0.6594 -0.1102
  104MOL   Cl7612642   1.832   6.738   2.671  0.2459  0.1197  0.2359
  104MOL    H7712643   1.860   6.705   2.397 -0.4908  0.6307  3.0178
  104MOL    H7812644   2.030   6.714   2.359  0.3363  0.4514  1.7677
  104MOL    H7912645   2.065   6.740   2.626  1.8919 -0.0396 -2.6816
  104MOL    C8012646   1.982   6.915   2.540  0.4955 -0.6018 -0.2651
  104MOL    C8112647   1.984   6.999   2.673 -0.1306 -0.3363  0.0810
  104MOL   Cl8212648   2.003   7.172   2.614  0.3720  0.1829  0.1338
  104MOL    H8312649   1.901   6.939   2.471  0.6955 -0.1885 -0.3607
  104MOL    H8412650   2.072   6.931   2.481  0.0662 -1.2858 -1.1194
  104MOL    H8512651   1.885   6.980   2.714 -0.0123  2.0335  1.5927
  104MOL    C8612652   2.091   6.974   2.784  0.4915 -0.1738  0.6890
  104MOL    C8712653   2.035   7.002   2.927  0.2248  0.7685  0.3030
  104MOL   Cl8812654   2.174   7.046   3.034  0.3305 -0.0137  0.4129
  104MOL    H8912655   2.172   7.036   2.747  0.0646 -0.9387 -1.5969
  104MOL    H9012656   2.129   6.872   2.780 -2.5810 -1.3742  0.6494
  104MOL    H9112657   1.977   7.094   2.919 -2.0351 -0.5442  1.2149
  104MOL    C9212658   1.963   6.876   2.991 -0.4419 -0.0301 -0.0922
  104MOL    C9312659   1.891   6.890   3.126 -0.1251 -0.4675  0.4308
  104MOL   Cl9412660   1.920   6.752   3.237  0.2550  0.0002  0.1637
  104MOL    H9512661   2.047   6.812   3.015 -0.3370  0.4417  0.7918
  104MOL    H9612662   1.903   6.824   2.916 -0.8960  0.2822  0.0564
  104MOL    H9712663   1.931   6.979   3.175  0.9671 -1.5330  1.5339
  104MOL    C9812664   1.745   6.907   3.105  0.7039 -0.1003 -0.3975
  104MOL    C9912665   1.655   6.936   3.224 -0.5923  0.1863  0.3968
  104MOL  Cl10012666   1.490   6.944   3.158  0.4559  0.0705  0.0039
  104MOL   H10112667   1.710   6.815   3.059 -1.7228  0.4777  0.2454
  104MOL   H10212668   1.729   6.983   3.029  1.3435  0.4936  0.0524
  104MOL   H10312669   1.651   6.852   3.294 -0.0912  0.5184  0.8241
  104MOL   C10412670   1.687   7.066   3.301  0.1960  0.6847 -0.2478
  104MOL   C10512671   1.605   7.104   3.426 -0.5591  0.1819 -0.3166
  104MOL  Cl10612672   1.452   7.185   3.379 -0.1945  0.2169 -0.3361
  104MOL   H10712673   1.697   7.151   3.233  0.8255  0.2985 -0.6423
  104MOL   H10812674   1.788   7.048   3.338  0.2482  1.7801  0.1729
  104MOL   H10912675   1.580   7.017   3.487  0.4817 -0.5603 -0.9314
  104MOL   C11012676   1.681   7.209   3.509  0.0631  0.1669  0.1300
  104MOL   C11112677   1.796   7.146   3.584 -0.3203 -0.3772  0.3130
  104MOL  Cl11212678   1.731   7.025   3.692  0.1245 -0.0222 -0.0972
  104MOL   H11312679   1.610   7.248   3.581  0.9061 -0.7112  1.4697
  104MOL   H11412680   1.723   7.291   3.450  2.3836 -0.7563  0.4290
  104MOL   H11512681   1.875   7.098   3.525  0.5941 -0.1803  1.3608
  104MOL   C11612682   1.864   7.263   3.660 -0.4883 -0.0502 -0.1688
  104MOL   C11712683   1.977   7.206   3.748 -0.6970  0.2010  0.5784
  104MOL  Cl11812684   2.068   7.342   3.824 -0.1974  0.0074  0.1304
  104MOL   H11912685   1.784   7.310   3.718 -0.7103  1.2264 -1.4982
  104MOL   H12012686   1.906   7.336   3.591  0.0359 -0.2557 -0.0682
  104MOL   H12112687   1.928   7.147   3.825  0.0324 -0.5695  0.4618
  104MOL   H12212688   2.058   7.152   3.699 -2.3915 -1.8222 -0.0556
  105MOL     C112689   6.188   4.895   7.908 -0.2637  0.5199  0.1704
  105MOL     C212690   6.216   4.788   7.794  0.6412 -0.3645  0.5273
  105MOL    Cl312691   6.343   4.859   7.687 -0.3036 -0.0772 -0.0962
  105MOL     H412692   6.272   4.932   7.967 -1.3805  1.0032  1.4956
  105MOL     H512693   6.147   4.985   7.864  1.0499  0.2878 -1.5805
  105MOL     H612694   6.262   4.700   7.839 -1.2376 -1.9679 -0.5863
  105MOL     H712695   6.118   4.863   7.985  1.2368  2.1642  2.2810
  105MOL     C812696   6.087   4.760   7.708  0.6539 -0.2492 -0.3951
  105MOL     C912697   6.084   4.622   7.629  0.5680  0.5467 -0.7259
  105MOL   Cl1012698   6.239   4.592   7.542 -0.0384 -0.3432 -0.0347
  105MOL    H1112699   6.078   4.838   7.633 -1.3011 -0.2415 -0.1754
  105MOL    H1212700   6.000   4.774   7.772  0.5164  0.5194 -0.7529
  105MOL    H1312701   6.077   4.543   7.704  0.4393  1.2650  0.0150
  105MOL    C1412702   5.983   4.617   7.512 -0.6294  0.2491 -0.6194
  105MOL    C1512703   5.831   4.649   7.549 -0.6229 -0.2020 -0.0052
  105MOL   Cl1612704   5.770   4.521   7.651  0.2066 -0.1863  0.2783
  105MOL    H1712705   5.988   4.518   7.466 -0.4651 -0.6565  1.2690
  105MOL    H1812706   6.012   4.681   7.429 -0.9450 -1.5888 -2.1678
  105MOL    H1912707   5.819   4.737   7.612  1.3882 -0.5665  0.9127
  105MOL    C2012708   5.735   4.655   7.421 -0.1956  0.1417  0.6581
  105MOL    C2112709   5.596   4.713   7.439  0.0127 -0.0663  1.2472
  105MOL   Cl2212710   5.517   4.709   7.284 -0.4768  0.1310 -0.0650
  105MOL    H2312711   5.733   4.559   7.369 -2.9338  0.6931 -0.3053
  105MOL    H2412712   5.785   4.718   7.347 -0.7925  0.9853  0.9705
  105MOL    H2512713   5.535   4.639   7.490  0.3281 -0.9356  0.3817
  105MOL    C2612714   5.590   4.850   7.508 -0.8812 -0.3821  0.0828
  105MOL    C2712715   5.455   4.895   7.537 -0.3893  0.4900 -0.2277
  105MOL   Cl2812716   5.480   5.067   7.571  0.4775 -0.2152 -0.0452
  105MOL    H2912717   5.656   4.920   7.457 -1.1418 -1.1638 -1.3510
  105MOL    H3012718   5.640   4.845   7.605 -1.7337  3.7482  0.8207
  105MOL    H3112719   5.401   4.879   7.444  2.1466 -1.4544 -1.4131
  105MOL    C3212720   5.391   4.825   7.663  0.2903  0.2534  0.2214
  105MOL    C3312721   5.252   4.873   7.713  0.1865  0.6481 -0.1818
  105MOL   Cl3412722   5.222   4.774   7.855  0.1515 -0.1806  0.2667
  105MOL    H3512723   5.470   4.848   7.734  2.7927  1.3988 -2.8263
  105MOL    H3612724   5.398   4.716   7.653  0.5520  0.3802 -0.9814
  105MOL    H3712725   5.259   4.978   7.739 -0.1251  0.4648  0.6361
  105MOL    C3812726   5.139   4.853   7.609 -0.8859  0.6573  0.1802
  105MOL    C3912727   5.007   4.922   7.654 -0.0448  0.0152  0.1828
  105MOL   Cl4012728   4.894   4.875   7.532 -0.0322 -0.2464  0.1351
  105MOL    H4112729   5.119   4.746   7.595  0.3390  0.3708  0.5844
  105MOL    H4212730   5.167   4.884   7.509  1.1841 -1.6000  0.0056
  105MOL    H4312731   4.963   4.887   7.747  2.0886 -2.7194  0.2346
  105MOL    C4412732   5.014   5.077   7.654  0.0119 -0.7854  0.0894
  105MOL    C4512733   4.890   5.152   7.714  0.1275 -0.6933  0.3388
  105MOL   Cl4612734   4.861   5.094   7.877  0.0522  0.3159  0.1723
  105MOL    H4712735   5.034   5.115   7.554 -0.5963 -1.9174 -0.4727
  105MOL    H4812736   5.097   5.116   7.712 -0.8252  1.9734 -0.4529
  105MOL    H4912737   4.905   5.257   7.738  2.0628  0.0803 -3.8638
  105MOL    C5012738   4.756   5.153   7.630  0.2870  0.3153 -0.0400
  105MOL    C5112739   4.760   5.203   7.484 -0.1316  0.4058 -0.2582
  105MOL   Cl5212740   4.789   5.378   7.489 -0.2620 -0.3298  0.0207
  105MOL    H5312741   4.683   5.208   7.688 -2.3496 -2.4233 -0.6129
  105MOL    H5412742   4.710   5.054   7.625 -0.6909  0.6089  2.4546
  105MOL    H5512743   4.835   5.151   7.424  0.1349 -1.0115  1.2511
  105MOL    C5612744   4.617   5.183   7.431 -0.2428  0.3675  0.0830
  105MOL    C5712745   4.588   5.271   7.304  0.6218  0.4279  0.1376
  105MOL   Cl5812746   4.436   5.354   7.353 -0.2194 -0.2845  0.0866
  105MOL    H5912747   4.534   5.198   7.501 -0.5704 -1.9498  0.2183
  105MOL    H6012748   4.606   5.077   7.410 -0.1978  0.1679  1.0230
  105MOL    H6112749   4.668   5.340   7.278  1.5110 -0.6114  0.0857
  105MOL    C6212750   4.552   5.199   7.168  0.1015 -0.3546 -0.2048
  105MOL    C6312751   4.680   5.147   7.096  0.1637 -0.6116  0.0760
  105MOL   Cl6412752   4.783   5.289   7.056  0.3443 -0.2289  0.1067
  105MOL    H6512753   4.501   5.266   7.099  1.4754 -0.8608 -1.7445
  105MOL    H6612754   4.485   5.118   7.198  1.0480 -0.6374  1.2068
  105MOL    H6712755   4.737   5.093   7.172 -0.3713 -1.3336 -0.0339
  105MOL    C6812756   4.658   5.055   6.962  0.5347  0.3517  0.5147
  105MOL    C6912757   4.783   4.989   6.905  0.2523 -0.9029  0.1882
  105MOL   Cl7012758   4.735   4.886   6.766 -0.0956  0.2860  0.1006
  105MOL    H7112759   4.612   5.116   6.884 -2.0435 -0.5481  1.2660
  105MOL    H7212760   4.574   4.987   6.979 -0.5319  1.3810 -0.5713
  105MOL    H7312761   4.837   5.072   6.859  0.5563 -1.0197  0.3317
  105MOL    C7412762   4.877   4.908   6.999  0.0013  0.7108  0.3292
  105MOL    C7512763   4.821   4.779   7.064 -0.0783 -0.1086  0.0185
  105MOL   Cl7612764   4.699   4.817   7.187 -0.4309  0.0971  0.0369
  105MOL    H7712765   4.909   4.972   7.081 -3.4811 -0.1382  2.4611
  105MOL    H7812766   4.964   4.877   6.941 -0.6283  1.8224 -1.2522
  105MOL    H7912767   4.764   4.726   6.987  1.7598  1.0233 -2.1846
  105MOL    C8012768   4.935   4.698   7.123  0.1643 -0.5348  0.1362
  105MOL    C8112769   4.917   4.549   7.125  0.4445  0.2900 -0.3493
  105MOL   Cl8212770   4.783   4.505   7.230  0.4281 -0.3694  0.0987
  105MOL    H8312771   4.960   4.740   7.220 -0.6043  1.6419 -0.5881
  105MOL    H8412772   5.028   4.712   7.068  1.0511 -0.7837  1.5489
  105MOL    H8512773   4.883   4.528   7.024 -2.9982 -2.4168  1.2381
  105MOL    C8612774   5.046   4.468   7.170  0.2379 -0.5035  0.3157
  105MOL    C8712775   5.150   4.467   7.062  0.4979  0.3082 -0.0690
  105MOL   Cl8812776   5.077   4.424   6.900  0.3248  0.3685 -0.0363
  105MOL    H8912777   5.017   4.366   7.194 -4.6257  0.1745 -2.0254
  105MOL    H9012778   5.093   4.500   7.262  2.4454  0.2957 -1.0387
  105MOL    H9112779   5.199   4.560   7.037  1.1448  0.3572  1.3349
  105MOL    C9212780   5.264   4.370   7.092  0.0385 -0.1981 -0.4377
  105MOL    C9312781   5.365   4.357   6.978  0.6301  0.1639 -0.1136
  105MOL   Cl9412782   5.453   4.191   6.994  0.3179  0.4627  0.0970
  105MOL    H9512783   5.210   4.276   7.109  1.3520 -1.0982 -1.1983
  105MOL    H9612784   5.314   4.393   7.186 -2.4978  1.1350  0.6423
  105MOL    H9712785   5.320   4.360   6.879  0.1509 -0.2706  0.0903
  105MOL    C9812786   5.476   4.461   6.995 -0.2051 -0.2990  0.2660
  105MOL    C9912787   5.563   4.473   6.866  0.7539 -0.4051 -0.1292
  105MOL  Cl10012788   5.463   4.524   6.724  0.2798  0.0282  0.4370
  105MOL   H10112789   5.546   4.444   7.077 -0.1666  1.0957  0.5476
  105MOL   H10212790   5.427   4.556   7.017 -0.3152 -0.2411 -0.2201
  105MOL   H10312791   5.628   4.559   6.886  0.2332 -0.2993  1.1887
  105MOL   C10412792   5.658   4.359   6.828  0.0796 -0.2734 -0.1335
  105MOL   C10512793   5.755   4.318   6.946 -0.1323  0.3476  0.2982
  105MOL  Cl10612794   5.854   4.462   6.984  0.1448  0.2568  0.1025
  105MOL   H10712795   5.722   4.398   6.749 -1.5435 -1.1324 -1.9499
  105MOL   H10812796   5.606   4.271   6.789 -0.7423  0.4344 -0.6627
  105MOL   H10912797   5.698   4.289   7.034 -3.2961  1.7633 -1.1920
  105MOL   C11012798   5.844   4.205   6.890 -0.2990  0.3159 -0.0975
  105MOL   C11112799   5.789   4.060   6.896 -0.4028  0.1360 -0.2937
  105MOL  Cl11212800   5.744   3.997   7.061  0.0200 -0.0966  0.2636
  105MOL   H11312801   5.942   4.215   6.937 -0.9022 -0.4488  1.3828
  105MOL   H11412802   5.875   4.231   6.789 -1.6215  1.7763 -0.1484
  105MOL   H11512803   5.692   4.061   6.846 -1.7256 -0.9563  2.1302
  105MOL   C11612804   5.864   3.950   6.817 -1.0559  0.6253 -0.0323
  105MOL   C11712805   6.010   3.933   6.871 -0.3981  0.2983 -0.0002
  105MOL  Cl11812806   6.091   3.811   6.772 -0.0346 -0.3222  0.1959
  105MOL   H11912807   5.866   3.969   6.710  0.8240  0.5358 -0.0389
  105MOL   H12012808   5.805   3.858   6.818 -1.3037  0.7893  0.2448
  105MOL   H12112809   6.078   4.018   6.874  0.1366 -0.1390  0.3806
  105MOL   H12212810   6.016   3.895   6.973  0.5113  0.1354 -0.1077
  106MOL     C112811   3.662   6.616   0.105  0.3296 -0.0627 -0.6536
  106MOL     C212812   3.583   6.745   0.082 -0.3491  0.0843 -0.1690
  106MOL    Cl312813   3.676   6.898   0.057 -0.0941  0.0664  0.5373
  106MOL     H412814   3.738   6.594   0.030 -0.8971 -1.2065 -1.5605
  106MOL     H512815   3.705   6.635   0.204 -0.7119 -0.7032 -0.0731
  106MOL     H612816   3.523   6.729   8.518 -0.6256 -0.2184  0.0694
  106MOL     H712817   3.594   6.531   0.103 -0.4483  0.3947  2.6764
  106MOL     C812818   3.488   6.773   0.206 -0.2645 -0.1333 -0.1394
  106MOL     C912819   3.375   6.874   0.198  0.3363  0.1519  0.0368
  106MOL   Cl1012820   3.300   6.872   0.366  0.5847 -0.2677 -0.5254
  106MOL    H1112821   3.550   6.801   0.292 -0.1933  1.3435 -0.6488
  106MOL    H1212822   3.453   6.676   0.239  0.4412  0.1617  1.5340
  106MOL    H1312823   3.416   6.974   0.187  1.4855 -0.1394  1.5747
  106MOL    C1412824   3.275   6.840   0.093  0.7173  0.5495 -0.2552
  106MOL    C1512825   3.178   6.946   0.043 -0.1300 -0.3004 -0.0369
  106MOL   Cl1612826   3.065   6.879   8.450 -0.1148 -0.2498  0.0802
  106MOL    H1712827   3.215   6.758   0.132  1.0194  0.2184 -0.4757
  106MOL    H1812828   3.319   6.794   0.004  3.1503  1.1319  0.6223
  106MOL    H1912829   3.113   6.965   0.128 -0.1778 -1.3149  0.1586
  106MOL    C2012830   3.236   7.079   8.517  0.0996 -0.3275  0.1162
  106MOL    C2112831   3.138   7.174   8.444  0.1806 -0.4502  0.1680
  106MOL   Cl2212832   3.227   7.318   8.393  0.1278  0.3851  0.6829
  106MOL    H2312833   3.315   7.060   8.444 -1.6815 -0.8905 -1.7059
  106MOL    H2412834   3.279   7.136   0.074  2.4130 -1.0815 -0.5399
  106MOL    H2512835   3.096   7.126   8.356 -0.0524 -1.2437  0.7032
  106MOL    C2612836   3.023   7.223   0.011 -0.8197 -0.2717 -0.1081
  106MOL    C2712837   2.908   7.299   8.456  0.1138  0.5401 -0.2085
  106MOL   Cl2812838   2.796   7.353   0.056  0.2753  0.3606 -0.2439
  106MOL    H2912839   3.065   7.282   0.092  1.4524 -1.9679  0.0031
  106MOL    H3012840   2.978   7.140   0.066 -1.8699  0.8168  0.7130
  106MOL    H3112841   2.950   7.390   8.413  0.6589  0.9024  1.0661
  106MOL    C3212842   2.825   7.200   8.362 -0.1190  0.2630  0.7996
  106MOL    C3312843   2.699   7.254   8.298 -0.2499 -0.7955  0.4311
  106MOL   Cl3412844   2.615   7.121   8.216  0.4472 -0.0767 -0.2139
  106MOL    H3512845   2.796   7.110   8.417 -3.0289  0.0897 -0.8997
  106MOL    H3612846   2.888   7.188   8.274  0.0339 -0.5087  1.0165
  106MOL    H3712847   2.639   7.295   8.379  0.5079  0.8470  0.1813
  106MOL    C3812848   2.739   7.363   8.204 -0.2561 -0.1038 -0.6150
  106MOL    C3912849   2.631   7.412   8.111  0.2675  0.0323 -0.2740
  106MOL   Cl4012850   2.695   7.556   8.029  0.2261  0.0131  0.1273
  106MOL    H4112851   2.830   7.351   8.146  0.4731  2.7660 -0.1318
  106MOL    H4212852   2.755   7.447   8.273 -1.3006 -1.4480  1.3301
  106MOL    H4312853   2.608   7.345   8.028  0.4370  2.6936 -2.5656
  106MOL    C4412854   2.495   7.446   8.177  0.4242  0.0864  0.2481
  106MOL    C4512855   2.393   7.522   8.092 -0.1138  0.2662 -0.7022
  106MOL   Cl4612856   2.241   7.525   8.184  0.1789 -0.3849  0.2944
  106MOL    H4712857   2.513   7.508   8.265  0.5595 -1.2160  1.1337
  106MOL    H4812858   2.446   7.355   8.211  1.9488 -0.3465  1.3130
  106MOL    H4912859   2.425   7.627   8.091 -1.8784  0.8357  1.2543
  106MOL    C5012860   2.371   7.461   7.951  0.3891  0.1597  0.4450
  106MOL    C5112861   2.247   7.535   7.874 -0.4478  0.2984  0.9450
  106MOL   Cl5212862   2.212   7.416   7.746  0.1632 -0.1378 -0.4541
  106MOL    H5312863   2.359   7.352   7.957  1.2717  0.1064  1.2898
  106MOL    H5412864   2.459   7.466   7.888  1.1126 -2.4795  1.1569
  106MOL    H5512865   2.153   7.556   7.926  1.0780 -0.3570  4.0973
  106MOL    C5612866   2.281   7.660   7.795  0.7246 -0.4255  0.3003
  106MOL    C5712867   2.311   7.783   7.878  0.6204 -0.2401 -0.2232
  106MOL   Cl5812868   2.173   7.813   7.991 -0.1769 -0.0207  0.0668
  106MOL    H5912869   2.192   7.682   7.737 -0.8054  2.8418  3.6557
  106MOL    H6012870   2.367   7.639   7.731  0.8179 -0.2717  0.3720
  106MOL    H6112871   2.409   7.780   7.924  0.4806 -1.3238  0.0374
  106MOL    C6212872   2.335   7.904   7.788 -0.7747  0.5235  0.5733
  106MOL    C6312873   2.475   7.918   7.719 -0.0221 -1.0945  0.1693
  106MOL   Cl6412874   2.598   7.960   7.835  0.3373 -0.0078 -0.1121
  106MOL    H6512875   2.312   7.998   7.838  0.2429  1.4083 -0.5812
  106MOL    H6612876   2.252   7.899   7.718 -0.2660 -3.9840  0.1156
  106MOL    H6712877   2.512   7.830   7.668 -0.6051  0.5013 -3.1665
  106MOL    C6812878   2.470   8.020   7.604  0.4680  0.1969  0.3192
  106MOL    C6912879   2.397   7.990   7.471 -0.1001  0.1931  0.4823
  106MOL   Cl7012880   2.502   7.868   7.392  0.1726 -0.0451  0.0397
  106MOL    H7112881   2.573   8.047   7.584  1.1812 -0.9799  2.2624
  106MOL    H7212882   2.416   8.109   7.640  0.0452 -0.5179  1.4836
  106MOL    H7312883   2.295   7.955   7.490 -0.2024  0.7620  1.0098
  106MOL    C7412884   2.375   8.113   7.389 -0.5747  0.3627 -0.3215
  106MOL    C7512885   2.494   8.209   7.366 -0.0348 -0.1794 -0.1607
  106MOL   Cl7612886   2.426   8.358   7.305 -0.2782 -0.0866  0.1303
  106MOL    H7712887   2.301   8.170   7.443 -1.4612 -1.0404 -0.0276
  106MOL    H7812888   2.332   8.080   7.294 -1.0617 -2.8697  0.9442
  106MOL    H7912889   2.542   8.241   7.459  0.0732 -0.2336 -0.1975
  106MOL    C8012890   2.597   8.169   7.254  0.0385  0.2453  0.1750
  106MOL    C8112891   2.721   8.254   7.220  0.7807  0.7121  0.1940
  106MOL   Cl8212892   2.801   8.200   7.070  0.2352 -0.2115 -0.1540
  106MOL    H8312893   2.538   8.152   7.163 -0.4707 -1.1373  0.7469
  106MOL    H8412894   2.639   8.070   7.269  0.1714  0.2723 -0.0265
  106MOL    H8512895   2.680   8.347   7.179 -1.6754  0.1121  1.1601
  106MOL    C8612896   2.829   8.282   7.323 -0.6414  0.4734 -0.1184
  106MOL    C8712897   2.920   8.163   7.371 -0.9152  0.0304  0.0440
  106MOL   Cl8812898   2.815   8.051   7.467 -0.5538 -0.2119 -0.0399
  106MOL    H8912899   2.771   8.323   7.406  1.1028 -0.3146  1.5094
  106MOL    H9012900   2.895   8.361   7.284 -1.6332  1.0767 -0.5980
  106MOL    H9112901   2.950   8.107   7.283  0.3910 -0.3750  0.7326
  106MOL    C9212902   3.040   8.205   7.465  0.6582  0.3546 -0.4079
  106MOL    C9312903   3.157   8.274   7.386 -0.0485 -0.0044 -0.3339
  106MOL   Cl9412904   3.221   8.153   7.269  0.0529 -0.2971  0.0038
  106MOL    H9512905   3.077   8.116   7.516 -0.5549 -1.0552 -1.9285
  106MOL    H9612906   3.002   8.264   7.549  1.2631 -2.0486  1.6069
  106MOL    H9712907   3.132   8.359   7.322 -0.1123 -0.3720 -0.8009
  106MOL    C9812908   3.276   8.300   7.471 -0.3007  0.0664  0.2066
  106MOL    C9912909   3.245   8.413   7.569  0.2303  0.0058  0.0363
  106MOL  Cl10012910   3.271   0.036   7.487  0.4028  0.3227 -0.1497
  106MOL   H10112911   3.360   8.318   7.406 -1.1261  1.7128 -0.4271
  106MOL   H10212912   3.292   8.207   7.526 -3.2633 -0.4780  0.2513
  106MOL   H10312913   3.146   8.411   7.614  0.4753 -0.6855  0.5694
  106MOL   C10412914   3.330   8.407   7.701  0.0794  0.4106  0.3441
  106MOL   C10512915   3.484   8.431   7.677 -0.1703 -0.2677  0.1166
  106MOL  Cl10612916   3.553   8.361   7.823 -0.0714 -0.0837  0.6511
  106MOL   H10712917   3.300   8.318   7.757 -1.1347  1.0275  0.6969
  106MOL   H10812918   3.298   8.485   7.770 -0.5724  0.3808  0.0786
  106MOL   H10912919   3.528   8.366   7.601  0.1159  1.6911 -1.4306
  106MOL   C11012920   3.531   0.048   7.666 -0.0236  0.6106  0.3881
  106MOL   C11112921   3.618   0.074   7.532  0.3052  0.6424 -0.0259
  106MOL  Cl11212922   3.769   8.509   7.538  0.3193 -0.0990 -0.5373
  106MOL   H11312923   3.590   0.074   7.754 -0.1228 -0.8428  0.8925
  106MOL   H11412924   3.446   0.116   7.674  1.1638  2.2765 -0.5887
  106MOL   H11512925   3.563   0.040   7.445 -0.6537  0.2228  0.7295
  106MOL   C11612926   3.649   0.216   7.501 -0.1681  0.7744  0.2585
  106MOL   C11712927   3.732   0.292   7.612 -0.0952  0.3788  0.0499
  106MOL  Cl11812928   3.815   0.434   7.538  0.3727  0.1212  0.0425
  106MOL   H11912929   3.550   0.260   7.501  0.2379  1.7553  1.8783
  106MOL   H12012930   3.682   0.223   7.398 -0.7920  1.2908  0.0927
  106MOL   H12112931   3.664   0.317   7.693 -2.9147  0.5361 -2.2602
  106MOL   H12212932   3.802   0.222   7.658 -1.0004 -0.1174  0.6876
  107MOL     C112933   1.990   8.337   5.799 -0.0097  0.1475 -0.1014
  107MOL     C212934   1.913   8.397   5.919 -0.3888  0.3977  0.1766
  107MOL    Cl312935   1.779   8.502   5.854  0.1938 -0.2794 -0.3351
  107MOL     H412936   2.039   8.420   5.748  0.4715 -0.8971 -1.3703
  107MOL     H512937   2.078   8.276   5.819  0.4604  1.6079  2.5215
  107MOL     H612938   1.871   8.320   5.984  0.0247 -0.0479 -0.0776
  107MOL     H712939   1.931   8.287   5.723 -2.3788  2.2977  0.2632
  107MOL     C812940   2.008   8.485   6.000 -0.2621  0.6547  0.2447
  107MOL     C912941   1.984   8.472   6.156 -0.2257  0.1135  0.1937
  107MOL   Cl1012942   1.811   8.491   6.190 -0.1237 -0.4046 -0.1258
  107MOL    H1112943   1.989   0.063   5.973 -4.2992  0.2540  1.1601
  107MOL    H1212944   2.107   8.447   5.975 -1.3056 -0.9782 -1.5697
  107MOL    H1312945   2.003   8.369   6.186 -0.6687 -0.9263 -2.9161
  107MOL    C1412946   2.071   0.043   6.230 -0.0141 -0.1503  0.1728
  107MOL    C1512947   2.108   8.513   6.366 -0.2245  0.1983 -0.2171
  107MOL   Cl1612948   2.205   8.361   6.348 -0.1521 -0.4921  0.3160
  107MOL    H1712949   2.032   0.144   6.242 -1.1997 -0.7200  1.3069
  107MOL    H1812950   2.167   0.056   6.181 -0.2819 -0.3353 -0.4005
  107MOL    H1912951   2.189   0.046   6.409  0.7388 -0.5011 -1.0548
  107MOL    C2012952   2.008   8.477   6.475  0.6680 -0.2791  0.1430
  107MOL    C2112953   1.915   0.070   6.507 -0.3360  0.0019  0.0785
  107MOL   Cl2212954   2.019   0.194   6.580 -0.1350 -0.6149  0.3631
  107MOL    H2312955   2.075   8.447   6.554 -0.8665 -0.4273  1.4092
  107MOL    H2412956   1.948   8.393   6.440  3.2234 -1.8027 -0.6453
  107MOL    H2512957   1.879   0.119   6.417 -1.5448 -0.7873  0.1245
  107MOL    C2612958   1.816   0.029   6.624  0.2285 -0.3475  0.1428
  107MOL    C2712959   1.692   8.464   6.580 -0.0833 -0.2009 -0.4313
  107MOL   Cl2812960   1.576   0.040   6.493 -0.1782  0.3567  0.3521
  107MOL    H2912961   1.770   0.121   6.660 -0.7408 -1.0317  0.6768
  107MOL    H3012962   1.880   8.514   6.703  0.2435  0.1055  0.3673
  107MOL    H3112963   1.731   8.389   6.511  2.6549 -1.1991  2.0788
  107MOL    C3212964   1.626   8.399   6.701 -0.0822 -0.6649  0.7566
  107MOL    C3312965   1.541   8.279   6.671  0.1605 -0.5850 -0.1414
  107MOL   Cl3412966   1.497   8.209   6.828 -0.0581 -0.0136  0.1668
  107MOL    H3512967   1.576   8.477   6.759  0.7226 -0.5753  1.3395
  107MOL    H3612968   1.712   8.366   6.761  1.0365  2.0674  0.7186
  107MOL    H3712969   1.444   8.305   6.628 -0.0272 -1.0409 -0.0007
  107MOL    C3812970   1.605   8.169   6.583 -0.6643  0.7990 -0.0057
  107MOL    C3912971   1.522   8.140   6.452 -0.1338  0.6282  0.4599
  107MOL   Cl4012972   1.349   8.107   6.489 -0.1320 -0.0811 -0.0312
  107MOL    H4112973   1.607   8.076   6.640 -1.2868 -0.3623 -1.8636
  107MOL    H4212974   1.712   8.187   6.568 -0.7099  1.8577  0.8569
  107MOL    H4312975   1.523   8.228   6.388  0.8719  0.7483  0.6333
  107MOL    C4412976   1.572   8.018   6.374 -0.2353  0.2813  0.1908
  107MOL    C4512977   1.714   8.016   6.318  0.6422  0.2481  0.3681
  107MOL   Cl4612978   1.770   8.177   6.267 -0.0717 -0.0775  0.1530
  107MOL    H4712979   1.506   7.997   6.290  1.6932  1.1491 -1.5996
  107MOL    H4812980   1.558   7.935   6.443 -2.3028  1.1549  0.8744
  107MOL    H4912981   1.786   7.992   6.396  1.1502 -1.9825 -0.7754
  107MOL    C5012982   1.742   7.919   6.202 -0.1539 -0.6387  0.2964
  107MOL    C5112983   1.789   7.781   6.240 -0.2755 -0.3613 -0.2085
  107MOL   Cl5212984   1.949   7.800   6.315 -0.4279  0.0330  0.4869
  107MOL    H5312985   1.813   7.961   6.131  0.4217  0.6812  1.6245
  107MOL    H5412986   1.658   7.913   6.134 -0.9307 -0.8954  1.2575
  107MOL    H5512987   1.732   7.742   6.324  2.0761 -0.9221  1.1955
  107MOL    C5612988   1.799   7.676   6.128 -0.2565 -0.1160 -0.1210
  107MOL    C5712989   1.676   7.603   6.087  0.0327 -0.0779 -0.8072
  107MOL   Cl5812990   1.594   7.519   6.224  0.0585  0.0709  0.3458
  107MOL    H5912991   1.873   7.605   6.166 -0.7174 -1.6422 -1.9925
  107MOL    H6012992   1.851   7.722   6.044 -0.6512  0.4708 -0.0446
  107MOL    H6112993   1.601   7.672   6.048  1.6099  1.1112 -1.8189
  107MOL    C6212994   1.692   7.492   5.983  0.0505 -0.3969  0.5316
  107MOL    C6312995   1.738   7.542   5.838 -0.5356 -0.0543 -0.0966
  107MOL   Cl6412996   1.604   7.630   5.763 -0.0172  0.4285  0.4685
  107MOL    H6512997   1.601   7.432   5.973  0.8771 -1.2531 -2.2900
  107MOL    H6612998   1.763   7.419   6.020  0.4134 -1.2885 -1.8155
  107MOL    H6712999   1.823   7.610   5.853  1.9772 -3.0615 -0.0885
  107MOL    C6813000   1.777   7.426   5.740 -0.6410  0.0292 -0.3459
  107MOL    C6913001   1.907   7.356   5.766  0.1666 -0.1615 -0.3717
  107MOL   Cl7013002   2.050   7.461   5.747  0.0199  0.5070  0.1945
  107MOL    H7113003   1.789   7.463   5.638  1.7035 -0.9163 -0.4567
  107MOL    H7213004   1.694   7.358   5.724  1.3261 -2.5734  0.2052
  107MOL    H7313005   1.908   7.338   5.873 -1.4946  2.2684  0.1083
  107MOL    C7413006   1.917   7.228   5.685  0.8074 -0.1735  0.1083
  107MOL    C7513007   2.039   7.127   5.706  0.0465 -0.2232 -0.7348
  107MOL   Cl7613008   2.073   7.044   5.552  0.3206 -0.0995  0.4732
  107MOL    H7713009   1.916   7.244   5.577  0.1944  2.4853  0.4786
  107MOL    H7813010   1.832   7.161   5.696  0.2447  0.3852 -0.7579
  107MOL    H7913011   2.126   7.186   5.738  0.4566 -1.7607  1.1075
  107MOL    C8013012   2.020   7.010   5.813 -0.9342  0.1966  0.3942
  107MOL    C8113013   1.977   7.071   5.948  1.0292  0.4802 -0.1702
  107MOL   Cl8213014   2.114   7.173   6.018 -0.0154  0.1629  0.1926
  107MOL    H8313015   2.113   6.955   5.826  0.1353  1.5892 -1.1265
  107MOL    H8413016   1.941   6.939   5.788 -0.1620 -1.2125  1.8987
  107MOL    H8513017   1.884   7.127   5.938 -0.5786 -2.3083 -1.4557
  107MOL    C8613018   1.950   6.949   6.042 -0.0980  0.4516 -0.1105
  107MOL    C8713019   1.899   6.992   6.188  0.4114  0.8194 -0.5385
  107MOL   Cl8813020   1.874   6.842   6.279  0.7230  0.0105 -0.2225
  107MOL    H8913021   2.033   6.881   6.060 -0.4301 -0.0724 -0.5500
  107MOL    H9013022   1.877   6.886   5.990  0.5338  0.8651 -1.5215
  107MOL    H9113023   1.979   7.041   6.243 -0.4794  0.3493  1.1998
  107MOL    C9213024   1.764   7.072   6.188 -0.0549  0.2576 -0.4856
  107MOL    C9313025   1.635   7.004   6.130  0.4567 -0.0079  0.3551
  107MOL   Cl9413026   1.632   7.025   5.952 -0.0123  0.1762  0.3505
  107MOL    H9513027   1.785   7.169   6.144  2.4920 -0.6145 -1.2911
  107MOL    H9613028   1.761   7.088   6.296  1.5219 -0.5960 -0.2952
  107MOL    H9713029   1.648   6.896   6.142 -3.8440 -0.8737 -1.5770
  107MOL    C9813030   1.501   7.059   6.176 -0.3739  0.4794 -0.2333
  107MOL    C9913031   1.475   7.041   6.324  0.3794  0.3825  0.4950
  107MOL  Cl10013032   1.446   6.863   6.354 -0.2846 -0.2313  0.1019
  107MOL   H10113033   1.423   7.013   6.116 -0.4126 -1.9766  1.6111
  107MOL   H10213034   1.490   7.163   6.145  0.6346  0.6323 -0.1119
  107MOL   H10313035   1.562   7.069   6.384  0.0370 -0.2983  1.3279
  107MOL   C10413036   1.354   7.108   6.384  0.3120  0.2352 -0.5478
  107MOL   C10513037   1.358   7.257   6.392  0.2942 -0.1880 -0.1556
  107MOL  Cl10613038   1.501   7.296   6.492 -0.2821  0.0925  0.0086
  107MOL   H10713039   1.353   7.073   6.488  2.4064  0.7305 -0.3452
  107MOL   H10813040   1.259   7.071   6.345  1.3429 -1.0376 -1.8923
  107MOL   H10913041   1.374   7.300   6.293 -0.1920  0.4853  0.0502
  107MOL   C11013042   1.237   7.327   6.451  0.2850 -0.2145  0.1918
  107MOL   C11113043   1.244   7.483   6.472 -0.4355 -0.3076  0.2705
  107MOL  Cl11213044   1.097   7.540   6.562  0.3827 -0.0712  0.5932
  107MOL   H11313045   1.224   7.293   6.554  0.3484  0.5128  0.4489
  107MOL   H11413046   1.152   7.303   6.388  1.1799 -2.4889 -0.2045
  107MOL   H11513047   1.331   7.507   6.533 -1.1862  2.6373  0.2235
  107MOL   C11613048   1.244   7.556   6.336  0.4047 -0.2657 -1.2269
  107MOL   C11713049   1.296   7.693   6.359 -0.1545 -0.7394  0.3129
  107MOL  Cl11813050   1.301   7.775   6.206  0.1346  0.3529  0.0591
  107MOL   H11913051   1.140   7.573   6.308  0.3428 -0.8283 -1.3420
  107MOL   H12013052   1.301   7.509   6.256  0.2471 -1.0944 -0.8619
  107MOL   H12113053   1.235   7.752   6.428 -0.8375  0.2979 -1.1534
  107MOL   H12213054   1.397   7.688   6.399  0.3630 -0.6100 -0.9585
  108MOL     C113055   6.350   6.658   4.260 -0.3243 -0.1126 -0.0403
  108MOL     C213056   6.222   6.600   4.197  0.3410  0.5294 -0.0556
  108MOL    Cl313057   6.087   6.620   4.304  0.1832  0.1250 -0.2307
  108MOL     H413058   6.432   6.660   4.188 -0.8312 -1.1348 -0.6462
  108MOL     H513059   6.329   6.761   4.290 -1.0255 -0.2606 -0.0195
  108MOL     H613060   6.209   6.648   4.100  1.5825  0.3853 -0.2997
  108MOL     H713061   6.384   6.605   4.349  0.4434  1.6740  0.7759
  108MOL     C813062   6.237   6.452   4.163 -0.5063  0.0718 -0.0306
  108MOL     C913063   6.353   6.413   4.074 -0.2697  0.4412 -0.4896
  108MOL   Cl1013064   6.343   6.488   3.913 -0.1808 -0.2956 -0.0535
  108MOL    H1113065   6.147   6.421   4.110  1.1620  0.3403 -3.1828
  108MOL    H1213066   6.242   6.397   4.257  2.7200 -1.2302 -0.8686
  108MOL    H1313067   6.444   6.450   4.122 -0.9967  2.0616 -0.3276
  108MOL    C1413068   6.359   6.266   4.052  0.3085 -0.0505 -0.5291
  108MOL    C1513069   6.433   6.176   4.160  0.9685 -1.3277  0.3766
  108MOL   Cl1613070   6.606   6.225   4.160  0.2263  0.3788 -0.4625
  108MOL    H1713071   6.414   6.245   3.960  1.8362  0.0462  0.3499
  108MOL    H1813072   6.261   6.224   4.027 -0.5749  1.0194  1.0613
  108MOL    H1913073   6.389   6.201   4.256 -2.2825  0.3617 -1.4549
  108MOL    C2013074   6.425   6.025   4.131  1.3336  0.4608 -0.4840
  108MOL    C2113075   6.447   5.932   4.248  0.7541  0.8755 -0.1586
  108MOL   Cl2213076   6.334   5.966   4.382 -0.0953 -0.3423  0.1390
  108MOL    H2313077   6.494   6.000   4.050  1.7496  1.5050 -0.4558
  108MOL    H2413078   6.323   5.996   4.106  1.2289  0.5104 -0.1171
  108MOL    H2513079   6.427   5.830   4.215  0.6395  0.8736 -0.0816
  108MOL    C2613080   6.592   5.930   4.304  0.3039 -0.5814 -0.3912
  108MOL    C2713081   6.713   5.901   4.212  0.4534  0.0250 -0.2495
  108MOL   Cl2813082   6.693   5.742   4.144 -0.3046 -0.5113  0.2498
  108MOL    H2913083   6.605   5.863   4.390 -1.2620  1.0776  1.1784
  108MOL    H3013084   6.605   6.027   4.351  0.0301 -0.2251 -1.0620
  108MOL    H3113085   6.709   5.968   4.126 -1.7731  1.3112  0.8084
  108MOL    C3213086   6.840   5.890   4.301  0.3627  0.0782 -0.9661
  108MOL    C3313087   6.971   5.858   4.224  0.1493  0.1518 -0.2818
  108MOL   Cl3413088   7.068   5.761   4.329 -0.5377 -0.0258  0.1031
  108MOL    H3513089   6.822   5.803   4.364  0.7958  0.3143 -0.5104
  108MOL    H3613090   6.859   5.981   4.358 -0.6872  0.3476 -1.0496
  108MOL    H3713091   6.955   5.805   4.130  0.0003  0.6093 -0.5134
  108MOL    C3813092   7.057   5.990   4.196  0.0959 -1.0363 -0.5701
  108MOL    C3913093   6.978   6.113   4.141 -0.0121  0.3014 -0.1666
  108MOL   Cl4013094   6.922   6.071   3.973 -0.4420 -0.7149  0.0247
  108MOL    H4113095   7.141   5.979   4.128  1.2144  0.6067  0.4796
  108MOL    H4213096   7.114   6.017   4.285 -0.5044  0.2919 -0.5787
  108MOL    H4313097   6.890   6.141   4.199  0.1732  0.0533  0.2331
  108MOL    C4413098   7.072   6.231   4.121  0.0568  0.1648 -0.1723
  108MOL    C4513099   6.996   6.365   4.118 -0.1196 -0.0457 -0.1941
  108MOL   Cl4613100   7.085   6.463   4.005 -0.1077  0.1352 -0.0687
  108MOL    H4713101   7.135   6.224   4.033 -0.7474 -1.4432 -0.6418
  108MOL    H4813102   7.144   6.230   4.203  2.5113  2.2209 -2.2463
  108MOL    H4913103   6.899   6.359   4.068 -0.0676 -1.1252 -0.1872
  108MOL    C5013104   6.988   6.434   4.259 -0.2050  0.3753  0.4197
  108MOL    C5113105   6.852   6.416   4.326 -0.0637  0.0891 -0.0212
  108MOL   Cl5213106   6.738   6.531   4.259  0.1204  0.2283  0.0718
  108MOL    H5313107   7.014   6.540   4.252 -0.3679  0.4723  1.2408
  108MOL    H5413108   7.067   6.381   4.311  0.8040  1.5714  0.1264
  108MOL    H5513109   6.826   6.315   4.295 -1.6204  0.3106  0.5354
  108MOL    C5613110   6.864   6.438   4.478 -0.3511  0.1851  0.5495
  108MOL    C5713111   6.755   6.379   4.570  0.6764 -0.8556 -0.7887
  108MOL   Cl5813112   6.746   6.204   4.553  0.2672 -0.3809 -0.2605
  108MOL    H5913113   6.871   6.545   4.496  0.5717 -0.1127  2.1175
  108MOL    H6013114   6.958   6.394   4.512 -0.0988 -1.1147 -1.7483
  108MOL    H6113115   6.781   6.397   4.674 -1.6021 -0.9727 -0.1663
  108MOL    C6213116   6.617   6.432   4.550 -0.1903 -0.9453 -0.4626
  108MOL    C6313117   6.509   6.384   4.652  0.2305 -0.2773  0.5584
  108MOL   Cl6413118   6.350   6.444   4.592 -0.0001  0.1140  0.4371
  108MOL    H6513119   6.579   6.388   4.458  0.4683 -1.7334 -0.3602
  108MOL    H6613120   6.611   6.541   4.545  1.3626 -0.8698 -1.0367
  108MOL    H6713121   6.499   6.276   4.662 -1.2874 -0.0482  1.6784
  108MOL    C6813122   6.533   6.442   4.793 -0.5258  0.1415  0.8942
  108MOL    C6913123   6.460   6.365   4.905 -0.4108  0.1252 -0.5309
  108MOL   Cl7013124   6.296   6.431   4.909 -0.4507  0.2519 -0.0959
  108MOL    H7113125   6.511   6.549   4.794 -2.2076 -0.1144 -2.6646
  108MOL    H7213126   6.640   6.426   4.809 -0.0193  1.9840 -0.4468
  108MOL    H7313127   6.446   6.261   4.878 -1.5977  0.6481 -2.0174
  108MOL    C7413128   6.522   6.383   5.043 -0.0971 -0.1241 -0.6455
  108MOL    C7513129   6.633   6.287   5.075 -0.5279 -0.1467  0.6173
  108MOL   Cl7613130   6.576   6.121   5.085  0.1605 -0.1471 -0.1241
  108MOL    H7713131   6.449   6.367   5.122  0.4651 -0.0373 -0.1009
  108MOL    H7813132   6.548   6.487   5.062 -0.9772 -0.1184  0.5917
  108MOL    H7913133   6.704   6.291   4.993  0.7997 -2.0358  1.6108
  108MOL    C8013134   6.712   6.321   5.208 -0.3918 -0.5078  0.0256
  108MOL    C8113135   6.821   6.211   5.250 -0.6660 -0.9280  0.3701
  108MOL   Cl8213136   6.868   6.255   5.411  0.1633  0.1633 -0.1076
  108MOL    H8313137   6.648   6.339   5.294 -2.0426 -2.7457 -0.6918
  108MOL    H8413138   6.759   6.419   5.204 -1.7547  0.1434 -0.1254
  108MOL    H8513139   6.761   6.121   5.262 -1.8721 -0.3616 -1.1162
  108MOL    C8613140   6.936   6.201   5.148 -0.2263 -0.4836  0.4249
  108MOL    C8713141   7.022   6.075   5.162  0.9211 -0.7310 -0.3538
  108MOL   Cl8813142   6.918   5.929   5.150  0.0104 -0.4971 -0.4417
  108MOL    H8913143   6.987   6.297   5.146 -0.2648 -0.4747 -1.9393
  108MOL    H9013144   6.895   6.206   5.047 -0.6454  0.6625  0.6403
  108MOL    H9113145   7.085   6.076   5.073  0.8389  2.4815 -0.4152
  108MOL    C9213146   7.119   6.054   5.286 -0.4909  0.5055  0.2225
  108MOL    C9313147   7.234   6.160   5.301 -0.6314  0.2732  0.1886
  108MOL   Cl9413148   7.329   6.169   5.144  0.1750  0.2546 -0.1600
  108MOL    H9513149   7.158   5.952   5.289 -1.4770 -0.0075 -2.7453
  108MOL    H9613150   7.046   6.070   5.365 -0.7594  3.7251 -0.6293
  108MOL    H9713151   7.171   6.248   5.317  0.2750  0.7324  1.2360
  108MOL    C9813152   7.335   6.150   5.413  0.0724  0.4522 -0.4384
  108MOL    C9913153   7.262   6.144   5.550 -0.0333  0.5550  0.1610
  108MOL  Cl10013154   7.161   6.292   5.583 -0.1048 -0.2055  0.1713
  108MOL   H10113155   7.403   6.233   5.396 -0.2228  1.0488  1.2319
  108MOL   H10213156   7.401   6.064   5.402 -0.2614  0.2215 -0.6446
  108MOL   H10313157   7.196   6.058   5.538 -1.4428  1.4785  1.1298
  108MOL   C10413158   7.359   6.118   5.663 -0.6277  0.6030  0.2156
  108MOL   C10513159   7.294   6.078   5.790  0.7099 -0.0738  0.2277
  108MOL  Cl10613160   7.423   6.082   5.918  0.3447 -0.2682  0.1009
  108MOL   H10713161   7.413   6.211   5.680 -0.6238  0.7403 -0.5322
  108MOL   H10813162   7.436   6.045   5.638  0.7143  1.4210  1.8298
  108MOL   H10913163   7.234   6.167   5.812  1.7753  0.3834  1.3695
  108MOL   C11013164   7.226   5.931   5.780 -0.3901 -0.0606 -0.1132
  108MOL   C11113165   7.136   5.902   5.907  0.3126 -0.1137  0.3793
  108MOL  Cl11213166   7.232   5.873   6.058  0.0388  0.1446 -0.0853
  108MOL   H11313167   7.308   5.863   5.755 -0.2898 -0.5949  1.6176
  108MOL   H11413168   7.173   5.934   5.685 -0.5257  1.4666 -0.0048
  108MOL   H11513169   7.067   5.985   5.924  1.3032  0.6376  0.7668
  108MOL   C11613170   7.050   5.782   5.874 -0.3413 -0.5554  0.3226
  108MOL   C11713171   6.924   5.780   5.960 -0.2149  0.2173  0.8446
  108MOL  Cl11813172   6.806   5.657   5.899 -0.0495  0.0997 -0.1400
  108MOL   H11913173   7.105   5.689   5.866 -1.2756 -0.9645 -1.8398
  108MOL   H12013174   7.001   5.782   5.776 -0.5524 -0.3250  0.4265
  108MOL   H12113175   6.956   5.763   6.062  1.3120 -1.2689  0.1454
  108MOL   H12213176   6.885   5.882   5.957  3.6515  1.7440 -1.0713
  109MOL     C113177   1.300   1.022   4.603 -0.7342  0.7633  0.3181
  109MOL     C213178   1.219   1.150   4.579  0.0910 -0.0286 -0.4512
  109MOL    Cl313179   1.117   1.157   4.724  0.1501  0.1625 -0.3858
  109MOL     H413180   1.241   0.931   4.609 -0.7491  0.6006 -2.0247
  109MOL     H513181   1.385   1.006   4.537 -0.0562  0.7816  1.1717
  109MOL     H613182   1.287   1.235   4.574 -1.5455  1.3800  0.4758
  109MOL     H713183   1.360   1.039   4.693 -1.7791  1.0970  0.9630
  109MOL     C813184   1.143   1.151   4.451 -0.1901  0.7752 -0.5222
  109MOL     C913185   1.081   1.291   4.417  0.6136 -0.1847  0.0996
  109MOL   Cl1013186   0.960   1.270   4.290 -0.2810  0.0859 -0.3781
  109MOL    H1113187   1.063   1.078   4.454  0.0972  0.3958 -1.6466
  109MOL    H1213188   1.203   1.122   4.365 -0.3498 -1.0691 -0.0271
  109MOL    H1313189   1.023   1.328   4.501  2.2282  0.4622  0.9512
  109MOL    C1413190   1.184   1.405   4.372 -1.5401  0.5276  0.4292
  109MOL    C1513191   1.135   1.548   4.413  0.0126 -0.1672  0.5347
  109MOL   Cl1613192   1.240   1.648   4.316  0.0522  0.5960  0.1666
  109MOL    H1713193   1.177   1.403   4.263  2.2533 -0.8171  0.1394
  109MOL    H1813194   1.288   1.383   4.394 -1.5196 -0.5008 -0.5937
  109MOL    H1913195   1.034   1.580   4.388  1.1737  1.5669 -2.2536
  109MOL    C2013196   1.170   1.578   4.562  0.0609 -0.0684  0.8661
  109MOL    C2113197   1.080   1.529   4.679  0.1117 -0.0508  0.0632
  109MOL   Cl2213198   0.919   1.595   4.643 -0.0570  0.1770  0.1141
  109MOL    H2313199   1.171   1.687   4.565 -1.4716 -0.0551  1.5251
  109MOL    H2413200   1.274   1.555   4.583 -0.0056 -0.1105  1.1454
  109MOL    H2513201   1.074   1.421   4.685 -1.0200 -0.1856 -3.0520
  109MOL    C2613202   1.121   1.601   4.810 -0.6338  0.3847  0.1027
  109MOL    C2713203   1.046   1.586   4.945 -0.0639  0.5951 -0.3934
  109MOL   Cl2813204   1.129   1.682   5.077 -0.0476  0.0529  0.2670
  109MOL    H2913205   1.132   1.707   4.789  3.3764  0.2093  0.8073
  109MOL    H3013206   1.228   1.581   4.817 -0.2315  1.9238 -1.4478
  109MOL    H3113207   0.940   1.612   4.938 -0.5877 -0.2463  3.4199
  109MOL    C3213208   1.049   1.438   4.979  0.0382  0.4253  0.2947
  109MOL    C3313209   0.950   1.391   5.087  0.0412 -0.5041  0.8840
  109MOL   Cl3413210   0.980   1.222   5.130 -0.2653  0.0992  0.0148
  109MOL    H3513211   1.145   1.395   5.008 -0.2802  0.1402  0.9492
  109MOL    H3613212   1.025   1.370   4.897 -0.2198  0.4616  0.3390
  109MOL    H3713213   0.958   1.442   5.183 -1.4454  0.5127  0.4726
  109MOL    C3813214   0.795   1.388   5.042  0.5679  0.2968  0.7908
  109MOL    C3913215   0.697   1.347   5.153  0.5174 -0.6608  0.9275
  109MOL   Cl4013216   0.527   1.343   5.103  0.5073 -0.0452  0.3000
  109MOL    H4113217   0.791   1.329   4.950  1.0360  2.7006 -0.8256
  109MOL    H4213218   0.769   1.491   5.018  0.3101 -0.0358 -0.4103
  109MOL    H4313219   0.718   1.244   5.182 -0.2195 -1.5828 -1.6862
  109MOL    C4413220   0.710   1.437   5.289 -0.5318  0.7673 -0.2543
  109MOL    C4513221   0.616   1.411   5.402  0.1716  0.2159 -0.1432
  109MOL   Cl4613222   0.649   1.527   5.536 -0.0549  0.5199 -0.2707
  109MOL    H4713223   0.689   1.541   5.264  0.5574  1.2618  0.8315
  109MOL    H4813224   0.812   1.433   5.329 -0.4855 -2.0835 -0.5373
  109MOL    H4913225   0.513   1.433   5.376 -0.6255 -2.9922  0.0609
  109MOL    C5013226   0.615   1.267   5.461 -0.0715  0.9683 -0.4433
  109MOL    C5113227   0.734   1.214   5.546  0.2488 -0.3837 -0.2418
  109MOL   Cl5213228   0.868   1.176   5.445  0.3371  0.0729  0.1100
  109MOL    H5313229   0.604   1.190   5.385 -3.6039 -1.8816  2.7569
  109MOL    H5413230   0.529   1.255   5.526  0.0464  0.5819 -0.3546
  109MOL    H5513231   0.762   1.282   5.626  0.0861 -1.5636  0.8395
  109MOL    C5613232   0.680   1.087   5.627 -0.1369 -0.4365 -0.6047
  109MOL    C5713233   0.784   1.026   5.731  0.0893  0.1699  0.1996
  109MOL   Cl5813234   0.805   1.143   5.854 -0.3845  0.0648 -0.1096
  109MOL    H5913235   0.645   1.011   5.557 -1.7508  1.2545 -1.6741
  109MOL    H6013236   0.591   1.114   5.684  2.0193  1.0588  2.1525
  109MOL    H6113237   0.724   0.944   5.769  1.5527 -0.5006  1.1051
  109MOL    C6213238   0.925   0.986   5.686 -0.2111 -0.2864 -0.3041
  109MOL    C6313239   0.993   0.859   5.742  0.4162  1.1874  0.3631
  109MOL   Cl6413240   1.004   0.878   5.922 -0.1062 -0.2668 -0.3519
  109MOL    H6513241   0.993   1.069   5.667  1.9770 -2.4309 -2.1762
  109MOL    H6613242   0.912   0.962   5.580  0.7840 -0.1358 -0.4624
  109MOL    H6713243   0.933   0.769   5.729  1.6224  0.4156  0.0180
  109MOL    C6813244   1.138   0.849   5.699 -0.3635  0.4676  0.2774
  109MOL    C6913245   1.139   0.783   5.557  0.0555  0.2004 -0.0647
  109MOL   Cl7013246   1.089   0.615   5.572 -0.2248  0.0448 -0.2222
  109MOL    H7113247   1.197   0.784   5.764 -1.0161  0.0289  0.4360
  109MOL    H7213248   1.187   0.946   5.696 -2.8693  1.7435 -0.3965
  109MOL    H7313249   1.075   0.837   5.488  0.8522  0.4532 -0.6101
  109MOL    C7413250   1.286   0.797   5.505 -0.2809  0.2708  0.7870
  109MOL    C7513251   1.310   0.769   5.350  0.1934  0.0177  0.5841
  109MOL   Cl7613252   1.483   0.744   5.326  0.1504  0.0453  0.2712
  109MOL    H7713253   1.342   0.729   5.569 -1.5209 -0.5499  1.0232
  109MOL    H7813254   1.335   0.895   5.509 -0.2680  0.2245  1.6832
  109MOL    H7913255   1.273   0.672   5.316  1.4856 -0.2107 -0.2104
  109MOL    C8013256   1.242   0.876   5.257  0.2581  0.4719  0.1472
  109MOL    C8113257   1.319   0.913   5.128 -0.2036 -0.0094 -0.2040
  109MOL   Cl8213258   1.261   1.071   5.073 -0.1198  0.2741 -0.1414
  109MOL    H8313259   1.219   0.960   5.323 -1.7645  0.6514 -0.7561
  109MOL    H8413260   1.142   0.858   5.218  1.4137 -1.0737 -2.2303
  109MOL    H8513261   1.425   0.925   5.151 -0.1864 -0.5926  0.0386
  109MOL    C8613262   1.309   0.804   5.021  0.2177  0.0620 -0.0596
  109MOL    C8713263   1.414   0.791   4.912 -0.3293 -0.3949 -0.9054
  109MOL   Cl8813264   1.369   0.670   4.791  0.2084  0.3879 -0.0848
  109MOL    H8913265   1.207   0.817   4.984  0.1076  0.5831  0.4139
  109MOL    H9013266   1.291   0.712   5.076 -2.2687  1.6998  1.9986
  109MOL    H9113267   1.418   0.888   4.863 -0.2523  0.7049  1.2121
  109MOL    C9213268   1.558   0.753   4.962 -0.0248  0.1737 -0.0765
  109MOL    C9313269   1.666   0.856   4.930  0.7700 -0.1161  0.9684
  109MOL   Cl9413270   1.675   0.878   4.754  0.3995  0.1804  0.2373
  109MOL    H9513271   1.589   0.660   4.915  1.1629  0.8851 -0.7287
  109MOL    H9613272   1.550   0.737   5.069  0.5176  2.9099  0.3957
  109MOL    H9713273   1.633   0.953   4.968  0.8452  0.0014  0.7281
  109MOL    C9813274   1.801   0.797   4.971  0.2036 -0.4578 -0.0059
  109MOL    C9913275   1.812   0.777   5.119  0.2238  0.6648  0.5832
  109MOL  Cl10013276   1.775   0.934   5.202  0.2418 -0.7046 -0.0125
  109MOL   H10113277   1.880   0.869   4.950  1.1749 -1.1107  1.3177
  109MOL   H10213278   1.816   0.707   4.912 -1.7472 -0.2634 -0.8175
  109MOL   H10313279   1.735   0.710   5.157  1.1008 -0.2679  0.7361
  109MOL   C10413280   1.944   0.722   5.167  0.0303  0.0338  0.0796
  109MOL   C10513281   1.961   0.574   5.172 -0.4737 -0.5368  0.2981
  109MOL  Cl10613282   1.979   0.508   5.006 -0.0923  0.4297 -0.3092
  109MOL   H10713283   1.953   0.752   5.272  0.9427  0.9930 -0.2732
  109MOL   H10813284   2.024   0.772   5.113 -0.4626  0.8356  0.0831
  109MOL   H10913285   2.056   0.544   5.217 -0.7370 -0.4967  0.8936
  109MOL   C11013286   1.854   0.490   5.239  0.6111  0.3608  0.0770
  109MOL   C11113287   1.830   0.517   5.394 -0.0609  0.0232  0.4180
  109MOL  Cl11213288   1.978   0.551   5.482 -0.1359 -0.1037  0.1120
  109MOL   H11313289   1.878   0.384   5.238 -0.0802  0.1581  2.6264
  109MOL   H11413290   1.761   0.513   5.186  1.0465  1.0537 -0.4011
  109MOL   H11513291   1.767   0.606   5.402  1.9208  1.4073  0.8893
  109MOL   C11613292   1.756   0.408   5.467 -0.4936 -0.2046  0.0225
  109MOL   C11713293   1.835   0.284   5.494 -0.2257 -0.0534 -0.2525
  109MOL  Cl11813294   1.722   0.175   5.569 -0.1078  0.0052 -0.1152
  109MOL   H11913295   1.660   0.391   5.418 -0.2021  2.7207 -1.6949
  109MOL   H12013296   1.736   0.452   5.565 -0.6965  1.6475 -0.8172
  109MOL   H12113297   1.872   0.220   5.413 -0.5216 -0.4182 -0.0967
  109MOL   H12213298   1.923   0.299   5.557  0.1003 -1.5985 -0.3180
  110MOL     C113299   6.725   3.770   0.780  0.5337  0.2110  0.7431
  110MOL     C213300   6.817   3.832   0.674  0.2989  0.2843  0.2304
  110MOL    Cl313301   6.963   3.728   0.655 -0.1767  0.2493  0.0689
  110MOL     H413302   6.763   3.748   0.880  1.2964  3.0837  1.1195
  110MOL     H513303   6.640   3.837   0.791  1.8647  1.8699  1.2028
  110MOL     H613304   6.767   3.820   0.578  0.8347  0.8077 -0.1188
  110MOL     H713305   6.695   3.675   0.735 -0.0581  0.6060  0.3034
  110MOL     C813306   6.868   3.977   0.699  0.2382 -0.1957 -1.0110
  110MOL     C913307   6.947   4.002   0.825  0.3266  1.1032 -0.0378
  110MOL   Cl1013308   6.844   4.060   0.963  0.4086 -0.0049  0.0599
  110MOL    H1113309   6.785   4.047   0.693  0.9298  0.7006 -0.1534
  110MOL    H1213310   6.925   3.990   0.607  1.0201  2.4291 -0.1861
  110MOL    H1313311   6.980   3.904   0.861  0.2087  1.1219  0.1241
  110MOL    C1413312   7.061   4.098   0.805 -0.4937  0.5025 -0.1701
  110MOL    C1513313   7.036   4.240   0.758  0.1386  0.3013 -0.2252
  110MOL   Cl1613314   7.032   4.246   0.573  0.2439  0.4232 -0.0954
  110MOL    H1713315   7.133   4.052   0.739 -0.5674 -0.2536  0.2750
  110MOL    H1813316   7.115   4.094   0.900  0.7873 -2.5214 -0.9709
  110MOL    H1913317   6.945   4.284   0.798  1.1056  0.3149  2.0116
  110MOL    C2013318   7.164   4.324   0.790 -0.2694  0.0710  0.7113
  110MOL    C2113319   7.146   4.471   0.806 -0.0162 -0.1214 -0.0568
  110MOL   Cl2213320   7.116   4.565   0.658 -0.0046  0.2196 -0.3073
  110MOL    H2313321   7.237   4.310   0.710  0.3933  1.8057  0.9774
  110MOL    H2413322   7.207   4.295   0.886 -1.3127  0.4361  1.2878
  110MOL    H2513323   7.049   4.483   0.855  0.0638 -0.1357  0.1013
  110MOL    C2613324   7.260   4.530   0.890 -0.4786 -0.1023  0.5928
  110MOL    C2713325   7.229   4.671   0.956  0.7540  0.1428 -0.2710
  110MOL   Cl2813326   7.384   4.756   0.994  0.1028 -0.3946  0.4662
  110MOL    H2913327   7.352   4.536   0.831 -0.2378 -1.0250  0.8608
  110MOL    H3013328   7.276   4.467   0.978  0.1886 -0.4031  0.2606
  110MOL    H3113329   7.175   4.733   0.885 -1.3692 -1.8792 -0.4667
  110MOL    C3213330   7.143   4.664   1.084 -0.3203  0.7448  0.4937
  110MOL    C3313331   7.055   4.785   1.123 -0.2033  0.8034  0.2848
  110MOL   Cl3413332   6.925   4.811   0.996  0.4050  0.0429 -0.4606
  110MOL    H3513333   7.208   4.640   1.168 -1.3576 -0.0963  1.0508
  110MOL    H3613334   7.064   4.590   1.081 -1.8665  2.3147  1.7436
  110MOL    H3713335   7.010   4.754   1.217 -0.1931  0.0172  0.0366
  110MOL    C3813336   7.139   4.914   1.135 -0.2159 -0.0987 -0.6114
  110MOL    C3913337   7.066   5.026   1.214  0.3295 -0.0238  0.1482
  110MOL   Cl4013338   7.141   5.172   1.151  0.1030 -0.2599 -0.4315
  110MOL    H4113339   7.159   4.938   1.030 -1.5164 -1.2118 -1.1236
  110MOL    H4213340   7.240   4.894   1.172 -0.1977  3.3457  1.3641
  110MOL    H4313341   6.961   5.033   1.187  0.1455 -1.4711  0.4884
  110MOL    C4413342   7.078   5.014   1.368 -0.0591  0.4334 -0.0152
  110MOL    C4513343   6.999   5.125   1.455  0.5724 -0.3775 -0.7619
  110MOL   Cl4613344   7.086   5.154   1.608 -0.2043 -0.2943 -0.3633
  110MOL    H4713345   7.186   5.025   1.383  0.1205  0.0324 -0.9712
  110MOL    H4813346   7.057   4.911   1.396  2.4807 -0.5588 -1.5075
  110MOL    H4913347   6.998   5.218   1.399 -2.3845 -1.0202 -1.8373
  110MOL    C5013348   6.853   5.072   1.495  0.1938  1.0577 -0.1567
  110MOL    C5113349   6.771   5.173   1.580  0.7214 -0.0033 -0.2150
  110MOL   Cl5213350   6.615   5.095   1.600 -0.1594 -0.1601  0.1126
  110MOL    H5313351   6.864   4.978   1.549  1.0974  1.0626 -0.3268
  110MOL    H5413352   6.791   5.062   1.406 -0.9441  2.0632  0.5114
  110MOL    H5513353   6.821   5.194   1.675 -0.4375  1.7687  0.0372
  110MOL    C5613354   6.752   5.301   1.493 -0.1065 -0.6003 -0.4469
  110MOL    C5713355   6.660   5.404   1.573 -0.1705 -0.8736 -0.4226
  110MOL   Cl5813356   6.626   5.547   1.450  0.1753 -0.1191 -0.3867
  110MOL    H5913357   6.697   5.268   1.405 -1.9699 -0.9225  0.7949
  110MOL    H6013358   6.847   5.350   1.473  0.3229 -1.7054 -1.1609
  110MOL    H6113359   6.558   5.367   1.588 -0.5542  0.3452  0.1230
  110MOL    C6213360   6.727   5.456   1.700  0.6237  0.2741 -0.4979
  110MOL    C6313361   6.632   5.547   1.786 -0.3491  0.0492 -0.4210
  110MOL   Cl6413362   6.746   5.635   1.897  0.1142 -0.1901 -0.2601
  110MOL    H6513363   6.817   5.508   1.666 -1.1975  2.4325 -2.1314
  110MOL    H6613364   6.755   5.372   1.764 -0.2659 -0.5331 -1.1568
  110MOL    H6713365   6.597   5.631   1.725  1.0811  1.1572  0.2445
  110MOL    C6813366   6.526   5.466   1.861 -0.0480  0.1815 -0.0506
  110MOL    C6913367   6.412   5.541   1.929  0.3936 -0.9228  0.4292
  110MOL   Cl7013368   6.308   5.412   1.999 -0.0441  0.0524  0.0205
  110MOL    H7113369   6.581   5.407   1.935  0.1376 -0.2388 -0.5163
  110MOL    H7213370   6.486   5.391   1.792 -2.7823  1.2140  0.3708
  110MOL    H7313371   6.446   5.606   2.009 -0.2855  1.0802 -0.8791
  110MOL    C7413372   6.328   5.622   1.821 -0.0000 -0.0450  0.2132
  110MOL    C7513373   6.218   5.547   1.723 -0.2595  0.2357 -0.7060
  110MOL   Cl7613374   6.307   5.460   1.596  0.3792 -0.1811  0.0068
  110MOL    H7713375   6.383   5.702   1.772  1.1463 -0.6512  0.5096
  110MOL    H7813376   6.268   5.668   1.900  0.5404 -1.4716  1.4722
  110MOL    H7913377   6.166   5.466   1.774  0.3545 -1.4908 -2.7372
  110MOL    C8013378   6.123   5.645   1.659 -0.5177  0.6299  0.0529
  110MOL    C8113379   6.042   5.719   1.767 -0.4281  0.0855 -0.2696
  110MOL   Cl8213380   5.960   5.606   1.867  0.2490 -0.1067  0.2620
  110MOL    H8313381   6.059   5.584   1.595 -0.4597  1.6794 -1.0190
  110MOL    H8413382   6.179   5.715   1.596 -0.1807  0.3367  0.0249
  110MOL    H8513383   6.103   5.777   1.835 -0.6520  2.7145 -2.2323
  110MOL    C8613384   5.947   5.814   1.698 -0.4081 -0.3684 -0.2509
  110MOL    C8713385   5.849   5.910   1.767 -0.1469  0.5509 -0.0315
  110MOL   Cl8813386   5.758   5.988   1.634 -0.2882  0.4095 -0.0877
  110MOL    H8913387   5.891   5.754   1.626 -1.0687  0.0076 -0.0559
  110MOL    H9013388   6.009   5.880   1.637  0.1101 -1.2815 -0.7073
  110MOL    H9113389   5.774   5.857   1.826  0.1341 -1.3349 -1.3553
  110MOL    C9213390   5.931   6.018   1.846 -0.6292 -0.1234  0.7061
  110MOL    C9313391   5.847   6.105   1.947 -0.0934  1.3897 -0.4468
  110MOL   Cl9413392   5.947   6.253   1.991  0.0204  0.0869 -0.1125
  110MOL    H9513393   5.979   6.082   1.772 -0.5400  0.0260  0.8927
  110MOL    H9613394   6.014   5.977   1.904  0.3051  0.9721  0.1635
  110MOL    H9713395   5.766   6.137   1.882 -0.3017  2.9253  0.5432
  110MOL    C9813396   5.804   6.030   2.079 -0.3508 -0.1054 -0.0420
  110MOL    C9913397   5.688   6.097   2.158 -0.0136  0.6377 -0.0783
  110MOL  Cl10013398   5.663   6.015   2.308  0.0707 -0.3917  0.1664
  110MOL   H10113399   5.886   5.996   2.143 -0.6238 -3.3490 -1.3027
  110MOL   H10213400   5.766   5.932   2.051 -0.4166 -0.6313  1.7899
  110MOL   H10313401   5.701   6.202   2.185 -3.6799  1.2707 -0.4503
  110MOL   C10413402   5.553   6.103   2.096  0.1795 -0.4013 -0.8170
  110MOL   C10513403   5.433   6.173   2.170  0.0197  0.0158 -0.0176
  110MOL  Cl10613404   5.290   6.178   2.064  0.2576 -0.3213  0.2770
  110MOL   H10713405   5.536   5.997   2.081 -0.5729 -0.5660  1.0358
  110MOL   H10813406   5.565   6.151   1.999  0.8830 -0.9733 -1.0097
  110MOL   H10913407   5.398   6.110   2.252 -0.2787  0.1496 -0.0417
  110MOL   C11013408   5.462   6.320   2.203  0.0281 -0.0475 -0.4122
  110MOL   C11113409   5.341   6.405   2.251 -0.2693  0.4550 -0.6009
  110MOL  Cl11213410   5.407   6.571   2.263  0.3505 -0.1821  0.2788
  110MOL   H11313411   5.500   6.365   2.111  1.4235  0.6152  0.4669
  110MOL   H11413412   5.545   6.333   2.272 -0.8986  1.6664  0.4127
  110MOL   H11513413   5.252   6.404   2.189 -0.7118 -0.0355  0.0268
  110MOL   C11613414   5.285   6.367   2.394 -0.8112  0.3960 -0.0319
  110MOL   C11713415   5.386   6.359   2.516  0.0018 -0.3069  0.1084
  110MOL  Cl11813416   5.285   6.340   2.657 -0.5522  0.1361  0.6838
  110MOL   H11913417   5.232   6.272   2.386 -1.5843  0.8335 -0.1875
  110MOL   H12013418   5.216   6.449   2.418 -1.1890 -0.1035  0.6095
  110MOL   H12113419   5.450   6.271   2.514 -0.6855 -0.7980 -0.7328
  110MOL   H12213420   5.451   6.443   2.538  0.7258 -0.7573 -0.3018
  111MOL     C113421   0.331   1.099   5.929 -0.2790  0.3205 -0.2017
  111MOL     C213422   0.254   0.998   5.836  0.0640 -0.1737  0.7207
  111MOL    Cl313423   0.333   0.842   5.820  0.3638 -0.4884 -0.1134
  111MOL     H413424   0.262   1.182   5.942 -0.8927  0.1999 -2.3617
  111MOL     H513425   0.361   1.069   6.029 -2.1146  2.5656  1.0555
  111MOL     H613426   0.153   0.982   5.874 -0.4122  2.2224  0.5496
  111MOL     H713427   0.421   1.126   5.873 -0.2367 -0.6240 -0.6075
  111MOL     C813428   0.242   1.055   5.690  0.4581 -0.3398  0.8614
  111MOL     C913429   0.184   0.958   5.576 -0.0002 -0.6045 -0.4247
  111MOL   Cl1013430   0.153   1.053   5.425 -0.5210  0.0115 -0.6517
  111MOL    H1113431   0.346   1.051   5.658  1.1001 -1.3078  2.9299
  111MOL    H1213432   0.196   1.153   5.679 -1.4751 -1.4859 -1.7685
  111MOL    H1313433   0.256   0.877   5.561  0.9107  0.1976 -0.4620
  111MOL    C1413434   0.044   0.892   5.613  0.2446  0.9700 -0.1630
  111MOL    C1513435   8.500   0.807   5.506 -0.7365 -0.1564 -0.3046
  111MOL   Cl1613436   8.337   0.772   5.575 -0.4876  0.1634  0.1735
  111MOL    H1713437   8.500   0.971   5.640  0.2833  0.5238  1.2669
  111MOL    H1813438   0.052   0.835   5.705  1.8605 -0.8504 -1.3917
  111MOL    H1913439   8.484   0.871   5.419 -2.6514  0.4547  0.4774
  111MOL    C2013440   0.056   0.674   5.478  0.0750 -0.5351  0.1664
  111MOL    C2113441   0.004   0.608   5.349 -0.2295 -0.1574 -0.5186
  111MOL   Cl2213442   8.519   0.432   5.370  0.1590 -0.0309 -0.8072
  111MOL    H2313443   0.028   0.607   5.560 -0.1163  0.2569  0.7575
  111MOL    H2413444   0.162   0.697   5.489 -0.0301 -0.3532  0.8409
  111MOL    H2513445   8.428   0.637   5.319 -0.5678  1.1952  1.8581
  111MOL    C2613446   0.098   0.639   5.220 -0.2196 -0.2809 -0.8723
  111MOL    C2713447   0.064   0.582   5.080 -0.6522  0.0510 -0.1303
  111MOL   Cl2813448   0.191   0.634   4.960  0.0391 -0.0265  0.2825
  111MOL    H2913449   0.204   0.619   5.233 -0.8932 -3.6391  0.1169
  111MOL    H3013450   0.080   0.745   5.208  0.6531 -0.2359 -1.8315
  111MOL    H3113451   0.078   0.475   5.092  1.4651 -0.0743 -3.1350
  111MOL    C3213452   8.451   0.629   5.026  0.3200  0.7658 -0.1101
  111MOL    C3313453   8.370   0.522   4.939 -0.8571 -0.3420 -0.8373
  111MOL   Cl3413454   8.340   0.389   5.051 -0.6865  0.0785 -0.4910
  111MOL    H3513455   8.460   0.711   4.955 -1.3347  2.0612  1.1095
  111MOL    H3613456   8.391   0.660   5.112  2.3988  2.0033  0.9087
  111MOL    H3713457   8.277   0.570   4.911 -0.9956  1.0189  1.7770
  111MOL    C3813458   8.444   0.465   4.812  0.6127 -0.0512  0.4299
  111MOL    C3913459   8.367   0.352   4.736 -0.0571 -0.1026 -0.5706
  111MOL   Cl4013460   8.460   0.271   4.606  0.3538  0.1612  0.2645
  111MOL    H4113461   0.018   0.435   4.844  0.7719 -0.0663 -0.0720
  111MOL    H4213462   8.459   0.553   4.749 -2.4772  0.7999  0.7628
  111MOL    H4313463   8.345   0.271   4.805  0.7457  0.1294 -0.0307
  111MOL    C4413464   8.230   0.412   4.676  0.4127 -0.0254  0.0396
  111MOL    C4513465   8.144   0.307   4.608  0.3086 -0.8801 -0.0380
  111MOL   Cl4613466   7.984   0.380   4.571  0.3129  0.2022 -0.0095
  111MOL    H4713467   8.248   0.484   4.596 -1.3534 -0.1016 -0.4563
  111MOL    H4813468   8.173   0.467   4.751 -0.2663 -1.8559  0.9011
  111MOL    H4913469   8.189   0.305   4.508  1.9939 -1.4263  0.7148
  111MOL    C5013470   8.139   0.173   4.686  0.8759  0.4983  0.0985
  111MOL    C5113471   8.033   0.074   4.624 -0.2290  1.1396 -0.4511
  111MOL   Cl5213472   8.019   8.449   4.718 -0.3813  0.0401 -0.7827
  111MOL    H5313473   8.120   0.208   4.787  3.2386  0.7547  0.4874
  111MOL    H5413474   8.237   0.125   4.679  0.3268 -0.5864 -0.1765
  111MOL    H5513475   7.937   0.122   4.645 -0.9364  0.0444 -1.0950
  111MOL    C5613476   8.060   0.053   4.476  1.1160 -0.0377 -0.4782
  111MOL    C5713477   7.939   8.517   4.397  0.1489  0.2689 -0.4986
  111MOL   Cl5813478   7.795   0.096   4.402 -0.2106 -0.0919  0.0685
  111MOL    H5913479   8.146   8.511   4.483  1.5140  0.5849  0.9462
  111MOL    H6013480   8.100   0.137   4.420 -2.5886  1.2347 -1.3599
  111MOL    H6113481   7.974   8.515   4.294 -0.6924  1.4122 -0.8146
  111MOL    C6213482   7.895   8.374   4.441  0.1709 -0.3904 -0.2606
  111MOL    C6313483   8.003   8.266   4.438 -0.3538  1.0114  0.2292
  111MOL   Cl6413484   8.103   8.274   4.292  0.1581 -0.1001  0.1531
  111MOL    H6513485   7.825   8.338   4.366  0.8018 -1.0104 -0.5608
  111MOL    H6613486   7.837   8.381   4.533 -0.1123 -1.4960 -0.3529
  111MOL    H6713487   8.068   8.291   4.522 -0.5117 -0.9452  0.9574
  111MOL    C6813488   7.951   8.124   4.449 -0.3730  0.0871 -0.3895
  111MOL    C6913489   7.866   8.088   4.566 -0.0780 -0.5567  0.0965
  111MOL   Cl7013490   7.960   8.103   4.717 -0.1746  0.1004 -0.2747
  111MOL    H7113491   8.040   8.060   4.452 -2.2971 -2.6304  3.8266
  111MOL    H7213492   7.899   8.095   4.358  1.2303 -0.3789 -1.1638
  111MOL    H7313493   7.786   8.161   4.564  1.4736  1.1434 -0.8893
  111MOL    C7413494   7.804   7.947   4.549  0.5078  0.3509  0.2489
  111MOL    C7513495   7.741   7.885   4.674 -0.2643  0.1262  0.4831
  111MOL   Cl7613496   7.685   7.721   4.641 -0.3151  0.4282 -0.1329
  111MOL    H7713497   7.885   7.880   4.522 -0.9907 -0.8905 -1.2963
  111MOL    H7813498   7.738   7.936   4.463 -0.9215  2.0816  1.1040
  111MOL    H7913499   7.815   7.881   4.754  0.5722  1.6627 -0.1908
  111MOL    C8013500   7.626   7.974   4.713 -0.0076  0.3085 -0.0096
  111MOL    C8113501   7.538   7.937   4.835  0.4398  0.1499 -0.0328
  111MOL   Cl8213502   7.406   8.062   4.845 -0.0679  0.0621 -0.0892
  111MOL    H8313503   7.566   7.991   4.623  0.9962 -1.0580 -0.9495
  111MOL    H8413504   7.673   8.066   4.747 -0.0052 -0.5415  2.3653
  111MOL    H8513505   7.499   7.836   4.818  1.6731 -0.9616  3.2572
  111MOL    C8613506   7.617   7.938   4.968 -0.1149 -0.3946 -0.1300
  111MOL    C8713507   7.670   7.795   5.011  0.5918 -0.1875 -1.0900
  111MOL   Cl8813508   7.525   7.704   5.065  0.1706  0.1980  0.1715
  111MOL    H8913509   7.550   7.978   5.044 -2.7601 -1.8842 -1.6385
  111MOL    H9013510   7.698   8.011   4.959  1.9795 -2.7334 -1.0031
  111MOL    H9113511   7.722   7.747   4.929  0.7792  0.5154 -1.3858
  111MOL    C9213512   7.775   7.782   5.130  0.1743 -0.1314  0.2193
  111MOL    C9313513   7.906   7.845   5.093  0.0857  0.6533 -0.5967
  111MOL   Cl9413514   7.978   7.753   4.956 -0.1627 -0.3189  0.0180
  111MOL    H9513515   7.790   7.675   5.145  1.2577 -0.1833 -1.0956
  111MOL    H9613516   7.731   7.823   5.221  0.2468 -2.9466  1.5943
  111MOL    H9713517   7.886   7.943   5.049  0.0359  1.2270  0.6792
  111MOL    C9813518   8.012   7.855   5.208 -0.4236 -0.2407 -0.2590
  111MOL    C9913519   7.972   7.914   5.338  0.2730  0.2443 -0.6649
  111MOL  Cl10013520   7.909   8.080   5.304 -0.0566  0.1505 -0.4334
  111MOL   H10113521   8.093   7.923   5.180 -0.3107 -0.4473 -0.4352
  111MOL   H10213522   8.048   7.754   5.230  1.7136  0.8466  1.4872
  111MOL   H10313523   7.884   7.857   5.367 -0.0103  1.1659  0.3286
  111MOL   C10413524   8.074   7.908   5.451  0.2887  0.0042 -0.3908
  111MOL   C10513525   8.102   7.770   5.515  0.7081 -0.3610  0.3888
  111MOL  Cl10613526   7.962   7.706   5.600  0.2358  0.2212 -0.0170
  111MOL   H10713527   8.050   7.963   5.542 -0.0560 -0.0211 -0.4649
  111MOL   H10813528   8.164   7.960   5.418  2.1312 -1.1010  2.7219
  111MOL   H10913529   8.124   7.680   5.456  1.3399  1.6971 -2.6036
  111MOL   C11013530   8.217   7.774   5.618  0.8602 -0.7196  0.3668
  111MOL   C11113531   8.359   7.761   5.557  0.2866 -0.2024  0.6116
  111MOL  Cl11213532   8.387   7.597   5.499 -0.0984  0.0711  0.2814
  111MOL   H11313533   8.203   7.683   5.677  1.2054 -2.0881 -1.6271
  111MOL   H11413534   8.203   7.855   5.690  1.7963 -1.6057  1.5589
  111MOL   H11513535   8.364   7.822   5.467  1.1760  0.5309  1.1526
  111MOL   C11613536   8.465   7.808   5.654 -1.1160 -0.1929  0.1325
  111MOL   C11713537   0.084   7.821   5.585 -0.2164 -0.0898 -0.3691
  111MOL  Cl11813538   0.210   7.884   5.698  0.4536  0.3005  0.0375
  111MOL   H11913539   8.489   7.738   5.735 -0.4710  1.8302  1.7331
  111MOL   H12013540   8.441   7.901   5.705 -0.2999 -0.9327  1.9273
  111MOL   H12113541   0.119   7.724   5.548 -2.6295 -1.3203  0.4370
  111MOL   H12213542   0.075   7.893   5.504 -1.4466  3.0610  2.4343
  112MOL     C113543   5.066   3.515   2.182 -0.3472  0.3016 -0.3827
  112MOL     C213544   5.019   3.582   2.053  0.7542  0.0322 -0.6789
  112MOL    Cl313545   4.840   3.573   2.061  0.0267  0.0747 -0.0758
  112MOL     H413546   5.172   3.491   2.184 -0.4052 -0.1735 -2.2392
  112MOL     H513547   5.036   3.560   2.277 -0.1852 -0.5482  0.0690
  112MOL     H613548   5.035   3.690   2.054 -0.1726  0.1775 -1.5942
  112MOL     H713549   5.021   3.416   2.187 -2.5022  1.2617 -0.1683
  112MOL     C813550   5.076   3.514   1.925  0.1025  0.2440 -0.5726
  112MOL     C913551   5.224   3.532   1.906  1.0513  0.1227  0.1557
  112MOL   Cl1013552   5.258   3.710   1.880  0.0055 -0.1641  0.2595
  112MOL    H1113553   5.022   3.553   1.839 -2.8263 -1.2742  0.5214
  112MOL    H1213554   5.055   3.407   1.932  1.9089 -0.0383  0.6974
  112MOL    H1313555   5.286   3.495   1.988 -2.0830 -2.1173  1.6267
  112MOL    C1413556   5.275   3.459   1.784 -0.0531 -0.1738  0.2214
  112MOL    C1513557   5.428   3.461   1.774 -0.0806 -0.0506 -0.3775
  112MOL   Cl1613558   5.469   3.437   1.602 -0.2864 -0.1488  0.1754
  112MOL    H1713559   5.232   3.489   1.689  0.2505 -0.3573  0.0215
  112MOL    H1813560   5.257   3.351   1.792 -1.5773 -0.1587 -2.4684
  112MOL    H1913561   5.463   3.563   1.788  0.1787  0.0637 -1.8015
  112MOL    C2013562   5.498   3.359   1.857  0.0964  0.2930  0.3998
  112MOL    C2113563   5.648   3.375   1.875 -0.4054  0.0521 -0.4376
  112MOL   Cl2213564   5.725   3.213   1.909  0.0602 -0.0477  0.0665
  112MOL    H2313565   5.457   3.260   1.835  1.5559 -0.1894 -0.2437
  112MOL    H2413566   5.453   3.385   1.953  0.7341  0.2126  0.7246
  112MOL    H2513567   5.696   3.408   1.783 -0.8303  0.6016 -0.4593
  112MOL    C2613568   5.682   3.468   1.996  0.2548  0.3164 -0.5807
  112MOL    C2713569   5.829   3.507   2.003 -0.3990 -0.3138  1.0431
  112MOL   Cl2813570   5.876   3.554   2.168 -0.2982 -0.0816 -0.1062
  112MOL    H2913571   5.665   3.413   2.088 -0.8969  1.3640 -0.1648
  112MOL    H3013572   5.611   3.550   2.002 -0.1398 -0.0464 -0.2823
  112MOL    H3113573   5.890   3.421   1.974  0.7848  0.2900  1.6746
  112MOL    C3213574   5.855   3.632   1.919  0.0999 -0.0474  0.2133
  112MOL    C3313575   5.763   3.755   1.951 -0.7089 -0.7843  0.0412
  112MOL   Cl3413576   5.636   3.781   1.835  0.5380  0.0827 -0.0619
  112MOL    H3513577   5.863   3.603   1.814 -2.6868  1.3692 -0.4344
  112MOL    H3613578   5.958   3.664   1.937  1.1406 -2.4652 -1.2264
  112MOL    H3713579   5.710   3.746   2.046 -1.6277 -0.8342 -0.4726
  112MOL    C3813580   5.842   3.885   1.955 -0.2230  0.0446 -0.3370
  112MOL    C3913581   5.772   4.007   2.013 -0.2981 -0.3103 -0.6942
  112MOL   Cl4013582   5.843   4.159   1.967 -0.0550  0.5807  0.4543
  112MOL    H4113583   5.876   3.920   1.857  2.1887 -0.4520  0.2843
  112MOL    H4213584   5.935   3.870   2.010  0.8461  0.8436 -1.8979
  112MOL    H4313585   5.674   4.008   1.965 -1.1145 -1.0767  0.9121
  112MOL    C4413586   5.771   4.022   2.165 -0.6186 -1.3202  0.0686
  112MOL    C4513587   5.674   4.124   2.221  0.2942 -0.2512 -0.1405
  112MOL   Cl4613588   5.743   4.180   2.373 -0.0726 -0.4854  0.1837
  112MOL    H4713589   5.870   4.044   2.203 -0.5792  0.0070 -0.7708
  112MOL    H4813590   5.746   3.924   2.205 -3.8210  0.0515  1.6713
  112MOL    H4913591   5.660   4.210   2.155 -0.8747 -1.3800 -1.3784
  112MOL    C5013592   5.539   4.068   2.259 -0.9443 -0.1408  0.1198
  112MOL    C5113593   5.447   4.015   2.150  0.1198  0.1178  0.8062
  112MOL   Cl5213594   5.410   4.135   2.026  0.0834 -0.0163  0.0878
  112MOL    H5313595   5.480   4.145   2.308 -1.4514 -0.7962  0.5411
  112MOL    H5413596   5.565   3.992   2.333  1.3139 -1.4754 -1.9788
  112MOL    H5513597   5.495   3.934   2.095 -0.5801 -0.7391  1.4342
  112MOL    C5613598   5.322   3.942   2.207  0.1636  0.1152 -0.6256
  112MOL    C5713599   5.351   3.813   2.291 -0.3829  0.2387 -0.3758
  112MOL   Cl5813600   5.415   3.692   2.179 -0.2933 -0.2829  0.0043
  112MOL    H5913601   5.253   3.911   2.128 -2.6129 -0.7692  2.0264
  112MOL    H6013602   5.268   4.009   2.275 -0.6467  1.0493 -2.1550
  112MOL    H6113603   5.433   3.830   2.361  1.6993 -1.6304 -2.2411
  112MOL    C6213604   5.229   3.745   2.351 -0.2466 -0.5422 -0.1240
  112MOL    C6313605   5.193   3.817   2.482  0.3666  0.5928  0.0644
  112MOL   Cl6413606   5.328   3.776   2.590  0.3221  0.2168 -0.2876
  112MOL    H6513607   5.246   3.639   2.372 -1.1086 -0.3711  1.4882
  112MOL    H6613608   5.148   3.762   2.280  0.2452  0.4067 -0.4681
  112MOL    H6713609   5.191   3.926   2.479  2.9843  0.6995  1.0344
  112MOL    C6813610   5.054   3.774   2.546 -0.8188  0.0436  0.4628
  112MOL    C6913611   5.008   3.877   2.656 -0.3633 -0.2819  0.7649
  112MOL   Cl7013612   4.935   3.784   2.783 -0.2270 -0.0394 -0.2300
  112MOL    H7113613   5.053   3.671   2.581 -1.0436 -0.2523 -0.3890
  112MOL    H7213614   4.979   3.761   2.467  1.0075 -1.3556 -1.0803
  112MOL    H7313615   5.102   3.912   2.698 -0.0363 -1.1481  0.7666
  112MOL    C7413616   4.922   3.991   2.604 -0.2690 -0.2993  0.3912
  112MOL    C7513617   4.913   4.115   2.700  0.6355  0.4925  0.3998
  112MOL   Cl7613618   5.079   4.194   2.718  0.0737  0.1561 -0.3805
  112MOL    H7713619   4.821   3.962   2.574 -1.0374  1.1081  1.5662
  112MOL    H7813620   4.964   4.032   2.513 -0.6681 -0.6562  0.0464
  112MOL    H7913621   4.849   4.181   2.641 -0.0575  0.6099  1.2599
  112MOL    C8013622   4.836   4.097   2.833 -0.4048  0.3557  0.3954
  112MOL    C8113623   4.687   4.061   2.828  0.0975 -0.6654 -0.3831
  112MOL   Cl8213624   4.588   4.165   2.710 -0.2675  0.1759  0.2350
  112MOL    H8313625   4.847   4.191   2.887  1.8400  0.5844 -0.4052
  112MOL    H8413626   4.892   4.035   2.904 -1.2851 -0.9633 -0.0310
  112MOL    H8513627   4.683   3.957   2.794  0.9121 -0.0496 -2.4719
  112MOL    C8613628   4.614   4.066   2.961  1.0881  0.6680  0.3376
  112MOL    C8713629   4.648   3.947   3.062  0.2870  1.0725  0.1134
  112MOL   Cl8813630   4.598   3.787   2.999  0.0939 -0.1295 -0.1544
  112MOL    H8913631   4.506   4.075   2.944  0.9237 -1.4670  0.0491
  112MOL    H9013632   4.640   4.164   3.000  0.6361  1.1620 -0.5736
  112MOL    H9113633   4.755   3.934   3.080 -0.0304 -0.0805  1.2242
  112MOL    C9213634   4.589   3.963   3.198  0.8372 -0.2239 -0.3824
  112MOL    C9313635   4.652   4.077   3.281  0.2045 -0.4260 -0.1537
  112MOL   Cl9413636   4.825   4.059   3.278  0.0379 -0.2666 -0.5417
  112MOL    H9513637   4.600   3.866   3.248  2.1189 -0.0812 -0.3741
  112MOL    H9613638   4.483   3.985   3.193  0.7097 -1.0080 -1.4215
  112MOL    H9713639   4.631   4.168   3.226 -1.5133  0.3741  1.7233
  112MOL    C9813640   4.608   4.101   3.423  0.1308  0.3058 -0.4206
  112MOL    C9913641   4.458   4.130   3.438 -0.0637  0.4042  0.1707
  112MOL  Cl10013642   4.416   4.282   3.362 -0.1002  0.2551 -0.1104
  112MOL   H10113643   4.648   4.185   3.479  1.7796 -1.7587  1.5755
  112MOL   H10213644   4.635   4.009   3.474  1.6808 -0.4794 -2.5651
  112MOL   H10313645   4.404   4.056   3.379  3.0739 -1.6762 -0.2524
  112MOL   C10413646   4.410   4.130   3.584  0.2499  0.2348 -0.2663
  112MOL   C10513647   4.441   4.014   3.679  0.1574 -0.8654 -0.2516
  112MOL  Cl10613648   4.417   3.869   3.576 -0.0825  0.0746 -0.1370
  112MOL   H10713649   4.302   4.145   3.583  0.3003  0.6894  0.5196
  112MOL   H10813650   4.441   4.222   3.634  0.9269  1.2071 -2.4156
  112MOL   H10913651   4.546   4.024   3.709  0.2002  1.0828 -0.9749
  112MOL   C11013652   4.353   4.009   3.798  0.6412 -0.2931 -0.2235
  112MOL   C11113653   4.411   4.079   3.923  0.0795 -0.3792  0.5122
  112MOL  Cl11213654   4.306   4.038   4.060 -0.2361  0.3035 -0.1388
  112MOL   H11313655   4.343   3.906   3.833  2.3170 -0.6653 -0.7639
  112MOL   H11413656   4.250   4.042   3.784  0.7775 -0.2374 -1.1606
  112MOL   H11513657   4.504   4.025   3.942 -0.0162 -1.4705 -1.9436
  112MOL   C11613658   4.420   4.232   3.907 -0.5844 -0.2704 -0.1018
  112MOL   C11713659   4.283   4.297   3.889  0.0472 -0.3836 -0.6709
  112MOL  Cl11813660   4.301   4.472   3.856  0.1457  0.3695  0.3060
  112MOL   H11913661   4.490   4.266   3.831 -2.3990  0.4582 -1.5082
  112MOL   H12013662   4.466   4.262   4.001  1.6631 -2.6267 -0.3994
  112MOL   H12113663   4.210   4.258   3.819  0.3064 -0.3281 -0.9735
  112MOL   H12213664   4.230   4.301   3.984  0.4956 -1.3413 -0.3738
  113MOL     C113665   2.318   4.135   3.043 -0.0808 -0.2639 -0.4852
  113MOL     C213666   2.359   3.996   2.999 -0.1190  0.3023 -0.0155
  113MOL    Cl313667   2.495   4.006   2.873  0.3386 -0.5034 -0.1902
  113MOL     H413668   2.403   4.199   3.067 -0.6440  1.7626 -3.6474
  113MOL     H513669   2.260   4.188   2.967 -0.8336 -0.8460 -0.3173
  113MOL     H613670   2.401   3.940   3.083 -2.3807 -0.2062  0.8143
  113MOL     H713671   2.259   4.130   3.135 -0.0555 -0.8864 -0.4998
  113MOL     C813672   2.242   3.912   2.953 -0.1136  0.1716 -0.8509
  113MOL     C913673   2.275   3.777   2.891 -0.7038 -0.2555  0.6929
  113MOL   Cl1013674   2.306   3.772   2.712 -0.3184 -0.2744 -0.0943
  113MOL    H1113675   2.183   3.977   2.889 -0.5270 -0.1377 -0.7814
  113MOL    H1213676   2.182   3.891   3.041  1.4589  1.7467  0.6262
  113MOL    H1313677   2.376   3.754   2.925 -0.1711  1.7711  0.5041
  113MOL    C1413678   2.172   3.663   2.925 -0.6918 -0.5386  0.7055
  113MOL    C1513679   2.032   3.692   2.871 -0.8638  0.1541  0.1055
  113MOL   Cl1613680   1.931   3.805   2.969 -0.1336  0.0184 -0.2201
  113MOL    H1713681   2.176   3.655   3.034  2.3301 -3.5451  0.4523
  113MOL    H1813682   2.218   3.572   2.888 -0.3107  0.1087 -0.4362
  113MOL    H1913683   2.040   3.744   2.776 -0.4654 -4.1483 -2.3601
  113MOL    C2013684   1.951   3.564   2.855  0.2424  0.3927  0.4621
  113MOL    C2113685   1.923   3.481   2.983 -0.0347  0.5866  0.3847
  113MOL   Cl2213686   2.066   3.386   3.020 -0.0537 -0.0743 -0.1375
  113MOL    H2313687   1.997   3.511   2.772 -3.6279  0.1900 -1.7028
  113MOL    H2413688   1.853   3.584   2.812 -1.3885  0.5245  4.0407
  113MOL    H2513689   1.895   3.535   3.073 -2.3228 -0.6025  0.4213
  113MOL    C2613690   1.821   3.372   2.956  0.0554 -0.5932 -0.3859
  113MOL    C2713691   1.798   3.268   3.076 -0.2646  0.5740  0.0344
  113MOL   Cl2813692   1.662   3.164   3.021  0.3010 -0.2876 -0.0384
  113MOL    H2913693   1.862   3.312   2.875  0.1360 -0.0053 -0.7853
  113MOL    H3013694   1.720   3.405   2.931  0.7693  0.2921 -2.2348
  113MOL    H3113695   1.886   3.205   3.078  0.3695  1.4752  3.6131
  113MOL    C3213696   1.770   3.334   3.215  0.2911 -0.4708 -0.3943
  113MOL    C3313697   1.772   3.232   3.334 -0.3083  0.2364 -1.1097
  113MOL   Cl3413698   1.935   3.165   3.340 -0.0902 -0.1386 -0.5531
  113MOL    H3513699   1.680   3.396   3.209  0.6040  0.1098  0.8397
  113MOL    H3613700   1.846   3.409   3.235 -0.0328  0.1902 -1.5570
  113MOL    H3713701   1.765   3.295   3.423 -0.0290 -0.0081 -0.9152
  113MOL    C3813702   1.657   3.126   3.336  0.3713  0.5883 -0.3559
  113MOL    C3913703   1.509   3.169   3.320  0.6365 -0.2851  0.1261
  113MOL   Cl4013704   1.441   3.241   3.469 -0.2272 -0.4224  0.0461
  113MOL    H4113705   1.659   3.063   3.426 -1.9940  1.0609  0.0818
  113MOL    H4213706   1.680   3.052   3.260  0.0581  0.8464 -0.7013
  113MOL    H4313707   1.502   3.252   3.249  0.1061  0.2108  0.7540
  113MOL    C4413708   1.431   3.044   3.280  0.0631 -0.2887  0.8855
  113MOL    C4513709   1.290   3.078   3.222  0.0178 -0.3146 -0.3237
  113MOL   Cl4613710   1.223   2.920   3.185 -0.2051 -0.3712  0.0983
  113MOL    H4713711   1.426   2.971   3.362 -0.5607 -0.0374  1.0782
  113MOL    H4813712   1.491   2.991   3.207  1.0531 -0.9676  2.1606
  113MOL    H4913713   1.227   3.119   3.301 -0.7032 -3.6825  0.9446
  113MOL    C5013714   1.301   3.159   3.092 -0.4219  0.0225 -0.5915
  113MOL    C5113715   1.163   3.182   3.024  0.3695  0.1664  0.1866
  113MOL   Cl5213716   1.193   3.165   2.850  0.0545  0.1211 -0.0984
  113MOL    H5313717   1.363   3.115   3.013  1.2790 -0.9089  1.2320
  113MOL    H5413718   1.343   3.257   3.116 -0.8035  0.2855 -0.9943
  113MOL    H5513719   1.101   3.099   3.057  0.2713 -0.0318 -0.5090
  113MOL    C5613720   1.092   3.318   3.053  0.7183  0.4892 -0.0820
  113MOL    C5713721   1.074   3.342   3.202 -0.1450 -0.6486  0.3128
  113MOL   Cl5813722   0.985   3.201   3.270  0.0805 -0.1378  0.0307
  113MOL    H5913723   0.991   3.302   3.017  0.4162  2.4128 -0.1035
  113MOL    H6013724   1.135   3.403   3.001 -1.6057  1.0389 -1.1492
  113MOL    H6113725   1.176   3.347   3.239  0.4890 -0.7773 -1.3826
  113MOL    C6213726   1.005   3.475   3.237  0.2445  0.4493  0.2600
  113MOL    C6313727   1.096   3.603   3.221 -0.0218  0.2192  0.6760
  113MOL   Cl6413728   1.230   3.597   3.341  0.1081  0.3123  0.3289
  113MOL    H6513729   0.963   3.467   3.337 -0.7480 -0.5732 -0.2276
  113MOL    H6613730   0.920   3.476   3.169 -0.6436  0.7774  1.3605
  113MOL    H6713731   1.136   3.616   3.121 -0.3778 -2.2571  0.1827
  113MOL    C6813732   1.017   3.731   3.247  0.3705  0.3250  0.0158
  113MOL    C6913733   0.925   3.778   3.130 -0.4692  0.8451  0.2093
  113MOL   Cl7013734   1.026   3.857   3.002 -0.1429  0.1301  0.2117
  113MOL    H7113735   1.085   3.810   3.279 -0.8034  0.4942  2.1808
  113MOL    H7213736   0.959   3.715   3.338  1.1506  1.3193  0.7031
  113MOL    H7313737   0.882   3.697   3.071  1.4592  0.4695 -0.7529
  113MOL    C7413738   0.825   3.883   3.178 -0.0994  0.2036 -0.5748
  113MOL    C7513739   0.698   3.835   3.253 -0.1968 -0.0793  1.0975
  113MOL   Cl7613740   0.604   3.738   3.152 -0.1330 -0.0648  0.1424
  113MOL    H7713741   0.789   3.940   3.092  3.3906 -0.8399 -2.8571
  113MOL    H7813742   0.888   3.951   3.235  1.0501 -1.2708 -0.0678
  113MOL    H7913743   0.735   3.779   3.338  0.0353 -0.9252  0.4436
  113MOL    C8013744   0.617   3.948   3.308  0.9986  0.7555  0.3321
  113MOL    C8113745   0.503   3.916   3.409  0.0583 -0.0447 -0.3727
  113MOL   Cl8213746   0.404   4.060   3.441 -0.1830 -0.3797 -0.2814
  113MOL    H8313747   0.577   4.001   3.222 -1.2958  0.6295  1.2657
  113MOL    H8413748   0.687   4.024   3.343  0.5654 -0.0419  3.0645
  113MOL    H8513749   0.442   3.835   3.368 -1.3040  1.5218 -1.5089
  113MOL    C8613750   0.558   3.869   3.542 -0.5070  0.2029  0.3263
  113MOL    C8713751   0.456   3.807   3.649 -0.2110 -0.1829  0.8740
  113MOL   Cl8813752   0.555   3.760   3.796 -0.4024  0.0483 -0.6674
  113MOL    H8913753   0.610   3.955   3.582  1.3576 -2.3639  3.7054
  113MOL    H9013754   0.639   3.798   3.525  0.4303  1.2807  0.2346
  113MOL    H9113755   0.393   3.886   3.689 -1.7643 -0.7421 -0.4120
  113MOL    C9213756   0.379   3.685   3.604 -0.3416  0.4649  0.3207
  113MOL    C9313757   0.316   3.584   3.704 -1.0197 -0.7114 -0.8922
  113MOL   Cl9413758   0.203   3.477   3.616  0.4142  0.1797  0.0888
  113MOL    H9513759   0.447   3.635   3.535 -0.0404  1.5469 -0.1691
  113MOL    H9613760   0.302   3.715   3.534  1.4782 -0.2825 -2.0616
  113MOL    H9713761   0.392   3.519   3.749  0.9158  1.2421 -1.2621
  113MOL    C9813762   0.233   3.651   3.818 -0.6245  0.0234  0.5449
  113MOL    C9913763   0.133   3.577   3.907 -0.0028  0.3561  0.5336
  113MOL  Cl10013764   0.066   3.685   4.028 -0.2878  0.1228 -0.5416
  113MOL   H10113765   0.172   3.729   3.774 -0.7891 -0.3867  0.0456
  113MOL   H10213766   0.298   3.702   3.890 -2.3632 -1.2603  3.0879
  113MOL   H10313767   0.053   3.549   3.839  0.7114  1.1679 -0.6647
  113MOL   C10413768   0.184   3.446   3.973 -0.6343  0.4813 -0.3840
  113MOL   C10513769   0.084   3.371   4.067 -0.6443 -0.5411 -0.0312
  113MOL  Cl10613770   0.170   3.235   4.143  0.1085  0.2091  0.2303
  113MOL   H10713771   0.275   3.478   4.025  1.3578 -2.0178 -2.2629
  113MOL   H10813772   0.236   3.390   3.896 -0.6346  1.4506 -1.0979
  113MOL   H10913773   0.052   3.433   4.151  0.3293 -0.1725  0.0720
  113MOL   C11013774   8.476   3.325   3.993 -0.2171  0.3329  0.0833
  113MOL   C11113775   8.487   3.270   3.855 -0.9363  0.9987 -0.5683
  113MOL  Cl11213776   8.317   3.228   3.811  0.2669 -0.2742 -0.4257
  113MOL   H11313777   8.405   3.407   3.988  0.0056  0.6678  2.2238
  113MOL   H11413778   8.423   3.254   4.056 -0.2215 -1.2981 -1.6917
  113MOL   H11513779   8.525   3.350   3.792  1.5880  0.9588  0.8109
  113MOL   C11613780   0.053   3.153   3.839 -0.2579  0.0052  0.7132
  113MOL   C11713781   0.098   3.114   3.694  0.1876 -0.0854 -0.7231
  113MOL  Cl11813782   0.163   2.946   3.672 -0.0092 -0.0923  0.1530
  113MOL   H11913783   0.011   3.061   3.881 -0.7215 -0.1715 -0.1344
  113MOL   H12013784   0.148   3.161   3.893 -0.0225 -2.6595  0.7827
  113MOL   H12113785   0.011   3.113   3.628  0.0797 -1.5942 -0.5680
  113MOL   H12213786   0.169   3.189   3.657 -1.5789  1.6058 -0.7562
  114MOL     C113787   1.486   2.896   0.338  0.5566 -0.2296  0.1727
  114MOL     C213788   1.534   2.747   0.345  0.2407  1.5787  0.3592
  114MOL    Cl313789   1.394   2.660   0.284 -0.3513 -0.0216  0.1452
  114MOL     H413790   1.564   2.960   0.379 -0.3238  0.4231  0.8586
  114MOL     H513791   1.468   2.928   0.235  0.4272 -1.6392 -0.2551
  114MOL     H613792   1.610   2.740   0.267  0.3838  0.5159  0.5821
  114MOL     H713793   1.398   2.934   0.389 -0.1194 -0.0126 -1.1227
  114MOL     C813794   1.568   2.702   0.485  0.1050 -0.2680 -0.8150
  114MOL     C913795   1.598   2.554   0.496 -0.3802  0.2151 -1.0034
  114MOL   Cl1013796   1.630   2.511   0.669  0.2316  0.1072 -0.2799
  114MOL    H1113797   1.484   2.741   0.542  1.0437  0.5346  0.0379
  114MOL    H1213798   1.654   2.757   0.522 -0.6802  0.7220 -0.4376
  114MOL    H1313799   1.513   2.491   0.471  0.5423 -0.9649 -1.2097
  114MOL    C1413800   1.722   2.502   0.416  0.0276  0.4460  0.2114
  114MOL    C1513801   1.725   2.355   0.365  0.6749  0.4154  0.0691
  114MOL   Cl1613802   1.882   2.322   0.295  0.1364 -0.0724 -0.3697
  114MOL    H1713803   1.812   2.537   0.466  1.1867  0.3289 -1.7647
  114MOL    H1813804   1.720   2.566   0.328 -1.1421  1.1777  0.7501
  114MOL    H1913805   1.720   2.282   0.446  0.3982 -1.0658 -1.2606
  114MOL    C2013806   1.616   2.323   0.252 -0.4581  0.0834 -0.2059
  114MOL    C2113807   1.551   2.179   0.262  0.1935  0.8984 -0.5403
  114MOL   Cl2213808   1.689   2.054   0.253 -0.1499 -0.2695  0.1134
  114MOL    H2313809   1.652   2.328   0.150 -1.3530  0.4447 -0.5121
  114MOL    H2413810   1.540   2.401   0.258 -0.3483  0.1375  0.5175
  114MOL    H2513811   1.512   2.173   0.364 -0.1976 -1.8305 -0.8251
  114MOL    C2613812   1.440   2.162   0.157 -0.6876 -0.6633 -0.1467
  114MOL    C2713813   1.344   2.050   0.195 -0.3007 -0.2624 -0.2884
  114MOL   Cl2813814   1.420   1.888   0.196 -0.2864 -0.2587 -0.1341
  114MOL    H2913815   1.485   2.150   0.059  2.2432 -1.6612  1.2286
  114MOL    H3013816   1.389   2.258   0.158  1.2563  0.4352  2.2321
  114MOL    H3113817   1.328   2.077   0.299  2.3023  0.9356 -0.1492
  114MOL    C3213818   1.225   2.051   0.096  0.5780 -0.0697  0.9215
  114MOL    C3313819   1.097   1.976   0.136  0.4344 -0.5391 -0.7320
  114MOL   Cl3413820   0.951   2.059   0.070  0.4323  0.1272 -0.0368
  114MOL    H3513821   1.260   2.013   0.000 -0.3057 -0.2241  0.6541
  114MOL    H3613822   1.206   2.153   0.062  1.2455  0.9225  3.3905
  114MOL    H3713823   1.090   1.876   0.092  2.1854 -2.3917  3.0069
  114MOL    C3813824   1.069   1.955   0.291  0.4478 -0.6679 -0.3680
  114MOL    C3913825   0.931   1.896   0.326 -0.3225  0.3170 -0.6473
  114MOL   Cl4013826   0.908   1.903   0.507 -0.0844 -0.0485 -0.3241
  114MOL    H4113827   1.083   2.053   0.335 -2.4389 -0.8368  1.0559
  114MOL    H4213828   1.148   1.894   0.335  0.8505  0.9011  1.1548
  114MOL    H4313829   0.852   1.958   0.282  0.6023  1.8840 -0.1515
  114MOL    C4413830   0.916   1.750   0.289  0.9274 -0.5340 -0.0664
  114MOL    C4513831   0.772   1.686   0.313  0.0701  0.3142  0.5750
  114MOL   Cl4613832   0.785   1.511   0.312  0.1090  0.0218  0.0857
  114MOL    H4713833   1.002   1.698   0.332  0.9761 -0.3354  0.0781
  114MOL    H4813834   0.942   1.738   0.184 -0.2839 -0.2649 -0.4037
  114MOL    H4913835   0.722   1.716   0.405 -0.8192 -2.9177  1.2188
  114MOL    C5013836   0.671   1.725   0.198 -0.5685  0.2711  0.1796
  114MOL    C5113837   0.523   1.672   0.203 -0.3786 -0.3999  0.1223
  114MOL   Cl5213838   0.449   1.704   0.048 -0.0253  0.0878 -0.0621
  114MOL    H5313839   0.721   1.705   0.103  0.9302 -2.6552  1.5048
  114MOL    H5413840   0.666   1.833   0.200  0.0289  0.3199 -0.6182
  114MOL    H5513841   0.523   1.563   0.205  0.5536 -0.3957  0.7314
  114MOL    C5613842   0.431   1.726   0.313  0.2793  0.2366  0.3543
  114MOL    C5713843   0.311   1.641   0.332 -0.3119  0.3648  0.0992
  114MOL   Cl5813844   0.367   1.481   0.386 -0.1767 -0.1770 -0.4473
  114MOL    H5913845   0.410   1.829   0.285  2.9648  0.3526 -1.3758
  114MOL    H6013846   0.491   1.736   0.403  1.3996  1.7390 -0.5586
  114MOL    H6113847   0.267   1.671   0.427  2.5490 -2.1409  2.3699
  114MOL    C6213848   0.202   1.629   0.216  0.3760  0.3444  0.1052
  114MOL    C6313849   0.145   1.771   0.181  0.0395  0.1530 -0.2376
  114MOL   Cl6413850   0.074   1.854   0.327  0.2515 -0.0957  0.1815
  114MOL    H6513851   0.118   1.570   0.251  0.5224  0.0006 -0.1244
  114MOL    H6613852   0.240   1.586   0.123 -1.2661 -0.3169 -0.2763
  114MOL    H6713853   0.233   1.829   0.152  1.2731 -2.4164 -1.8124
  114MOL    C6813854   0.041   1.773   0.074 -0.2046  0.3503 -0.1361
  114MOL    C6913855   0.031   1.902   0.003  0.0196  0.9583  0.4169
  114MOL   Cl7013856   8.414   1.893   8.428 -0.0268  0.0060 -0.3352
  114MOL    H7113857   8.476   1.747   0.131 -1.1608  3.6242 -0.0476
  114MOL    H7213858   0.065   1.684   0.016  2.1339  0.1753  1.0731
  114MOL    H7313859   0.022   1.988   0.069  0.9141  0.4443  1.2211
  114MOL    C7413860   0.158   1.944   8.442  0.4867  0.0386  0.3154
  114MOL    C7513861   0.207   1.846   8.329 -0.0902  0.1515  0.3295
  114MOL   Cl7613862   0.344   1.928   8.250 -0.2687  0.1247 -0.0155
  114MOL    H7713863   0.246   1.968   8.503  2.0120 -1.3361 -1.2799
  114MOL    H7813864   0.121   2.041   8.408  1.6009  0.4240  0.1622
  114MOL    H7913865   0.235   1.749   8.371  0.3198 -1.5822 -3.6178
  114MOL    C8013866   0.106   1.822   8.217 -0.2325 -0.4606  0.1162
  114MOL    C8113867   0.158   1.773   8.077 -1.4144  0.7163 -0.1528
  114MOL   Cl8213868   0.025   1.747   7.962  0.1123  0.1139 -0.1578
  114MOL    H8313869   0.046   1.912   8.205  0.0187  0.0703  2.5997
  114MOL    H8413870   0.042   1.741   8.252 -2.5260  1.7167  1.0451
  114MOL    H8513871   0.221   1.854   8.040 -0.3209 -0.2033 -0.3327
  114MOL    C8613872   0.238   1.646   8.089 -0.5127 -0.9551  0.3341
  114MOL    C8713873   0.295   1.607   7.953 -0.4414  0.0156 -0.5162
  114MOL   Cl8813874   0.322   1.430   7.965 -0.0339 -0.0204 -0.0669
  114MOL    H8913875   0.172   1.569   8.130  1.1131 -1.3448  2.2762
  114MOL    H9013876   0.315   1.647   8.165  1.9487  2.0612 -2.0803
  114MOL    H9113877   0.233   1.624   7.866  0.8758  2.4734 -1.0131
  114MOL    C9213878   0.435   1.667   7.916  0.3580 -0.0818  0.1300
  114MOL    C9313879   0.453   1.818   7.869  0.1155  0.2797 -0.2784
  114MOL   Cl9413880   0.341   1.865   7.738  0.1717  0.1149  0.0352
  114MOL    H9513881   0.474   1.599   7.840 -0.9858 -1.8840  1.0074
  114MOL    H9613882   0.493   1.642   8.005  0.1007 -0.8862  0.0724
  114MOL    H9713883   0.434   1.884   7.954 -0.0411  0.5826 -0.5486
  114MOL    C9813884   0.598   1.849   7.813  0.4748  0.2175  0.1562
  114MOL    C9913885   0.719   1.809   7.892 -0.3904 -0.0324  0.3255
  114MOL  Cl10013886   0.726   1.901   8.051  0.1066  0.3823  0.3527
  114MOL   H10113887   0.616   1.946   7.768  0.1100 -0.7735 -2.1961
  114MOL   H10213888   0.594   1.784   7.726 -1.4590 -0.7607  0.9436
  114MOL   H10313889   0.712   1.706   7.927  1.6093 -0.0769  0.6640
  114MOL   C10413890   0.855   1.816   7.810 -0.6211  0.2036  0.4765
  114MOL   C10513891   0.953   1.702   7.838  0.1968  0.5865 -0.7312
  114MOL  Cl10613892   1.009   1.714   8.008  0.2994 -0.1425 -0.3346
  114MOL   H10713893   0.908   1.910   7.828  1.5136 -0.4168 -2.2778
  114MOL   H10813894   0.838   1.811   7.702 -1.4033 -0.4911  0.6252
  114MOL   H10913895   0.892   1.612   7.833 -1.1192  1.4858 -1.0843
  114MOL   C11013896   1.075   1.705   7.748 -0.5207 -0.2597 -0.5146
  114MOL   C11113897   1.049   1.650   7.604 -0.4252  0.1402  0.2672
  114MOL  Cl11213898   1.019   1.472   7.606  0.3371 -0.3982  0.0554
  114MOL   H11313899   1.159   1.653   7.794  0.3342  1.3353 -0.2089
  114MOL   H11413900   1.114   1.807   7.748  0.1664 -0.5040  0.7567
  114MOL   H11513901   0.965   1.693   7.551  0.9581  0.6447 -1.5834
  114MOL   C11613902   1.172   1.671   7.512 -0.2474  0.2484 -0.2502
  114MOL   C11713903   1.225   1.821   7.486 -0.0917 -0.3930  0.5381
  114MOL  Cl11813904   1.356   1.829   7.367 -0.1976  0.1555 -0.2992
  114MOL   H11913905   1.148   1.626   7.416  2.4432  3.6528 -2.6594
  114MOL   H12013906   1.248   1.604   7.553  0.9874  2.1587  0.6936
  114MOL   H12113907   1.144   1.883   7.448  0.5083 -0.8758 -1.5910
  114MOL   H12213908   1.272   1.865   7.574  3.3240 -0.6399 -1.0594
  115MOL     C113909   3.845   2.722   0.734  0.6972  0.3089  0.2284
  115MOL     C213910   3.989   2.687   0.697 -0.3262 -0.1409  0.5646
  115MOL    Cl313911   4.013   2.741   0.528 -0.8007  0.0474  0.0650
  115MOL     H413912   3.818   2.686   0.833  3.4128  1.4025  1.4091
  115MOL     H513913   3.820   2.829   0.737 -0.3601  0.0840 -0.2664
  115MOL     H613914   4.045   2.745   0.771  1.3423 -0.4246 -0.4644
  115MOL     H713915   3.768   2.684   0.667  0.2612  0.5616  0.5774
  115MOL     C813916   4.025   2.537   0.705  0.0382  0.2448 -0.3970
  115MOL     C913917   4.178   2.516   0.715  0.5549 -0.6475 -0.6630
  115MOL   Cl1013918   4.187   2.340   0.726 -0.1824 -0.3904  0.0805
  115MOL    H1113919   3.993   2.489   0.612 -0.3592  1.7591 -1.0522
  115MOL    H1213920   3.969   2.485   0.782 -0.9563  2.0951  0.1454
  115MOL    H1313921   4.226   2.552   0.623 -0.4122 -1.5934 -1.5451
  115MOL    C1413922   4.251   2.579   0.831 -0.3391  0.5416  0.1086
  115MOL    C1513923   4.398   2.540   0.844 -0.5903  0.2713 -0.5924
  115MOL   Cl1613924   4.457   2.538   1.011  0.5136 -0.0088 -0.0927
  115MOL    H1713925   4.202   2.536   0.919  1.4108 -1.2398  0.2576
  115MOL    H1813926   4.246   2.688   0.827 -0.2560  0.5820  1.0012
  115MOL    H1913927   4.426   2.439   0.812  0.0932  0.5403 -0.8416
  115MOL    C2013928   4.489   2.620   0.750  0.2469 -0.0291  0.3458
  115MOL    C2113929   4.520   2.546   0.614  0.8039 -1.0579 -0.2574
  115MOL   Cl2213930   4.655   2.428   0.639  0.1136  0.1170  0.4454
  115MOL    H2313931   4.590   2.633   0.789  0.6712  3.4390 -1.6582
  115MOL    H2413932   4.451   2.718   0.722  0.6287  0.1925  0.5962
  115MOL    H2513933   4.429   2.494   0.586 -0.0045  0.6322 -0.8512
  115MOL    C2613934   4.559   2.637   0.496  0.4345 -0.2968 -0.1365
  115MOL    C2713935   4.700   2.697   0.500 -0.3755 -0.5769  0.6994
  115MOL   Cl2813936   4.704   2.829   0.626  0.1138  0.0648  0.0187
  115MOL    H2913937   4.480   2.710   0.483  0.3758  0.3629  3.4028
  115MOL    H3013938   4.546   2.581   0.403 -1.4862  0.7196 -0.5018
  115MOL    H3113939   4.766   2.616   0.532 -0.8886 -0.9634  0.7794
  115MOL    C3213940   4.761   2.750   0.370 -0.2472 -0.0054 -0.8467
  115MOL    C3313941   4.919   2.751   0.362 -0.1318 -0.3003  0.3602
  115MOL   Cl3413942   4.988   2.598   0.434  0.1432  0.2571 -0.5827
  115MOL    H3513943   4.727   2.850   0.344  1.5133  0.9641  0.4620
  115MOL    H3613944   4.738   2.677   0.293  1.0541 -1.2924 -0.0412
  115MOL    H3713945   4.949   2.748   0.258 -0.5291  3.2345  0.0775
  115MOL    C3813946   4.995   2.868   0.425 -0.4448 -0.2682 -0.1007
  115MOL    C3913947   4.980   2.997   0.346  0.1660  0.0757  0.7230
  115MOL   Cl4013948   5.042   2.978   0.175 -0.0517 -0.0619 -0.2592
  115MOL    H4113949   5.101   2.843   0.424 -0.2994  0.0660  2.6589
  115MOL    H4213950   4.959   2.881   0.527 -3.1824 -1.7269 -0.8255
  115MOL    H4313951   4.873   3.016   0.341  0.1874  0.4262  1.5540
  115MOL    C4413952   5.058   3.114   0.405  0.7870 -0.0801  0.3283
  115MOL    C4513953   5.005   3.250   0.356 -0.2829  0.3529 -0.4729
  115MOL   Cl4613954   5.072   3.378   0.456 -0.4474 -0.0009 -0.2778
  115MOL    H4713955   5.161   3.107   0.369  1.0287  2.9835  0.2642
  115MOL    H4813956   5.066   3.107   0.513 -1.9247 -0.6625  0.5367
  115MOL    H4913957   5.038   3.277   0.256  2.4403  2.1745  0.8541
  115MOL    C5013958   4.851   3.263   0.346 -0.1156 -0.1948 -0.0341
  115MOL    C5113959   4.774   3.230   0.478  0.5968 -0.2399 -0.2724
  115MOL   Cl5213960   4.634   3.113   0.450 -0.3168 -0.1985  0.1564
  115MOL    H5313961   4.808   3.213   0.260  1.5761 -0.1642 -0.9246
  115MOL    H5413962   4.834   3.367   0.319  1.3423  0.3615  1.1071
  115MOL    H5513963   4.852   3.189   0.542 -0.5691 -1.6834  0.2803
  115MOL    C5613964   4.711   3.359   0.535 -0.4025 -0.0334 -0.4479
  115MOL    C5713965   4.663   3.377   0.682 -0.0764  0.3377 -0.3853
  115MOL   Cl5813966   4.819   3.342   0.774  0.3077 -0.0939 -0.4879
  115MOL    H5913967   4.635   3.386   0.462  2.3512  2.4717 -2.5452
  115MOL    H6013968   4.786   3.437   0.523 -0.0788 -0.4161 -0.9387
  115MOL    H6113969   4.633   3.480   0.698  1.0402  0.5637  0.3336
  115MOL    C6213970   4.550   3.280   0.736  0.4293  0.3031  0.1785
  115MOL    C6313971   4.472   3.338   0.856 -0.8111  0.0933 -0.3516
  115MOL   Cl6413972   4.389   3.479   0.788 -0.3020 -0.2482  0.2587
  115MOL    H6513973   4.591   3.181   0.754 -0.5435 -0.7333 -2.9433
  115MOL    H6613974   4.487   3.260   0.649 -1.3241 -0.4072  1.5933
  115MOL    H6713975   4.388   3.276   0.887 -0.2816 -0.4860 -0.0728
  115MOL    C6813976   4.556   3.386   0.976 -0.7306 -0.4743  0.8623
  115MOL    C6913977   4.474   3.404   1.113 -0.1616 -0.0805  0.0914
  115MOL   Cl7013978   4.400   3.248   1.163  0.6242 -0.1648 -0.0906
  115MOL    H7113979   4.613   3.475   0.953 -0.7305 -0.7098 -0.0448
  115MOL    H7213980   4.619   3.298   0.985  1.0287  0.5136 -1.5238
  115MOL    H7313981   4.551   3.432   1.185 -0.3568  1.5847 -0.3081
  115MOL    C7413982   4.358   3.503   1.104 -0.4487 -0.2901  0.1765
  115MOL    C7513983   4.296   3.549   1.246 -0.7244 -0.1895 -0.5280
  115MOL   Cl7613984   4.119   3.591   1.219 -0.0299 -0.1373  0.1138
  115MOL    H7713985   4.286   3.452   1.040  0.5087 -1.9902  0.4309
  115MOL    H7813986   4.384   3.588   1.040  0.5874 -0.7278  0.0018
  115MOL    H7913987   4.300   3.465   1.316  0.2503 -0.2757 -0.6718
  115MOL    C8013988   4.363   3.664   1.314 -0.3380 -0.5113  1.0031
  115MOL    C8113989   4.505   3.642   1.371  0.4008  0.4639  0.1102
  115MOL   Cl8213990   4.499   3.512   1.493 -0.4845  0.0274  0.0746
  115MOL    H8313991   4.306   3.706   1.396 -0.7069  1.2631 -0.1321
  115MOL    H8413992   4.377   3.741   1.238 -1.4440 -0.1862  1.1237
  115MOL    H8513993   4.573   3.621   1.288  0.7032  0.8587  0.2533
  115MOL    C8613994   4.553   3.763   1.451 -0.2391 -0.4484 -0.0354
  115MOL    C8713995   4.591   3.889   1.370 -0.1387 -0.0354  0.4274
  115MOL   Cl8813996   4.728   3.847   1.261  0.4589  0.2594 -0.1098
  115MOL    H8913997   4.635   3.736   1.517  0.3153 -1.6032 -1.1665
  115MOL    H9013998   4.462   3.793   1.504  0.3423 -0.5797  1.0440
  115MOL    H9113999   4.509   3.912   1.302 -0.0328 -1.0127 -0.0321
  115MOL    C9214000   4.642   4.007   1.455 -0.0085 -0.8303  0.3402
  115MOL    C9314001   4.639   4.145   1.375  0.5043 -0.1093 -0.0547
  115MOL   Cl9414002   4.792   4.235   1.408  0.2082 -0.1623  0.0484
  115MOL    H9514003   4.736   3.975   1.500  2.1214  0.9310 -2.7076
  115MOL    H9614004   4.570   4.019   1.537 -1.2478  0.0415 -0.8536
  115MOL    H9714005   4.632   4.138   1.266 -2.0566  0.3100  0.0590
  115MOL    C9814006   4.518   4.239   1.418  0.4879 -0.5236  0.0592
  115MOL    C9914007   4.383   4.195   1.371 -0.0932 -0.0346 -0.3731
  115MOL  Cl10014008   4.354   4.225   1.192 -0.3185 -0.5162  0.1271
  115MOL   H10114009   4.533   4.340   1.379  1.7829 -0.4265  0.8225
  115MOL   H10214010   4.533   4.250   1.525  3.2898 -0.8150 -0.2826
  115MOL   H10314011   4.377   4.088   1.386  0.2287  0.2837  2.2404
  115MOL   C10414012   4.272   4.266   1.444 -0.0022  0.4834 -0.6699
  115MOL   C10514013   4.252   4.213   1.590 -0.4409 -0.0893 -0.0136
  115MOL  Cl10614014   4.197   4.044   1.589  0.3176  0.4134 -0.3859
  115MOL   H10714015   4.185   4.251   1.381 -0.0030  0.0650 -0.5731
  115MOL   H10814016   4.293   4.373   1.445 -1.9624  0.8839  1.8208
  115MOL   H10914017   4.344   4.212   1.648  0.5017  1.3829 -1.4322
  115MOL   C11014018   4.142   4.299   1.670  0.0279  0.7209 -0.5892
  115MOL   C11114019   4.169   4.444   1.712 -0.8143  0.2222 -0.1950
  115MOL  Cl11214020   4.333   4.458   1.771  0.1628  0.0391 -0.2877
  115MOL   H11314021   4.124   4.250   1.766  1.1230 -0.1657 -0.8286
  115MOL   H11414022   4.048   4.294   1.616  1.0398 -1.9811 -2.2212
  115MOL   H11514023   4.154   4.510   1.627  1.1462  0.3437 -0.4783
  115MOL   C11614024   4.072   4.508   1.814 -0.4627 -0.5129 -0.0317
  115MOL   C11714025   4.055   4.445   1.955 -0.0709  0.3264 -1.1270
  115MOL  Cl11814026   3.904   4.510   2.030  0.0461  0.0800  0.4209
  115MOL   H11914027   3.972   4.513   1.771 -0.1053  1.1109 -0.7350
  115MOL   H12014028   4.104   4.612   1.808  1.2325 -0.9345  1.4672
  115MOL   H12114029   4.041   4.337   1.950 -0.5512  0.4199 -1.9527
  115MOL   H12214030   4.130   4.462   2.033 -0.4126 -1.4667 -0.3761
  116MOL     C114031   3.801   0.386   4.566  0.4599 -0.9093  0.3968
  116MOL     C214032   3.715   0.296   4.474 -0.0582  0.1479  0.4925
  116MOL    Cl314033   3.683   0.140   4.553  0.1656 -0.1445  0.0428
  116MOL     H414034   3.805   0.481   4.514 -2.3551 -0.4921  0.9091
  116MOL     H514035   3.761   0.413   4.663  1.2473 -0.2741  0.5469
  116MOL     H614036   3.620   0.346   4.457  0.4378  1.1904  0.7315
  116MOL     H714037   3.902   0.348   4.584 -0.1430 -2.3910  0.7931
  116MOL     C814038   3.788   0.261   4.343  0.2713 -0.9066 -0.0158
  116MOL     C914039   3.702   0.215   4.220  0.7906  0.5463 -0.5959
  116MOL   Cl1014040   3.791   0.090   4.124 -0.0295 -0.1636 -0.1765
  116MOL    H1114041   3.864   0.186   4.368  0.8210 -0.4927 -0.4408
  116MOL    H1214042   3.840   0.353   4.317 -0.4619 -0.5593 -0.2639
  116MOL    H1314043   3.614   0.169   4.264  0.5631  1.5256 -0.0064
  116MOL    C1414044   3.664   0.331   4.128 -0.4482  0.5279  0.4572
  116MOL    C1514045   3.562   0.292   4.010  0.3010  0.3435  0.1016
  116MOL   Cl1614046   3.537   0.433   3.907  0.1802  0.2096  0.2166
  116MOL    H1714047   3.757   0.352   4.076  0.0162 -0.5177  0.8462
  116MOL    H1814048   3.628   0.417   4.184 -2.1774  0.3763 -0.3590
  116MOL    H1914049   3.617   0.223   3.945  2.1786  0.8687  1.0914
  116MOL    C2014050   3.421   0.237   4.045 -0.1076 -0.1388  0.1391
  116MOL    C2114051   3.329   0.328   4.124  0.0864 -0.9717  1.0299
  116MOL   Cl2214052   3.400   0.342   4.286 -0.0576  0.1971 -0.3013
  116MOL    H2314053   3.431   0.141   4.095  0.0938  0.4665  1.2666
  116MOL    H2414054   3.370   0.221   3.949  1.2436 -0.0662 -0.5956
  116MOL    H2514055   3.340   0.428   4.082  2.7373 -1.9305 -0.7646
  116MOL    C2614056   3.187   0.268   4.119 -0.5230 -0.1595 -0.1946
  116MOL    C2714057   3.088   0.314   3.998 -0.2231 -0.3340 -0.5200
  116MOL   Cl2814058   3.034   0.484   4.017 -0.1240  0.3204  0.0867
  116MOL    H2914059   3.135   0.300   4.209  1.1542 -0.8820  1.0433
  116MOL    H3014060   3.197   0.159   4.126  2.8520  0.1157 -0.0055
  116MOL    H3114061   3.138   0.318   3.902  1.6046  0.6366  0.4530
  116MOL    C3214062   2.970   0.217   3.984  0.4025  0.1751 -0.2479
  116MOL    C3314063   3.005   0.067   3.949  0.2934  0.0710 -0.0588
  116MOL   Cl3414064   3.118   0.053   3.815  0.2100 -0.4401 -0.1952
  116MOL    H3514065   2.895   0.246   3.910 -0.1100 -1.1940 -0.2844
  116MOL    H3614066   2.922   0.212   4.081  0.0595 -2.1225 -0.5128
  116MOL    H3714067   3.070   0.024   4.025  1.5247  1.4951 -0.2908
  116MOL    C3814068   2.883   8.493   3.930 -0.3773 -0.3573 -0.5297
  116MOL    C3914069   2.802   8.498   4.061  0.0721  0.5048 -0.2149
  116MOL   Cl4014070   2.891   8.408   4.193  0.2554  0.3862  0.1622
  116MOL    H4114071   2.921   8.393   3.909  0.9765  0.1355 -0.5402
  116MOL    H4214072   2.831   8.511   3.836  0.2101  1.6475 -0.4957
  116MOL    H4314073   2.778   0.063   4.117 -2.7452 -1.2323  1.5411
  116MOL    C4414074   2.658   8.434   4.026 -0.0613 -0.4977 -0.2334
  116MOL    C4514075   2.571   8.523   3.933  0.2836  0.4317 -0.3524
  116MOL   Cl4614076   2.560   0.163   4.002 -0.1855  0.0020  0.2955
  116MOL    H4714077   2.606   8.402   4.116  2.8548 -2.3382  0.8944
  116MOL    H4814078   2.670   8.335   3.982  0.9142 -1.4323  2.0149
  116MOL    H4914079   2.612   0.023   3.836  0.2828 -0.9855 -0.7357
  116MOL    C5014080   2.431   8.470   3.910 -0.6310 -0.3542  0.4340
  116MOL    C5114081   2.421   8.341   3.829 -0.0916  0.5969 -0.6169
  116MOL   Cl5214082   2.472   8.360   3.657  0.0367  0.0022  0.1355
  116MOL    H5314083   2.369   0.014   3.854 -0.6132  0.0816  0.9506
  116MOL    H5414084   2.392   8.464   4.011 -0.4075  1.7809  0.6654
  116MOL    H5514085   2.504   8.284   3.872  0.6117  1.8904 -0.2517
  116MOL    C5614086   2.285   8.278   3.842  0.0172 -0.7640 -0.3220
  116MOL    C5714087   2.262   8.199   3.973 -0.1057 -0.7165 -0.3437
  116MOL   Cl5814088   2.384   8.066   3.980  0.2857  0.1830  0.3931
  116MOL    H5914089   2.270   8.206   3.762 -2.5869  0.2507 -0.7822
  116MOL    H6014090   2.201   8.348   3.839  0.6878  0.0787  0.2396
  116MOL    H6114091   2.290   8.265   4.055  0.8136  1.0974 -2.0654
  116MOL    C6214092   2.118   8.138   3.979 -0.5213  0.2774  1.0705
  116MOL    C6314093   1.997   8.228   4.008  0.5829  0.0793  0.0744
  116MOL   Cl6414094   2.015   8.301   4.168  0.4623  0.3483  0.0700
  116MOL    H6514095   2.127   8.060   4.055 -1.1407 -1.2270 -0.3853
  116MOL    H6614096   2.103   8.076   3.891 -2.2528 -1.2172  2.3916
  116MOL    H6714097   2.011   8.309   3.936 -0.3438  1.4108  1.3748
  116MOL    C6814098   1.854   8.169   3.989 -0.7982 -0.6378  0.5715
  116MOL    C6914099   1.820   8.108   3.853  0.4716 -0.4877 -0.4751
  116MOL   Cl7014100   1.897   8.216   3.726 -0.2501  0.1508  0.0837
  116MOL    H7114101   1.798   8.259   4.012  0.4813 -0.0520  1.4894
  116MOL    H7214102   1.826   8.107   4.074 -0.7618 -0.6625  0.5650
  116MOL    H7314103   1.858   8.006   3.840  0.7514 -0.6364  1.4208
  116MOL    C7414104   1.665   8.114   3.834  0.5910  0.1946  0.3398
  116MOL    C7514105   1.608   8.023   3.730 -0.2695  0.3737  0.3810
  116MOL   Cl7614106   1.444   8.074   3.685  0.0640  0.0176  0.4444
  116MOL    H7714107   1.642   8.215   3.801  1.3225  0.3188  0.1954
  116MOL    H7814108   1.608   8.108   3.927 -0.5025  0.7323 -0.2840
  116MOL    H7914109   1.680   8.018   3.648 -1.2566 -0.6239 -0.4301
  116MOL    C8014110   1.597   7.875   3.779  0.3953 -0.7250 -0.2777
  116MOL    C8114111   1.556   7.766   3.683  0.2078 -0.0731 -0.3489
  116MOL   Cl8214112   1.555   7.615   3.778  0.2310 -0.1359  0.1522
  116MOL    H8314113   1.524   7.872   3.860 -0.2550 -1.4799 -0.8803
  116MOL    H8414114   1.695   7.856   3.823  0.5372  0.9856  0.1615
  116MOL    H8514115   1.453   7.783   3.652 -0.2971 -0.2615  1.1627
  116MOL    C8614116   1.663   7.749   3.571 -0.0905 -0.6056 -0.1962
  116MOL    C8714117   1.658   7.631   3.477  0.1307 -0.2587  0.5569
  116MOL   Cl8814118   1.821   7.570   3.442  0.7170  0.3289 -0.2703
  116MOL    H8914119   1.760   7.741   3.622 -0.1972  1.0066  0.2736
  116MOL    H9014120   1.676   7.847   3.525  1.3153 -0.6068  0.1766
  116MOL    H9114121   1.622   7.541   3.527  2.2097 -0.3179  1.9950
  116MOL    C9214122   1.573   7.644   3.348 -0.4223 -0.7084 -0.0283
  116MOL    C9314123   1.430   7.709   3.378 -0.2894  0.0425  0.2091
  116MOL   Cl9414124   1.337   7.582   3.469  0.1806  0.3660  0.2479
  116MOL    H9514125   1.561   7.543   3.308  1.3345 -1.8757  2.2827
  116MOL    H9614126   1.619   7.702   3.268  1.2051  0.1483  1.5016
  116MOL    H9714127   1.436   7.801   3.436  1.2208 -0.7600  1.3577
  116MOL    C9814128   1.357   7.723   3.244  0.2238 -0.0158  0.0684
  116MOL    C9914129   1.407   7.813   3.138 -0.3080 -0.2457  0.5696
  116MOL  Cl10014130   1.433   7.984   3.204 -0.2270  0.0140 -0.6944
  116MOL   H10114131   1.252   7.745   3.266  0.5761 -1.5717  3.6565
  116MOL   H10214132   1.350   7.623   3.199 -1.2187  0.4146 -0.7004
  116MOL   H10314133   1.495   7.779   3.084 -0.8360 -3.5389  1.6642
  116MOL   C10414134   1.298   7.827   3.024  0.1633  0.2492 -0.2854
  116MOL   C10514135   1.341   7.863   2.876  0.2365  0.3736 -0.0278
  116MOL  Cl10614136   1.402   8.028   2.863  0.2158 -0.0409  0.1191
  116MOL   H10714137   1.222   7.899   3.053 -1.1484 -1.1977 -0.0708
  116MOL   H10814138   1.244   7.733   3.013 -2.3797  1.8375 -1.9193
  116MOL   H10914139   1.423   7.797   2.850  0.5310 -0.5382  3.0458
  116MOL   C11014140   1.221   7.844   2.782  0.5804  0.7133  0.0319
  116MOL   C11114141   1.236   7.872   2.632  0.2893 -0.4517  0.0660
  116MOL  Cl11214142   1.073   7.865   2.556  0.0380 -0.2810 -0.0308
  116MOL   H11314143   1.130   7.892   2.816 -0.1542  0.4565 -1.5330
  116MOL   H11414144   1.192   7.739   2.790 -0.7474  1.0844  0.2720
  116MOL   H11514145   1.257   7.979   2.621 -0.7547  0.0335  2.5529
  116MOL   C11614146   1.323   7.781   2.554  0.2649  0.2271  0.6713
  116MOL   C11714147   1.345   7.827   2.415  0.0948  0.2143  0.7127
  116MOL  Cl11814148   1.473   7.741   2.344 -0.0785 -0.0732  0.3975
  116MOL   H11914149   1.294   7.676   2.547 -0.4804  0.2635  2.8099
  116MOL   H12014150   1.419   7.772   2.604 -0.7727 -2.1388  2.3320
  116MOL   H12114151   1.263   7.800   2.350  0.7681  1.3850 -0.6551
  116MOL   H12214152   1.364   7.934   2.406 -0.3194  0.2526  0.2674
  117MOL     C114153   8.326   0.821   8.305 -0.5957  0.1909  0.8321
  117MOL     C214154   8.241   0.860   8.427  0.4313 -0.2280  0.3110
  117MOL    Cl314155   8.279   0.747   0.029  0.1003  0.2801 -0.1859
  117MOL     H414156   8.312   0.889   8.221 -0.7572 -0.0425  0.6703
  117MOL     H514157   8.431   0.802   8.324 -0.8813 -3.3280 -0.7352
  117MOL     H614158   8.276   0.960   8.457  2.7192 -0.6209 -0.9185
  117MOL     H714159   8.273   0.734   8.266 -0.9268  0.8146 -0.1534
  117MOL     C814160   8.084   0.868   8.406  1.0782 -0.3463  0.3555
  117MOL     C914161   8.040   0.984   8.311 -0.0867 -0.8662  0.1040
  117MOL   Cl1014162   8.079   1.139   8.387 -0.0847  0.0179  0.0381
  117MOL    H1114163   8.046   0.885   8.506  1.5439  1.2309  0.2845
  117MOL    H1214164   8.035   0.777   8.369  0.6731 -0.2404  0.6239
  117MOL    H1314165   8.096   0.980   8.218  0.0667 -0.0082  0.1500
  117MOL    C1414166   7.889   0.980   8.295  0.1788 -0.2927 -0.0324
  117MOL    C1514167   7.842   0.906   8.166  0.2957  0.1892 -0.3950
  117MOL   Cl1614168   7.886   1.012   8.031  0.2563  0.6879 -0.5598
  117MOL    H1714169   7.851   1.082   8.285  1.7286  0.4583  1.5254
  117MOL    H1814170   7.853   0.945   8.391  0.9450  0.7559  0.6477
  117MOL    H1914171   7.910   0.822   8.150  0.2384  0.2013 -0.6889
  117MOL    C2014172   7.693   0.870   8.160 -0.6366  0.5586  0.0894
  117MOL    C2114173   7.660   0.725   8.195  0.1177 -0.4109 -0.2641
  117MOL   Cl2214174   7.739   0.671   8.341 -0.2709 -0.4473 -0.2102
  117MOL    H2314175   7.651   0.888   8.061 -3.5029  0.2877  1.2099
  117MOL    H2414176   7.652   0.935   8.237  0.5189  0.5117  0.7633
  117MOL    H2514177   7.552   0.719   8.213  0.4154 -1.0432  1.4500
  117MOL    C2614178   7.708   0.621   8.081  0.2181 -0.0439  0.4418
  117MOL    C2714179   7.721   0.471   8.109 -0.0532 -0.2920  0.5108
  117MOL   Cl2814180   7.789   0.381   7.968  0.2005 -0.1717  0.1966
  117MOL    H2914181   7.807   0.646   8.042  1.3534 -0.7176  2.8076
  117MOL    H3014182   7.638   0.626   7.998  0.4949  0.0819  0.2175
  117MOL    H3114183   7.797   0.453   8.185  0.5183  1.6376  0.4426
  117MOL    C3214184   7.575   0.417   8.146 -0.0471  0.1372  0.3943
  117MOL    C3314185   7.553   0.271   8.168  0.3864  0.1249  0.5290
  117MOL   Cl3414186   7.650   0.196   8.296 -0.0456  0.4451 -0.0798
  117MOL    H3514187   7.499   0.454   8.076  1.7276  1.3440 -0.9313
  117MOL    H3614188   7.552   0.460   8.243  0.6359  0.3757  0.4523
  117MOL    H3714189   7.453   0.255   8.208  0.7387 -0.6470  1.1106
  117MOL    C3814190   7.567   0.197   8.032  0.5722 -1.0512 -0.9871
  117MOL    C3914191   7.459   0.091   8.002 -0.4881  0.1170  0.3545
  117MOL   Cl4014192   7.310   0.163   7.996 -0.3530  0.1804 -0.3555
  117MOL    H4114193   7.666   0.156   8.013  1.0039 -0.2861 -0.4316
  117MOL    H4214194   7.553   0.267   7.949 -2.7260 -2.5268 -1.7566
  117MOL    H4314195   7.477   0.065   7.898 -1.8484 -0.6791  0.3068
  117MOL    C4414196   7.461   8.500   8.100 -0.0928  0.4029  1.3617
  117MOL    C4514197   7.590   8.407   8.085 -0.0893 -0.6892 -0.5518
  117MOL   Cl4614198   7.593   8.361   7.917  0.0911  0.2723  0.2881
  117MOL    H4714199   7.375   8.434   8.092  1.3908 -1.6571  2.2442
  117MOL    H4814200   7.458   0.022   8.198  0.1665  2.0644  0.5886
  117MOL    H4914201   7.685   8.455   8.110  0.9085 -1.2521 -3.1312
  117MOL    C5014202   7.578   8.281   8.171  0.3662 -0.1312  0.2075
  117MOL    C5114203   7.635   8.284   8.315  0.0030 -0.0798 -0.6641
  117MOL   Cl5214204   7.811   8.309   8.307 -0.4253 -0.0183  0.1188
  117MOL    H5314205   7.629   8.202   8.115  0.4546 -1.0594  1.5830
  117MOL    H5414206   7.477   8.242   8.181  0.3985  0.0149  1.1322
  117MOL    H5514207   7.591   8.370   8.367 -0.3229  0.7672 -2.3070
  117MOL    C5614208   7.612   8.153   8.392 -0.7110 -0.0862 -0.2184
  117MOL    C5714209   7.469   8.114   8.429  0.1306  0.3600  0.3481
  117MOL   Cl5814210   7.393   8.235   0.013  0.4125 -0.1870  0.1468
  117MOL    H5914211   7.670   8.164   8.483 -1.5513 -1.4948  0.5016
  117MOL    H6014212   7.647   8.082   8.317  1.0421  1.5485 -0.9771
  117MOL    H6114213   7.403   8.103   8.343  0.8249 -0.3270 -0.0989
  117MOL    C6214214   7.479   7.977   8.496  0.1582 -0.5674  0.7060
  117MOL    C6314215   7.352   7.900   8.494 -0.1834  0.3035  0.2692
  117MOL   Cl6414216   7.323   7.830   0.129 -0.3051  0.1221 -0.2464
  117MOL    H6514217   7.508   8.005   0.072 -0.2215  3.1715 -0.1216
  117MOL    H6614218   7.558   7.918   8.450  2.7630  2.1628  1.4658
  117MOL    H6714219   7.276   7.977   8.480  0.3674  0.7534 -0.3046
  117MOL    C6814220   7.359   7.802   8.376  0.0344  0.5532  0.1052
  117MOL    C6914221   7.235   7.711   8.343  0.6634 -0.0457  0.1508
  117MOL   Cl7014222   7.082   7.802   8.342  0.3531 -0.1359 -0.1508
  117MOL    H7114223   7.440   7.729   8.371 -1.5915 -1.1979 -1.3863
  117MOL    H7214224   7.391   7.866   8.294  0.2205  0.3184 -0.0061
  117MOL    H7314225   7.243   7.671   8.242  1.2159  1.3436 -0.3721
  117MOL    C7414226   7.218   7.590   8.437 -0.4916  0.8340  0.0723
  117MOL    C7514227   7.329   7.479   8.429  0.4624 -0.4848  0.0163
  117MOL   Cl7614228   7.366   7.422   8.260 -0.3361  0.0924 -0.2462
  117MOL    H7714229   7.126   7.539   8.409  0.7015 -1.1328 -0.3944
  117MOL    H7814230   7.207   7.623   0.015  0.7480  0.9491  0.1768
  117MOL    H7914231   7.419   7.521   8.474 -0.4323 -0.0782  1.4555
  117MOL    C8014232   7.270   7.354   8.501 -0.0423 -0.6817 -0.4775
  117MOL    C8114233   7.362   7.262   0.051 -0.3551  0.5815  0.0675
  117MOL   Cl8214234   7.486   7.206   8.466  0.0660  0.3073  0.4029
  117MOL    H8314235   7.209   7.289   8.439 -2.3396  0.5189  0.4563
  117MOL    H8414236   7.195   7.391   0.046  0.2197  2.1576 -1.6190
  117MOL    H8514237   7.413   7.326   0.124  0.1306 -1.1052  1.2227
  117MOL    C8614238   7.297   7.135   0.119  0.6576 -0.5086  0.2124
  117MOL    C8714239   7.229   7.174   0.252 -0.2755 -0.3315  0.0285
  117MOL   Cl8814240   7.346   7.188   0.386 -0.3366  0.2926  0.2796
  117MOL    H8914241   7.362   7.049   0.133 -1.4327 -2.3218 -1.0340
  117MOL    H9014242   7.218   7.112   0.048  1.5589  1.0002 -1.3407
  117MOL    H9114243   7.194   7.277   0.243  1.3065  0.1188 -1.4072
  117MOL    C9214244   7.105   7.084   0.287 -0.3541 -0.2841  0.0562
  117MOL    C9314245   7.006   7.150   0.387 -0.0561 -1.0119  0.5572
  117MOL   Cl9414246   7.077   7.146   0.552  0.0231  0.5227  0.1659
  117MOL    H9514247   7.143   6.990   0.328  1.0863 -0.1696 -0.9647
  117MOL    H9614248   7.059   7.056   0.192  1.6594 -0.5265 -0.8935
  117MOL    H9714249   6.993   7.256   0.366  2.5916 -0.7365  0.0953
  117MOL    C9814250   6.879   7.074   0.384 -0.1970  0.1675  0.9292
  117MOL    C9914251   6.759   7.151   0.435  0.0892 -0.1279  0.5505
  117MOL  Cl10014252   6.625   7.042   0.476  0.5777 -0.3536  0.2560
  117MOL   H10114253   6.906   6.983   0.438  3.5923 -0.3951 -1.6682
  117MOL   H10214254   6.853   7.030   0.288  0.0735 -1.8172  1.7323
  117MOL   H10314255   6.795   7.193   0.529  1.5104 -1.9912  0.8682
  117MOL   C10414256   6.710   7.253   0.332  0.6414  0.1343  0.0977
  117MOL   C10514257   6.568   7.318   0.346  0.6746  0.3239  0.1357
  117MOL  Cl10614258   6.518   7.407   0.204 -0.0424  0.0271  0.3963
  117MOL   H10714259   6.721   7.212   0.231 -4.3936 -3.4328  0.7961
  117MOL   H10814260   6.786   7.330   0.318  1.5084 -1.0013 -1.6439
  117MOL   H10914261   6.487   7.245   0.354  1.2511 -0.6818 -2.7052
  117MOL   C11014262   6.550   7.417   0.466  0.5233  0.6646  0.5686
  117MOL   C11114263   6.537   7.348   0.606  0.3355  0.4538 -0.9057
  117MOL  Cl11214264   6.383   7.251   0.614 -0.2207 -0.4355 -0.1679
  117MOL   H11314265   6.461   7.476   0.448  1.0189  0.9050 -1.1167
  117MOL   H11414266   6.633   7.486   0.450 -0.4437  1.3504 -1.6493
  117MOL   H11514267   6.616   7.274   0.614 -0.9373 -0.6992  1.4937
  117MOL   C11614268   6.542   7.446   0.732 -0.2987 -0.4292  0.1715
  117MOL   C11714269   6.554   7.372   0.871 -0.1161  0.6669  0.5172
  117MOL  Cl11814270   6.596   7.482   0.996 -0.5151  0.0499 -0.0003
  117MOL   H11914271   6.452   7.508   0.734 -0.0257 -0.0490  0.5670
  117MOL   H12014272   6.627   7.513   0.725  1.0118 -2.1496 -0.9365
  117MOL   H12114273   6.465   7.316   0.898  0.7768 -1.6157 -1.1288
  117MOL   H12214274   6.630   7.294   0.874 -2.6689 -1.8654  0.7774
  118MOL     C114275   8.184   5.967   6.701 -0.0192  0.2728  0.5808
  118MOL     C214276   8.292   5.989   6.802  0.6758  0.1937 -0.0251
  118MOL    Cl314277   8.314   6.159   6.805 -0.0028  0.4114  0.0720
  118MOL     H414278   8.215   6.016   6.608 -1.4509  0.4054  0.1622
  118MOL     H514279   8.168   5.865   6.666 -0.4650  0.3917  0.4374
  118MOL     H614280   8.258   5.962   6.902  1.1009  0.1262  0.1024
  118MOL     H714281   8.092   6.006   6.744 -0.1326  0.4247  0.2021
  118MOL     C814282   8.429   5.924   6.772 -0.0645 -0.1105  0.1454
  118MOL     C914283   8.438   5.768   6.754 -0.3399 -0.2064  0.0158
  118MOL   Cl1014284   8.408   5.701   6.912  0.1866 -0.4345  0.0659
  118MOL    H1114285   8.499   5.954   6.850 -0.7892  2.2702 -0.0880
  118MOL    H1214286   8.471   5.966   6.681  0.2800 -0.5483  0.0973
  118MOL    H1314287   8.362   5.729   6.687  0.3755 -0.5667 -0.5920
  118MOL    C1414288   0.054   5.716   6.706 -0.1946  0.7400  0.1047
  118MOL    C1514289   0.065   5.563   6.698 -1.2324  0.2069 -0.0382
  118MOL   Cl1614290   0.227   5.539   6.636 -0.0793  0.1029  0.1792
  118MOL    H1714291   0.129   5.748   6.778 -0.6601  0.3742  0.7568
  118MOL    H1814292   0.072   5.764   6.609 -0.6152  0.3498 -0.1697
  118MOL    H1914293   0.060   5.521   6.798  2.2433  0.4098  0.2763
  118MOL    C2014294   8.482   5.497   6.624  0.0878  0.6001  0.2038
  118MOL    C2114295   8.503   5.346   6.601  0.0385  0.0862 -0.4161
  118MOL   Cl2214296   8.381   5.299   6.477 -0.0624 -0.2880  0.0884
  118MOL    H2314297   8.474   5.539   6.524  1.2059  0.7087  0.1544
  118MOL    H2414298   8.392   5.504   6.685  0.0833  0.6467  0.1913
  118MOL    H2514299   0.077   5.324   6.561  0.2623 -0.4824  0.4310
  118MOL    C2614300   8.476   5.251   6.726  0.6443 -0.3321  0.2788
  118MOL    C2714301   8.522   5.106   6.718 -0.0266  0.2089 -0.1231
  118MOL   Cl2814302   8.404   5.016   6.623 -0.0598  0.2745 -0.2239
  118MOL    H2914303   8.372   5.250   6.758  0.5500 -0.5781 -0.0245
  118MOL    H3014304   0.007   5.287   6.812 -1.4918 -0.7790  1.9090
  118MOL    H3114305   0.100   5.105   6.683 -0.4449 -2.7170 -1.3698
  118MOL    C3214306   0.001   5.044   6.865  0.2276  0.0031  0.4449
  118MOL    C3314307   0.061   4.905   6.875  0.6931  0.1806  0.1033
  118MOL   Cl3414308   0.231   4.905   6.803 -0.6815  0.2650  0.5326
  118MOL    H3514309   8.423   5.041   6.903  0.5291  2.0150  1.5149
  118MOL    H3614310   0.056   5.102   6.939 -2.9723  0.7164  2.3683
  118MOL    H3714311   0.084   4.893   6.981 -1.3217  0.6110  0.6289
  118MOL    C3814312   8.505   4.787   6.828  0.2782 -0.2702  0.5573
  118MOL    C3914313   0.034   4.638   6.846  0.2078 -0.0645  0.2480
  118MOL   Cl4014314   8.443   4.522   6.779  0.0832  0.1344 -0.0779
  118MOL    H4114315   8.489   4.796   6.721 -0.7683 -0.4126  0.6961
  118MOL    H4214316   8.410   4.797   6.880  1.7517  0.4613  3.2452
  118MOL    H4314317   0.126   4.630   6.788  0.6705 -0.1602  0.9960
  118MOL    C4414318   0.074   4.603   6.988  1.0426 -0.2130  0.0449
  118MOL    C4514319   0.166   4.481   6.999 -0.0383 -0.4648 -0.3896
  118MOL   Cl4614320   0.062   4.340   7.006 -0.1864  0.0884 -0.1181
  118MOL    H4714321   8.506   4.591   7.044  1.0764  0.1275  0.1736
  118MOL    H4814322   0.127   4.684   7.038  1.3696 -0.1521 -0.4040
  118MOL    H4914323   0.224   4.466   6.908  0.9535  0.0931  0.1417
  118MOL    C5014324   0.246   4.489   7.129  0.6994 -0.2835 -0.2572
  118MOL    C5114325   0.379   4.560   7.110  0.4853  0.6030  0.8752
  118MOL   Cl5214326   0.486   4.448   7.018 -0.0270  0.5716  0.4048
  118MOL    H5314327   0.259   4.384   7.156  0.5063  0.1011  1.3664
  118MOL    H5414328   0.181   4.527   7.208  1.3790  0.8519 -0.2345
  118MOL    H5514329   0.360   4.645   7.045 -2.0335 -1.8489 -1.7275
  118MOL    C5614330   0.455   4.607   7.234  0.4573  0.6506 -1.1401
  118MOL    C5714331   0.383   4.723   7.303 -0.8495 -1.1533 -0.5610
  118MOL   Cl5814332   0.379   4.872   7.209  0.0624  0.0839 -0.5638
  118MOL    H5914333   0.560   4.620   7.210  0.9699 -0.6599  0.3258
  118MOL    H6014334   0.439   4.520   7.296 -1.6041  1.6224 -0.2447
  118MOL    H6114335   0.278   4.695   7.311 -1.5070  0.7900 -2.0694
  118MOL    C6214336   0.432   4.753   7.448 -0.2395 -0.5415  0.3849
  118MOL    C6314337   0.386   4.651   7.562 -0.9033  0.6608  0.0182
  118MOL   Cl6414338   0.207   4.644   7.575 -0.3477 -0.1687 -0.3819
  118MOL    H6514339   0.408   4.846   7.500  1.9013 -0.0887  0.5980
  118MOL    H6614340   0.539   4.758   7.429 -0.2680  0.8215  0.5170
  118MOL    H6714341   0.416   4.549   7.537  0.1268  1.2239 -1.0326
  118MOL    C6814342   0.440   4.691   7.696 -0.3612 -0.6275  1.0603
  118MOL    C6914343   0.595   4.674   7.707  0.3751  0.0411 -0.5558
  118MOL   Cl7014344   0.627   4.499   7.715  0.1435 -0.3230  0.0813
  118MOL    H7114345   0.389   4.623   7.765  2.1972 -2.4501  1.2058
  118MOL    H7214346   0.410   4.793   7.719 -1.5756 -0.2967 -1.8138
  118MOL    H7314347   0.636   4.716   7.615 -2.1171 -0.5964 -2.0109
  118MOL    C7414348   0.660   4.746   7.825 -0.4637  0.5716 -0.2304
  118MOL    C7514349   0.624   4.693   7.968 -0.6387 -0.3773  0.3653
  118MOL   Cl7614350   0.455   4.744   8.004 -0.1675 -0.0043  0.2826
  118MOL    H7714351   0.662   4.855   7.813  0.6598  0.8254  2.0695
  118MOL    H7814352   0.764   4.731   7.797  0.4352  2.8345  1.7807
  118MOL    H7914353   0.622   4.584   7.969  0.0135 -0.4259 -1.2828
  118MOL    C8014354   0.711   4.746   8.079 -0.2983  0.1519 -0.5312
  118MOL    C8114355   0.848   4.676   8.094  0.8080 -0.5635  0.2459
  118MOL   Cl8214356   0.838   4.496   8.089 -0.0906 -0.2840  0.1857
  118MOL    H8314357   0.658   4.747   8.174  1.7689  1.7812  0.6475
  118MOL    H8414358   0.734   4.852   8.067  0.4206 -0.0061 -0.5359
  118MOL    H8514359   0.906   4.707   8.007  0.8797 -0.7109  0.2413
  118MOL    C8614360   0.917   4.719   8.227 -0.3980 -0.0982  0.1838
  118MOL    C8714361   0.940   4.866   8.256 -0.2597 -0.2112  0.5098
  118MOL   Cl8814362   1.045   4.926   8.117 -0.0802  0.0197 -0.1474
  118MOL    H8914363   1.012   4.668   8.240 -1.0434 -1.7536 -1.3418
  118MOL    H9014364   0.855   4.680   8.308  0.2144 -1.2434  0.1071
  118MOL    H9114365   0.844   4.919   8.258 -0.5196 -0.4326 -3.0444
  118MOL    C9214366   0.997   4.897   8.401  0.6308  0.2530  0.9399
  118MOL    C9314367   0.910   4.846   8.517 -0.3318 -0.6355 -0.5109
  118MOL   Cl9414368   0.737   4.890   8.492  0.0698  0.1966  0.1534
  118MOL    H9514369   1.010   5.005   8.408  3.1902  0.1867 -1.7742
  118MOL    H9614370   1.096   4.852   8.402 -0.5335 -2.3835  1.3925
  118MOL    H9714371   0.915   4.739   0.009  0.5770 -1.0092 -2.9350
  118MOL    C9814372   0.932   4.919   0.133  0.2360 -0.0139 -0.5127
  118MOL    C9914373   1.070   4.897   0.190 -0.0330 -0.2936 -1.2584
  118MOL  Cl10014374   1.115   4.720   0.200 -0.1256 -0.2273 -0.1443
  118MOL   H10114375   0.866   4.867   0.203 -0.1781  0.1331 -0.7947
  118MOL   H10214376   0.902   5.023   0.122 -1.2848 -0.2758  0.8659
  118MOL   H10314377   1.146   4.940   0.125  0.3427 -0.9931 -1.2920
  118MOL   C10414378   1.088   4.964   0.332  0.0179  0.1355 -0.3289
  118MOL   C10514379   1.101   5.118   0.342 -0.1386  0.7251  1.1289
  118MOL  Cl10614380   1.270   5.159   0.374  0.0766  0.1085 -0.6083
  118MOL   H10714381   1.176   4.919   0.378 -1.8288 -2.2819  0.9655
  118MOL   H10814382   1.009   4.929   0.397  0.6046  2.1195  1.4884
  118MOL   H10914383   1.093   5.157   0.240 -2.7066  0.6913  1.3001
  118MOL   C11014384   1.017   5.187   0.449  0.0614 -0.1898 -0.4525
  118MOL   C11114385   0.867   5.163   0.437  0.4492  0.0749 -0.0472
  118MOL  Cl11214386   0.820   5.243   0.279 -0.1208  0.1579 -0.3137
  118MOL   H11314387   1.034   5.294   0.438  0.7938 -0.1285  1.1841
  118MOL   H11414388   1.050   5.175   0.552  0.0185  0.1061 -0.4047
  118MOL   H11514389   0.840   5.058   0.431  0.9081 -0.2051  2.4709
  118MOL   C11614390   0.782   5.225   0.546  0.0903 -0.3220  0.1162
  118MOL   C11714391   0.638   5.203   0.516 -0.0090  0.0001 -0.7994
  118MOL  Cl11814392   0.540   5.259   0.653  0.3443  0.3652 -0.4502
  118MOL   H11914393   0.806   5.331   0.557 -0.2732  0.0628 -2.4588
  118MOL   H12014394   0.811   5.167   0.633  1.2781 -0.3605 -0.3026
  118MOL   H12114395   0.604   5.252   0.425 -0.5149 -0.4471 -0.8585
  118MOL   H12214396   0.607   5.099   0.505  0.5892 -0.2244 -0.3804
  119MOL     C114397   4.669   0.507   7.813  0.2500  0.3655 -0.1016
  119MOL     C214398   4.729   0.603   7.908  0.2416  0.6142 -0.8205
  119MOL    Cl314399   4.900   0.556   7.945  0.4207  0.0926 -0.0949
  119MOL     H414400   4.687   0.402   7.835  3.4472  0.9082  0.1303
  119MOL     H514401   4.563   0.530   7.803  0.3585  1.2700  0.7464
  119MOL     H614402   4.734   0.704   7.869 -3.0866  1.6678  1.2192
  119MOL     H714403   4.714   0.518   7.714 -0.5176 -2.8816 -0.8665
  119MOL     C814404   4.642   0.609   8.038  0.5088 -0.1999  0.4983
  119MOL     C914405   4.676   0.729   8.130  0.1256  0.0257  0.1458
  119MOL   Cl1014406   4.584   0.701   8.278 -0.2560  0.0262  0.0002
  119MOL    H1114407   4.662   0.519   8.096 -1.7235 -1.7993 -1.1168
  119MOL    H1214408   4.537   0.612   8.009 -0.0588 -2.5680  2.0909
  119MOL    H1314409   4.779   0.719   8.165 -0.1762  3.2178  2.1292
  119MOL    C1414410   4.643   0.865   8.067  0.1634 -0.1769 -0.2021
  119MOL    C1514411   4.671   0.993   8.148 -0.0884 -0.3113 -0.3382
  119MOL   Cl1614412   4.598   1.134   8.072 -0.1143  0.0315 -0.4117
  119MOL    H1714413   4.536   0.858   8.045  0.2494  1.2423 -1.1146
  119MOL    H1814414   4.701   0.874   7.975 -1.1038  0.0997 -0.9771
  119MOL    H1914415   4.622   0.984   8.244 -1.7039 -0.5892 -1.1690
  119MOL    C2014416   4.818   1.016   8.161 -0.5007  0.3974 -0.0299
  119MOL    C2114417   4.858   1.065   8.305 -0.2552 -0.3791 -0.4090
  119MOL   Cl2214418   4.855   0.932   8.427  0.5070  0.4151  0.0676
  119MOL    H2314419   4.852   1.092   8.091 -1.2139 -1.9842 -3.0447
  119MOL    H2414420   4.885   0.931   8.150  0.0687  0.5177  2.1099
  119MOL    H2514421   4.961   1.091   8.281 -0.4100  1.9595  1.3293
  119MOL    C2614422   4.800   1.202   8.362 -0.4276  0.2982 -0.4920
  119MOL    C2714423   4.875   1.260   8.481 -1.2146 -0.3628  0.3002
  119MOL   Cl2814424   4.767   1.388   0.010  0.2343  0.3340 -0.1158
  119MOL    H2914425   4.694   1.189   8.383 -0.7184 -1.2919 -2.8171
  119MOL    H3014426   4.802   1.282   8.288 -0.0506 -1.3309 -2.2512
  119MOL    H3114427   4.872   1.184   0.033 -1.9410 -0.8683 -0.2116
  119MOL    C3214428   5.019   1.315   8.453  0.4277 -0.6298  0.5876
  119MOL    C3314429   5.082   1.395   0.042 -0.2747  0.0862  0.3874
  119MOL   Cl3414430   5.205   1.503   8.517  0.3135  0.1798 -0.2963
  119MOL    H3514431   5.010   1.387   8.372 -1.4126 -1.8798 -0.3387
  119MOL    H3614432   5.082   1.234   8.415 -0.6450 -1.3366  0.2810
  119MOL    H3714433   5.006   1.453   0.093  0.9796  0.4303  1.9046
  119MOL    C3814434   5.134   1.312   0.164 -0.0863 -0.2469 -0.5419
  119MOL    C3914435   5.236   1.201   0.121  1.2491  0.1980 -0.0958
  119MOL   Cl4014436   5.161   1.050   0.071 -0.3947  0.0489  0.3073
  119MOL    H4114437   5.051   1.267   0.218 -0.0278 -0.0158 -0.2547
  119MOL    H4214438   5.180   1.377   0.239  0.8040 -0.2060 -1.1219
  119MOL    H4314439   5.291   1.224   0.030  0.1090  0.1343 -0.8120
  119MOL    C4414440   5.327   1.151   0.241 -0.9976 -0.1410  0.4748
  119MOL    C4514441   5.440   1.248   0.279  0.3557  0.4533 -0.6006
  119MOL   Cl4614442   5.538   1.272   0.135 -0.3918  0.1242  0.0037
  119MOL    H4714443   5.365   1.052   0.215  1.7618  1.1348 -0.6200
  119MOL    H4814444   5.273   1.132   0.333 -2.6383  2.7709  0.1544
  119MOL    H4914445   5.399   1.344   0.313 -1.4857 -0.2852 -0.6929
  119MOL    C5014446   5.532   1.202   0.393 -0.7719  1.0734 -0.5691
  119MOL    C5114447   5.471   1.148   0.522  0.4354 -0.5906 -0.0703
  119MOL   Cl5214448   5.340   1.247   0.581  0.1259 -0.0240 -0.3359
  119MOL    H5314449   5.606   1.280   0.415  0.7882 -0.9083  1.4086
  119MOL    H5414450   5.588   1.115   0.360 -2.9192  0.1243 -1.8271
  119MOL    H5514451   5.422   1.053   0.500 -1.0030  0.4440 -1.4318
  119MOL    C5614452   5.570   1.136   0.640  0.6032  0.0284  0.0063
  119MOL    C5714453   5.696   1.061   0.607  0.4175  0.0746 -0.3102
  119MOL   Cl5814454   5.642   0.894   0.547  0.3424 -0.2081 -0.3205
  119MOL    H5914455   5.510   1.102   0.725 -1.4924 -0.9428 -1.8097
  119MOL    H6014456   5.595   1.238   0.669  1.5797 -0.0995 -0.3765
  119MOL    H6114457   5.753   1.115   0.532  1.1671 -1.3949 -0.8174
  119MOL    C6214458   5.786   1.041   0.729 -0.7984 -0.2209  0.4386
  119MOL    C6314459   5.913   0.954   0.712  0.3829 -0.0483  0.1535
  119MOL   Cl6414460   6.010   0.950   0.871  0.1112  0.5305  0.1179
  119MOL    H6514461   5.724   0.980   0.795 -0.1240 -1.2959  0.0882
  119MOL    H6614462   5.814   1.138   0.771  1.3521  0.0552 -1.5439
  119MOL    H6714463   5.876   0.856   0.684 -1.4356  0.6812 -0.0535
  119MOL    C6814464   6.016   0.997   0.600 -0.0928  0.8865 -0.5835
  119MOL    C6914465   6.158   0.921   0.600 -0.0268  0.3517  0.1439
  119MOL   Cl7014466   6.274   0.996   0.488 -0.0173  0.1595 -0.2497
  119MOL    H7114467   6.039   1.100   0.627  3.0442 -0.1063  0.7570
  119MOL    H7214468   5.968   1.019   0.504  1.5478  2.7591 -1.0098
  119MOL    H7314469   6.200   0.927   0.701  0.0348  0.4178  0.1144
  119MOL    C7414470   6.150   0.768   0.583  0.5749 -0.0363 -0.5552
  119MOL    C7514471   6.292   0.706   0.592  0.0341 -0.0391  0.6734
  119MOL   Cl7614472   6.294   0.543   0.525  0.0634 -0.1818  0.0420
  119MOL    H7714473   6.116   0.740   0.483 -2.1090 -1.0991  0.6208
  119MOL    H7814474   6.079   0.720   0.649 -2.2998  2.0949 -1.9330
  119MOL    H7914475   6.369   0.764   0.540 -0.6092  2.4608  2.4069
  119MOL    C8014476   6.338   0.701   0.745  0.8917  0.2154  0.1114
  119MOL    C8114477   6.480   0.636   0.767 -0.4597 -0.4284  0.2286
  119MOL   Cl8214478   6.490   0.626   0.942  0.2587 -0.0535  0.0025
  119MOL    H8314479   6.271   0.649   0.813  2.5404 -1.0313  0.8338
  119MOL    H8414480   6.346   0.803   0.782  0.5883 -0.4554  2.1286
  119MOL    H8514481   6.477   0.537   0.721 -0.1242 -0.3767  0.0960
  119MOL    C8614482   6.604   0.719   0.712  0.1126  0.0518 -0.7660
  119MOL    C8714483   6.749   0.655   0.730  0.3881 -0.8837  0.1792
  119MOL   Cl8814484   6.872   0.778   0.706 -0.2141 -0.2149 -0.0289
  119MOL    H8914485   6.612   0.823   0.745 -0.5008 -0.0985 -0.1218
  119MOL    H9014486   6.580   0.727   0.606  3.5136  0.0059 -1.5986
  119MOL    H9114487   6.756   0.631   0.836  1.3657 -1.3900  0.0027
  119MOL    C9214488   6.777   0.520   0.654 -0.1735 -0.0941 -0.7119
  119MOL    C9314489   6.924   0.463   0.670 -0.6023 -0.6021 -0.3610
  119MOL   Cl9414490   6.946   0.342   0.549 -0.1417  0.1042  0.2145
  119MOL    H9514491   6.746   0.529   0.550  0.9556  0.8675 -0.9787
  119MOL    H9614492   6.723   0.438   0.701  0.3940 -0.1071 -0.0773
  119MOL    H9714493   6.999   0.538   0.645 -0.4878 -0.6129 -0.0515
  119MOL    C9814494   6.959   0.404   0.809 -0.1434  0.1692 -0.5156
  119MOL    C9914495   7.105   0.356   0.834 -0.0911  0.3130  0.3363
  119MOL  Cl10014496   7.122   0.232   0.958  0.5192  0.1572 -0.5390
  119MOL   H10114497   6.890   0.322   0.831 -0.9966  0.9257 -0.3796
  119MOL   H10214498   6.928   0.482   0.878  0.7410  0.3251 -0.2828
  119MOL   H10314499   7.137   0.307   0.741 -1.4341  1.1475 -0.5872
  119MOL   C10414500   7.198   0.475   0.858 -0.1493 -0.5037 -0.0367
  119MOL   C10514501   7.348   0.437   0.850  0.2083 -0.2430  0.0469
  119MOL  Cl10614502   7.448   0.568   0.922 -0.5800 -0.1883 -0.2049
  119MOL   H10714503   7.174   0.512   0.958  0.7845  0.3488 -0.1157
  119MOL   H10814504   7.183   0.553   0.783  0.2053  1.0381  1.4396
  119MOL   H10914505   7.353   0.346   0.910 -0.4282 -0.9230 -0.9175
  119MOL   C11014506   7.401   0.405   0.704  0.1866  0.0000  0.1055
  119MOL   C11114507   7.548   0.366   0.708 -0.8692  0.2337  0.0771
  119MOL  Cl11214508   7.603   0.368   0.543  0.0561  0.2751  0.4979
  119MOL   H11314509   7.391   0.483   0.629 -0.2086 -0.7008 -0.5778
  119MOL   H11414510   7.338   0.325   0.666  1.3607 -0.5598 -0.6975
  119MOL   H11514511   7.612   0.438   0.759  0.8710  0.5495 -2.4605
  119MOL   C11614512   7.570   0.230   0.770  0.1296 -0.3118 -0.2229
  119MOL   C11714513   7.718   0.190   0.767  0.2960  0.0681  0.5960
  119MOL  Cl11814514   7.706   0.023   0.811 -0.0708  0.0915 -0.3698
  119MOL   H11914515   7.503   0.166   0.713 -1.8964  0.8136  0.7976
  119MOL   H12014516   7.539   0.224   0.875  0.8211 -2.0755 -0.1051
  119MOL   H12114517   7.759   0.194   0.666 -0.4446  0.2211  0.2984
  119MOL   H12214518   7.779   0.244   0.840  1.5207  1.3081 -1.3147
  120MOL     C114519   1.368   6.178   7.072 -0.1329 -0.2153  0.0290
  120MOL     C214520   1.454   6.259   6.980 -0.0088 -0.3046  0.3475
  120MOL    Cl314521   1.400   6.432   6.996  0.1021  0.2065 -0.0812
  120MOL     H414522   1.390   6.225   7.168  0.0985 -1.3910  0.5691
  120MOL     H514523   1.262   6.185   7.053  0.2435 -0.3420 -2.1800
  120MOL     H614524   1.560   6.248   7.005  0.0561  1.5526  1.0306
  120MOL     H714525   1.391   6.072   7.088  2.0533  0.3524  0.9481
  120MOL     C814526   1.436   6.225   6.833 -0.8807  0.4298 -0.5777
  120MOL     C914527   1.533   6.117   6.781  0.2450 -0.0409  0.0947
  120MOL   Cl1014528   1.521   6.130   6.600  0.1871  0.0995  0.0403
  120MOL    H1114529   1.457   6.315   6.775 -1.3749  0.6822 -0.3661
  120MOL    H1214530   1.339   6.178   6.814  0.0934 -1.2497 -1.6001
  120MOL    H1314531   1.637   6.143   6.803 -0.8948  3.4096  1.6893
  120MOL    C1414532   1.508   5.975   6.833 -0.4184 -0.1434  0.2128
  120MOL    C1514533   1.366   5.907   6.824 -1.1426  0.5240  0.2652
  120MOL   Cl1614534   1.380   5.754   6.917  0.2106  0.3353 -0.5579
  120MOL    H1714535   1.536   5.983   6.938 -1.6115 -3.2399  0.8396
  120MOL    H1814536   1.580   5.907   6.788 -0.2332 -0.0128  0.3162
  120MOL    H1914537   1.287   5.963   6.875 -1.5231  0.3847 -0.1709
  120MOL    C2014538   1.314   5.895   6.680  0.6494  0.0169  0.9138
  120MOL    C2114539   1.188   5.811   6.648 -0.0153 -0.3479 -0.1368
  120MOL   Cl2214540   1.069   5.850   6.777  0.0976 -0.2928 -0.0494
  120MOL    H2314541   1.394   5.864   6.613 -2.0591 -1.2373 -1.8154
  120MOL    H2414542   1.283   5.996   6.652 -2.6709 -0.7132  1.7454
  120MOL    H2514543   1.145   5.847   6.555 -2.0871 -0.2390  0.8496
  120MOL    C2614544   1.224   5.658   6.644 -0.7899 -0.0763 -0.0492
  120MOL    C2714545   1.114   5.575   6.570  0.7917  0.2350  0.4049
  120MOL   Cl2814546   1.139   5.403   6.603  0.4345 -0.5623  0.2018
  120MOL    H2914547   1.234   5.619   6.745  0.3711 -0.5796 -0.3468
  120MOL    H3014548   1.320   5.644   6.595 -1.1237 -1.8459 -0.2516
  120MOL    H3114549   1.016   5.590   6.615  0.4956  0.3210 -0.2607
  120MOL    C3214550   1.091   5.615   6.423 -0.6233  0.4773 -0.4857
  120MOL    C3314551   1.047   5.514   6.319 -0.4462 -0.6360 -0.2469
  120MOL   Cl3414552   1.201   5.432   6.254  0.3830 -0.0553 -0.1977
  120MOL    H3514553   1.174   5.677   6.388 -0.8550  1.3513  0.5014
  120MOL    H3614554   1.008   5.686   6.427  0.0808  1.2620  0.1327
  120MOL    H3714555   0.989   5.444   6.378 -0.9279  0.4280  0.5666
  120MOL    C3814556   0.979   5.590   6.202 -0.2507  0.1201 -0.6534
  120MOL    C3914557   0.935   5.492   6.083 -0.2949  0.8684  0.3219
  120MOL   Cl4014558   0.860   5.592   5.956 -0.2928  0.1284 -0.4667
  120MOL    H4114559   1.050   5.660   6.159 -1.3746  0.8151 -1.4230
  120MOL    H4214560   0.899   5.656   6.235  2.2670  2.6728  0.5520
  120MOL    H4314561   1.016   5.437   6.036  0.5228  1.6836  0.7640
  120MOL    C4414562   0.836   5.386   6.138  0.6196  1.0061 -0.1264
  120MOL    C4514563   0.790   5.269   6.048  0.4444 -0.3179 -0.3661
  120MOL   Cl4614564   0.637   5.208   6.119  0.2958  0.0966 -0.2167
  120MOL    H4714565   0.739   5.424   6.170 -0.0235 -0.7486  0.0663
  120MOL    H4814566   0.886   5.336   6.221 -1.8599 -0.5129  0.5177
  120MOL    H4914567   0.775   5.293   5.943  2.3701  0.0666 -0.5764
  120MOL    C5014568   0.901   5.156   6.054 -0.1889 -0.4281  0.0449
  120MOL    C5114569   0.887   5.042   5.950 -0.3957  0.4546  0.7364
  120MOL   Cl5214570   0.937   5.118   5.801 -0.6310  0.3682 -0.2162
  120MOL    H5314571   0.903   5.100   6.148 -1.3122 -3.0180 -1.3979
  120MOL    H5414572   0.998   5.199   6.032 -0.7282 -0.3279 -2.2428
  120MOL    H5514573   0.963   4.967   5.971 -1.6326 -0.3355  2.4885
  120MOL    C5614574   0.758   4.970   5.935  0.0293  0.4395  0.0568
  120MOL    C5714575   0.716   4.891   6.057  0.5152 -0.8535  0.1434
  120MOL   Cl5814576   0.846   4.793   6.121 -0.1366  0.2758  0.0527
  120MOL    H5914577   0.772   4.898   5.854  2.1171 -0.9484  1.5799
  120MOL    H6014578   0.681   5.036   5.895  1.2259  3.0868  2.0288
  120MOL    H6114579   0.682   4.956   6.137  0.6048  0.0706 -0.5540
  120MOL    C6214580   0.592   4.792   6.033 -0.0817  0.1341 -0.0639
  120MOL    C6314581   0.444   4.852   6.061  0.7573 -0.0442 -0.5236
  120MOL   Cl6414582   0.431   4.886   6.234  0.1415  0.3011  0.1470
  120MOL    H6514583   0.594   4.711   6.105 -1.2887  1.3165  1.3267
  120MOL    H6614584   0.584   4.759   5.929 -1.9309  0.5654 -0.0668
  120MOL    H6714585   0.436   4.951   6.015  1.1139  0.0303 -0.4307
  120MOL    C6814586   0.330   4.756   6.008  0.2600 -0.4670  0.4016
  120MOL    C6914587   0.335   4.728   5.853  0.2831  0.1969 -0.2156
  120MOL   Cl7014588   0.264   4.865   5.760  0.0939  0.2758 -0.2832
  120MOL    H7114589   0.240   4.816   6.025 -0.1857 -0.8408 -0.6448
  120MOL    H7214590   0.323   4.663   6.064  0.5452 -1.6326 -1.4837
  120MOL    H7314591   0.436   4.714   5.813 -0.5425 -3.2362 -1.2630
  120MOL    C7414592   0.261   4.595   5.805  0.6531  0.4141 -0.2511
  120MOL    C7514593   0.332   4.456   5.824  0.2067 -0.2714 -0.6105
  120MOL   Cl7614594   0.495   4.445   5.740 -0.4282 -0.0403  0.1222
  120MOL    H7714595   0.234   4.612   5.701 -1.6785  2.3738  0.6323
  120MOL    H7814596   0.168   4.594   5.861 -0.2415  0.0614 -1.7375
  120MOL    H7914597   0.360   4.448   5.930  4.1967  3.9938 -1.1300
  120MOL    C8014598   0.245   4.336   5.784  0.1653 -0.4721  0.6456
  120MOL    C8114599   0.230   4.288   5.632 -0.1886 -0.1242 -0.2150
  120MOL   Cl8214600   0.173   4.422   5.536  0.2116 -0.3800  0.1110
  120MOL    H8314601   0.138   4.352   5.798 -0.3198 -2.3762 -0.7957
  120MOL    H8414602   0.270   4.246   5.840  1.0092 -0.7675 -0.1960
  120MOL    H8514603   0.326   4.255   5.592 -0.3732 -0.4109 -0.4268
  120MOL    C8614604   0.125   4.174   5.628  0.1903 -0.6166 -0.3999
  120MOL    C8714605   0.085   4.129   5.494  0.4067 -0.3410 -0.4283
  120MOL   Cl8814606   8.473   4.016   5.515  0.5559 -0.3519 -0.0004
  120MOL    H8914607   0.032   4.204   5.675 -0.5037  0.8474 -2.5916
  120MOL    H9014608   0.157   4.089   5.688 -0.7884 -1.8019 -1.5563
  120MOL    H9114609   0.041   4.214   5.442  0.4144 -0.5233 -0.7295
  120MOL    C9214610   0.189   4.067   5.398 -0.9171  0.0443 -0.1254
  120MOL    C9314611   0.158   4.078   5.242  0.2622 -0.2422 -0.1345
  120MOL   Cl9414612   0.129   4.241   5.186 -0.3080  0.0284  0.2257
  120MOL    H9514613   0.210   3.962   5.416  1.4792  0.6645  0.8623
  120MOL    H9614614   0.281   4.121   5.418 -1.8827  1.1512  1.3872
  120MOL    H9714615   0.256   4.054   5.201  1.0159 -0.1305  1.5700
  120MOL    C9814616   0.043   3.989   5.202 -0.2946  0.0555 -0.3127
  120MOL    C9914617   0.059   3.840   5.201  0.0197 -0.9380  0.2311
  120MOL  Cl10014618   0.171   3.786   5.073  0.1895  0.0647  0.1614
  120MOL   H10114619   0.018   4.014   5.099 -0.4444 -0.3324 -0.3721
  120MOL   H10214620   8.475   4.023   5.248 -0.0320  2.5527 -1.5488
  120MOL   H10314621   0.099   3.810   5.298 -1.2546 -0.7066  0.8468
  120MOL   C10414622   8.462   3.748   5.173  0.0461 -0.6567  0.1188
  120MOL   C10514623   8.356   3.743   5.289  0.8580  0.3479  0.0621
  120MOL  Cl10614624   8.431   3.663   5.428 -0.2952 -0.0790  0.2947
  120MOL   H10714625   8.493   3.648   5.142  0.2722 -0.6585  0.3500
  120MOL   H10814626   8.413   3.787   5.084 -0.4475  0.6262  0.9337
  120MOL   H10914627   8.334   3.846   5.314 -0.9412  0.1768 -0.7380
  120MOL   C11014628   8.223   3.678   5.249  0.2282  0.2840  0.6849
  120MOL   C11114629   8.122   3.672   5.359  0.0381 -0.6637 -0.8403
  120MOL  Cl11214630   7.973   3.584   5.312  0.1469 -0.3281 -0.1121
  120MOL   H11314631   8.236   3.579   5.205 -1.7848  0.9509 -1.5484
  120MOL   H11414632   8.175   3.739   5.173  0.1475 -0.2694  0.2835
  120MOL   H11514633   8.179   3.617   5.434  0.1758  0.2084 -0.2893
  120MOL   C11614634   8.075   3.810   5.416  0.3860  0.1206  0.2275
  120MOL   C11714635   8.008   3.790   5.556 -0.1984 -0.0442  0.1026
  120MOL  Cl11814636   8.131   3.785   5.683  0.3483 -0.0742 -0.0037
  120MOL   H11914637   8.000   3.851   5.348  1.2153 -0.9870 -1.3671
  120MOL   H12014638   8.154   3.885   5.420  1.0444 -0.5642  0.1266
  120MOL   H12114639   7.946   3.877   5.576  0.0171 -0.2573  1.8374
  120MOL   H12214640   7.952   3.696   5.562 -0.2983  0.0511  0.6850
  121MOL     C114641   4.289   1.257   8.267 -0.1720  0.4830  0.4298
  121MOL     C214642   4.225   1.320   8.146 -0.2106 -0.7640 -0.4871
  121MOL    Cl314643   4.150   1.188   8.054 -0.1429 -0.1079  0.3985
  121MOL     H414644   4.368   1.186   8.244 -1.6736 -0.7254 -1.1312
  121MOL     H514645   4.311   1.344   8.329  0.5113 -1.3232  2.7958
  121MOL     H614646   4.143   1.384   8.180 -0.7253 -0.2748 -2.6147
  121MOL     H714647   4.226   1.186   8.321 -0.6220  0.7581  0.2707
  121MOL     C814648   4.328   1.401   8.057  0.3779  0.1066 -0.1558
  121MOL     C914649   4.401   1.510   8.137  1.2593  0.1707  0.0955
  121MOL   Cl1014650   4.294   1.639   8.176 -0.0871  0.4307  0.1604
  121MOL    H1114651   4.270   1.436   7.972 -0.3834 -1.4334 -0.2975
  121MOL    H1214652   4.397   1.326   8.020  1.3852  1.6823 -1.5250
  121MOL    H1314653   4.443   1.465   8.227 -0.2934 -1.1027  0.2030
  121MOL    C1414654   4.522   1.574   8.056 -0.1346 -0.1902  0.6636
  121MOL    C1514655   4.623   1.679   8.109  0.5495 -0.8859  0.3323
  121MOL   Cl1614656   4.729   1.744   7.978 -0.1600  0.4902  0.1834
  121MOL    H1714657   4.484   1.595   7.956 -1.2737 -0.7488  0.9644
  121MOL    H1814658   4.588   1.491   8.034  1.1415  1.4597 -2.1292
  121MOL    H1914659   4.575   1.772   8.137  1.6182 -0.0499 -0.5357
  121MOL    C2014660   4.710   1.627   8.223 -0.4886 -0.0149  0.4253
  121MOL    C2114661   4.824   1.716   8.262  0.4351 -0.7480 -0.2140
  121MOL   Cl2214662   4.969   1.666   8.170 -0.0574  0.1231  0.0344
  121MOL    H2314663   4.755   1.533   8.192  0.1063  1.1769 -2.4836
  121MOL    H2414664   4.653   1.609   8.314 -0.9275  0.2168  0.2000
  121MOL    H2514665   4.807   1.822   8.245 -1.9314 -1.2552 -1.2125
  121MOL    C2614666   4.858   1.711   8.419  0.4121 -0.5174  0.1926
  121MOL    C2714667   4.961   1.815   8.470  0.2360  0.3841  0.0553
  121MOL   Cl2814668   4.995   1.780   0.120 -0.3561  0.0103  0.5869
  121MOL    H2914669   4.892   1.608   8.433  0.7521 -0.7839 -2.3457
  121MOL    H3014670   4.765   1.722   8.476  0.1345  2.2284 -0.7353
  121MOL    H3114671   5.055   1.791   8.420 -0.1375 -3.7160  1.1292
  121MOL    C3214672   4.914   1.969   8.453  0.0323 -0.0888  0.2367
  121MOL    C3314673   5.015   2.085   8.487 -0.3124 -0.2051  0.2104
  121MOL   Cl3414674   4.927   2.237   8.505  0.0447  0.5652 -0.1697
  121MOL    H3514675   4.827   1.976   8.520  0.5853 -2.4616  1.2827
  121MOL    H3614676   4.872   1.985   8.354 -0.4962 -0.5155  0.3853
  121MOL    H3714677   5.060   2.073   0.061  0.5760 -1.7806 -0.3580
  121MOL    C3814678   5.123   2.096   8.374 -0.1963  0.2968  0.2609
  121MOL    C3914679   5.250   2.176   8.400  0.3669 -0.3186 -0.5258
  121MOL   Cl4014680   5.326   2.111   0.018  0.6846  0.2054 -0.5669
  121MOL    H4114681   5.076   2.129   8.281 -3.3604  0.3573  1.7934
  121MOL    H4214682   5.162   1.998   8.348  0.5809  0.7188 -0.1984
  121MOL    H4314683   5.316   2.149   8.317  0.0230  1.2141 -1.3199
  121MOL    C4414684   5.246   2.328   8.395  0.0918 -0.5219  0.4873
  121MOL    C4514685   5.233   2.375   8.250  0.2200 -0.0525  0.6035
  121MOL   Cl4614686   5.401   2.370   8.184 -0.2171  0.2250  0.0172
  121MOL    H4714687   5.337   2.359   8.447  0.6026 -0.5924 -0.3373
  121MOL    H4814688   5.169   2.360   8.464  1.2865  0.1483  1.5477
  121MOL    H4914689   5.169   2.307   8.193  2.5542 -1.0725 -0.8969
  121MOL    C5014690   5.173   2.520   8.237 -0.0187  1.1470 -0.3917
  121MOL    C5114691   5.180   2.576   8.096  0.0754 -0.2571 -0.5715
  121MOL   Cl5214692   5.126   2.752   8.101  0.4802  0.0195 -0.3440
  121MOL    H5314693   5.229   2.585   8.304  2.3768 -1.0030 -0.2220
  121MOL    H5414694   5.067   2.531   8.260 -0.4292 -0.2165 -1.5438
  121MOL    H5514695   5.284   2.566   8.066  0.0163 -0.2379 -0.7858
  121MOL    C5614696   5.093   2.494   7.990  1.0052  0.1011 -0.3243
  121MOL    C5714697   4.942   2.496   8.004  0.3377  0.1907  0.1696
  121MOL   Cl5814698   4.889   2.371   8.122  0.6460  0.0341 -0.3232
  121MOL    H5914699   5.117   2.388   7.978  0.6798 -0.1436  1.0007
  121MOL    H6014700   5.120   2.528   7.890  1.3017 -2.0198 -0.9948
  121MOL    H6114701   4.903   2.589   8.044 -1.0806 -0.8372  1.2065
  121MOL    C6214702   4.870   2.470   7.870  0.3146 -0.3669 -0.0298
  121MOL    C6314703   4.721   2.504   7.868  0.3283  0.5220  0.2860
  121MOL   Cl6414704   4.651   2.429   7.718  0.4550 -0.5140  0.2300
  121MOL    H6514705   4.894   2.365   7.852  4.3635 -0.0846  3.1571
  121MOL    H6614706   4.914   2.540   7.799  0.1655  0.8874  1.0962
  121MOL    H6714707   4.675   2.452   7.953  0.0508  0.0866 -0.1279
  121MOL    C6814708   4.687   2.657   7.873  0.7016 -0.1324 -0.1128
  121MOL    C6914709   4.543   2.696   7.835  0.4769  0.2095 -0.2815
  121MOL   Cl7014710   4.524   2.872   7.825  0.3090 -0.0304 -0.0742
  121MOL    H7114711   4.765   2.701   7.810  0.0274  1.0516 -0.1383
  121MOL    H7214712   4.696   2.693   7.975 -0.1129  0.8427 -0.3798
  121MOL    H7314713   4.530   2.656   7.734  0.6601  1.9329 -0.9939
  121MOL    C7414714   4.460   2.627   7.944  0.2215  0.2890 -0.0456
  121MOL    C7514715   4.310   2.672   7.936  0.6835 -0.0388 -0.0442
  121MOL   Cl7614716   4.220   2.606   8.069 -0.1459 -0.0645 -0.5995
  121MOL    H7714717   4.502   2.652   8.042 -0.5674  2.0920 -0.1472
  121MOL    H7814718   4.455   2.518   7.941 -1.3738  0.3821 -1.1470
  121MOL    H7914719   4.298   2.779   7.951  0.7382 -0.2093  1.2235
  121MOL    C8014720   4.247   2.619   7.801 -0.6350 -0.5533  0.3128
  121MOL    C8114721   4.115   2.681   7.752  0.8339 -0.0054 -0.1459
  121MOL   Cl8214722   4.060   2.577   7.622 -0.1328 -0.1662 -0.2168
  121MOL    H8314723   4.237   2.512   7.819  0.0913 -0.2938  2.3772
  121MOL    H8414724   4.319   2.634   7.721  1.7688 -3.8886  1.7114
  121MOL    H8514725   4.033   2.663   7.822  1.5693 -0.5007  0.5870
  121MOL    C8614726   4.119   2.824   7.709  0.5579 -0.7853 -0.0640
  121MOL    C8714727   4.002   2.908   7.720  0.4238 -0.1718  0.4665
  121MOL   Cl8814728   3.981   2.949   7.892  0.2237 -0.2825  0.2144
  121MOL    H8914729   4.151   2.837   7.606  3.2672 -0.9423  0.7301
  121MOL    H9014730   4.199   2.867   7.769 -0.4083  0.1721  0.5528
  121MOL    H9114731   4.018   3.005   7.673  0.5837 -1.3689 -2.0166
  121MOL    C9214732   3.859   2.862   7.675 -0.7347 -0.0675 -0.1363
  121MOL    C9314733   3.849   2.834   7.523  0.0294  0.2062 -0.7497
  121MOL   Cl9414734   3.838   2.986   7.436  0.4281  0.4395 -0.1974
  121MOL    H9514735   3.784   2.930   7.715 -0.2548  0.1855  0.3453
  121MOL    H9614736   3.830   2.770   7.725 -0.1307 -0.3593 -0.3180
  121MOL    H9714737   3.943   2.799   7.480  0.0885  0.6680 -1.0024
  121MOL    C9814738   3.734   2.731   7.486 -0.1374  0.4514 -0.6504
  121MOL    C9914739   3.589   2.785   7.513 -0.5360 -0.2869 -0.3168
  121MOL  Cl10014740   3.549   2.803   7.691 -0.1424 -0.3317 -0.6424
  121MOL   H10114741   3.743   2.636   7.540  0.0901 -1.0449 -3.2403
  121MOL   H10214742   3.737   2.708   7.379  3.1017 -0.1725 -0.4584
  121MOL   H10314743   3.585   2.887   7.475 -2.2124  0.1767  1.0580
  121MOL   C10414744   3.474   2.706   7.448  0.4311  0.3894 -0.0068
  121MOL   C10514745   3.481   2.701   7.296 -0.5527  0.2082 -0.2432
  121MOL  Cl10614746   3.454   2.866   7.222 -0.0657 -0.0995 -0.3696
  121MOL   H10714747   3.380   2.757   7.468 -0.0464 -0.9477  1.2855
  121MOL   H10814748   3.475   2.602   7.481 -0.8272 -0.0893 -1.4062
  121MOL   H10914749   3.575   2.663   7.256  0.8880  1.4529  1.8149
  121MOL   C11014750   3.374   2.605   7.239 -0.2364  0.4544  0.1134
  121MOL   C11114751   3.372   2.591   7.088  0.5797  0.0620  0.1925
  121MOL  Cl11214752   3.249   2.467   7.046  0.1992  0.2612 -0.2450
  121MOL   H11314753   3.275   2.623   7.282 -0.3154 -2.9599  1.5465
  121MOL   H11414754   3.385   2.508   7.287 -1.6428  0.5452  0.6481
  121MOL   H11514755   3.332   2.682   7.043  2.0731  0.7226  0.1623
  121MOL   C11614756   3.515   2.568   7.036 -0.4979  0.0946 -0.4484
  121MOL   C11714757   3.533   2.539   6.887  0.3565 -0.2594  0.2609
  121MOL  Cl11814758   3.705   2.515   6.853 -0.3464 -0.0813 -0.0084
  121MOL   H11914759   3.543   2.479   7.092  0.9699  0.9143  0.1663
  121MOL   H12014760   3.592   2.643   7.056 -1.5726  1.3111 -0.7622
  121MOL   H12114761   3.482   2.447   6.860  2.2181 -0.1956 -3.8643
  121MOL   H12214762   3.479   2.605   6.819  0.1730 -0.9822 -0.2955
  122MOL     C114763   6.335   5.231   4.257 -0.0389  0.5029  0.6396
  122MOL     C214764   6.207   5.158   4.198 -0.1343 -0.7709  0.4220
  122MOL    Cl314765   6.200   5.208   4.025  0.0533 -0.1366 -0.3044
  122MOL     H414766   6.348   5.220   4.364 -0.0664  0.6807  0.6618
  122MOL     H514767   6.428   5.216   4.201 -0.9688  2.0361 -1.4265
  122MOL     H614768   6.219   5.051   4.212 -1.1395 -0.9424  0.0386
  122MOL     H714769   6.327   5.338   4.237 -0.4428  0.1692 -1.1375
  122MOL     C814770   6.076   5.199   4.263  0.4544  0.1400 -0.8258
  122MOL     C914771   6.061   5.137   4.405 -0.1122  0.1199  0.3066
  122MOL   Cl1014772   6.026   4.961   4.401  0.1073  0.5647  0.0991
  122MOL    H1114773   5.994   5.159   4.204  1.5089 -2.9796 -0.2585
  122MOL    H1214774   6.065   5.308   4.264 -0.1972  0.0771  0.6779
  122MOL    H1314775   6.162   5.147   4.444  0.8029 -0.5634 -1.7969
  122MOL    C1414776   5.950   5.210   4.486  0.4511  0.2594  0.4361
  122MOL    C1514777   5.918   5.158   4.628  0.4575 -0.4801 -0.1909
  122MOL   Cl1614778   5.782   5.258   4.690  0.2008 -0.0394 -0.3625
  122MOL    H1714779   5.861   5.209   4.423 -0.3728  1.1424  1.5768
  122MOL    H1814780   5.972   5.316   4.498  1.8723 -0.0159  0.3135
  122MOL    H1914781   5.881   5.056   4.620 -1.3084  0.0811  0.6727
  122MOL    C2014782   6.048   5.186   4.714 -0.0492  0.3509  0.1764
  122MOL    C2114783   6.075   5.071   4.813  1.0905 -0.0963  0.0693
  122MOL   Cl2214784   6.122   4.920   4.730  0.0360  0.1844  0.0683
  122MOL    H2314785   6.047   5.285   4.761  1.7099  1.0314 -1.1445
  122MOL    H2414786   6.140   5.192   4.656 -0.0142  0.2616  0.2250
  122MOL    H2514787   6.162   5.101   4.871  1.2488 -1.9657  0.8452
  122MOL    C2614788   5.968   5.045   4.918 -0.0962 -0.3573 -0.1548
  122MOL    C2714789   5.904   5.162   4.999 -0.3829 -0.1409 -0.5723
  122MOL   Cl2814790   6.038   5.221   5.097  0.0590 -0.1375  0.3126
  122MOL    H2914791   5.999   4.959   4.977 -1.2773 -0.4723  0.3136
  122MOL    H3014792   5.885   4.995   4.868  2.0910 -1.0646 -3.2193
  122MOL    H3114793   5.876   5.246   4.935  2.9280  0.3388 -1.4786
  122MOL    C3214794   5.788   5.137   5.099 -0.3264 -0.2288 -0.0830
  122MOL    C3314795   5.655   5.114   5.027  0.3290 -1.0467 -0.7652
  122MOL   Cl3414796   5.597   5.279   4.991  0.1462  0.1723  0.1964
  122MOL    H3514797   5.778   5.217   5.172  0.6693 -1.5521  1.5538
  122MOL    H3614798   5.814   5.055   5.166 -1.0327 -0.7411 -0.4174
  122MOL    H3714799   5.657   5.054   4.936 -0.6799 -1.0968 -0.7509
  122MOL    C3814800   5.543   5.054   5.121 -0.1944 -0.2205 -0.1597
  122MOL    C3914801   5.562   4.907   5.148 -0.0036 -0.1685 -0.1492
  122MOL   Cl4014802   5.463   4.810   5.043  0.5219 -0.0187 -0.1397
  122MOL    H4114803   5.449   5.073   5.068  0.7404 -0.9095 -2.0945
  122MOL    H4214804   5.530   5.106   5.216 -0.9908 -1.0389  0.1918
  122MOL    H4314805   5.661   4.864   5.139  0.8789  1.5144  1.1999
  122MOL    C4414806   5.536   4.862   5.292 -0.1121 -0.5451 -0.4797
  122MOL    C4514807   5.632   4.928   5.401 -0.8998 -0.7431 -0.4017
  122MOL   Cl4614808   5.804   4.880   5.373  0.1788 -0.1214 -0.3485
  122MOL    H4714809   5.549   4.754   5.299  1.2441 -0.2391  3.1853
  122MOL    H4814810   5.431   4.880   5.318  0.2008 -1.4270  1.4851
  122MOL    H4914811   5.628   5.036   5.391  1.3088 -0.4391  1.7248
  122MOL    C5014812   5.583   4.883   5.534 -0.4641 -0.6640 -0.0742
  122MOL    C5114813   5.665   4.950   5.645  0.1178  0.4637  0.1624
  122MOL   Cl5214814   5.616   4.879   5.795  0.1336  0.0117 -0.1371
  122MOL    H5314815   5.586   4.775   5.548  1.2261 -0.4548  1.2258
  122MOL    H5414816   5.482   4.917   5.556  0.2426  1.0972  0.5209
  122MOL    H5514817   5.771   4.934   5.630  0.0034 -0.4011  0.2696
  122MOL    C5614818   5.652   5.108   5.663  0.4355  0.7247  0.9074
  122MOL    C5714819   5.703   5.161   5.794  0.0048  0.4935  0.2200
  122MOL   Cl5814820   5.681   5.341   5.774  0.2175  0.4087  0.1728
  122MOL    H5914821   5.545   5.129   5.672 -0.1247 -0.9107 -1.4740
  122MOL    H6014822   5.702   5.160   5.582  0.1832 -1.6553 -0.8332
  122MOL    H6114823   5.648   5.132   5.884  3.1587 -0.6028  1.8936
  122MOL    C6214824   5.857   5.130   5.819  0.0104 -0.0119  0.0692
  122MOL    C6314825   5.914   5.168   5.951 -0.1609  0.0260 -0.3462
  122MOL   Cl6414826   6.091   5.187   5.931  0.6429 -0.1791  0.3830
  122MOL    H6514827   5.910   5.201   5.755 -1.1004  1.7356  1.0532
  122MOL    H6614828   5.890   5.030   5.792 -0.0722  0.4333 -1.8159
  122MOL    H6714829   5.876   5.268   5.976 -0.6748 -0.1038 -0.5901
  122MOL    C6814830   5.890   5.062   6.064  0.6081 -0.6769  0.0757
  122MOL    C6914831   5.967   5.086   6.199 -0.5685 -0.1608  0.1703
  122MOL   Cl7014832   5.933   4.952   6.311 -0.2910 -0.0121 -0.0395
  122MOL    H7114833   5.929   4.969   6.024 -0.6293 -0.7350 -1.0406
  122MOL    H7214834   5.784   5.047   6.086  0.3388  1.0301  0.0128
  122MOL    H7314835   6.075   5.082   6.185 -0.5557  0.9548 -0.0872
  122MOL    C7414836   5.942   5.221   6.271  0.2284 -0.3630  0.0413
  122MOL    C7514837   6.045   5.254   6.388  0.5970 -0.1011 -0.2616
  122MOL   Cl7614838   5.963   5.367   6.492 -0.0929  0.0719 -0.2286
  122MOL    H7714839   5.843   5.223   6.315 -0.6658 -2.1713 -1.8047
  122MOL    H7814840   5.943   5.299   6.195 -2.1341  0.3418  0.7070
  122MOL    H7914841   6.049   5.167   6.452 -0.9237 -1.1333 -1.5246
  122MOL    C8014842   6.186   5.297   6.359 -0.5064  0.0126  0.0942
  122MOL    C8114843   6.283   5.299   6.480  0.0029 -0.1880  0.0717
  122MOL   Cl8214844   6.422   5.410   6.446 -0.1398 -0.1861  0.1146
  122MOL    H8314845   6.191   5.400   6.324 -1.4014 -0.5766 -1.8019
  122MOL    H8414846   6.228   5.239   6.277 -0.9487 -0.2083  0.0196
  122MOL    H8514847   6.245   5.344   6.571  1.0380  1.4662 -0.3007
  122MOL    C8614848   6.340   5.154   6.509 -0.0798  0.1403  0.5781
  122MOL    C8714849   6.436   5.129   6.628  0.7444 -0.5315  0.0038
  122MOL   Cl8814850   6.512   4.962   6.607  0.0345  0.2386 -0.3378
  122MOL    H8914851   6.389   5.106   6.424  1.2727 -1.5440  2.2702
  122MOL    H9014852   6.255   5.087   6.520  1.8005 -2.2504  1.1591
  122MOL    H9114853   6.515   5.204   6.629 -0.4280  0.7266  2.1535
  122MOL    C9214854   6.370   5.139   6.768 -0.7442  0.3243  0.2127
  122MOL    C9314855   6.463   5.112   6.894 -0.4902 -0.4066  0.2345
  122MOL   Cl9414856   6.358   5.075   7.031 -0.0455 -0.0173  0.2150
  122MOL    H9514857   6.294   5.062   6.765 -1.9071  1.5016 -1.9715
  122MOL    H9614858   6.321   5.236   6.778  2.0942  1.9763 -1.1785
  122MOL    H9714859   6.506   5.013   6.881 -0.1221  0.0274 -2.0683
  122MOL    C9814860   6.575   5.215   6.929  0.4657 -0.6208 -0.9222
  122MOL    C9914861   6.543   5.328   7.024  1.3589  0.1653  0.5136
  122MOL  Cl10014862   6.403   5.427   6.965  0.0836 -0.1603  0.0285
  122MOL   H10114863   6.634   5.248   6.844 -0.0469  0.4251 -0.8786
  122MOL   H10214864   6.645   5.156   6.989 -0.0051 -0.3896 -0.1334
  122MOL   H10314865   6.506   5.285   7.117  0.9834 -2.5144 -0.8384
  122MOL   C10414866   6.671   5.408   7.060  0.4913 -0.2247  0.2235
  122MOL   C10514867   6.669   5.533   7.160 -0.4837  0.1620  0.5187
  122MOL  Cl10614868   6.583   5.674   7.081  0.6102 -0.1439 -0.0999
  122MOL   H10714869   6.727   5.438   6.971  2.7349  0.6818  1.9236
  122MOL   H10814870   6.730   5.334   7.115  1.5394 -0.4680 -1.1973
  122MOL   H10914871   6.605   5.515   7.247  2.0854  1.7787  2.7960
  122MOL   C11014872   6.809   5.569   7.201 -0.2457 -0.3884 -0.5870
  122MOL   C11114873   6.877   5.500   7.317 -0.3310  0.7258 -0.0976
  122MOL  Cl11214874   6.763   5.507   7.456 -0.2939 -0.3614 -0.0438
  122MOL   H11314875   6.792   5.673   7.230  2.0795 -0.4083  1.0085
  122MOL   H11414876   6.877   5.587   7.118  0.6472 -0.4143  0.1385
  122MOL   H11514877   6.891   5.395   7.288  2.1335  1.3378 -1.2970
  122MOL   C11614878   7.009   5.571   7.355 -0.4404  0.0469 -0.6734
  122MOL   C11714879   7.086   5.493   7.463  0.0784  0.1795 -0.0890
  122MOL  Cl11814880   7.135   5.327   7.405  0.2214 -0.5868 -0.4948
  122MOL   H11914881   6.996   5.668   7.402  0.2633 -0.9611  1.6538
  122MOL   H12014882   7.069   5.578   7.264 -1.8136 -0.2022 -1.6074
  122MOL   H12114883   7.184   5.538   7.478  1.1586 -1.3561 -2.2069
  122MOL   H12214884   7.019   5.476   7.547 -2.1681 -3.2013 -2.3980
  123MOL     C114885   2.488   8.242   8.083  0.1731  1.0785 -0.4831
  123MOL     C214886   2.622   8.271   8.022 -1.2427 -0.7166 -0.2357
  123MOL    Cl314887   2.729   8.227   8.149 -0.1096  0.1299 -0.3915
  123MOL     H414888   2.407   8.257   8.011 -0.5873  0.9885  0.3484
  123MOL     H514889   2.472   8.140   8.117 -1.7092  1.2987 -0.6545
  123MOL     H614890   2.645   8.206   7.937 -0.5499  1.1557 -1.5091
  123MOL     H714891   2.468   8.324   8.152 -1.4438  0.3368 -0.0420
  123MOL     C814892   2.649   8.425   7.985  0.1008  0.4584 -0.0634
  123MOL     C914893   2.548   8.475   7.880 -0.5721 -0.5330 -0.4374
  123MOL   Cl1014894   2.572   8.379   7.732 -0.0415  0.3596  0.1010
  123MOL    H1114895   2.753   8.444   7.958  0.1515 -1.1793 -1.1270
  123MOL    H1214896   2.631   8.482   8.076 -1.1950  1.7734 -1.1255
  123MOL    H1314897   2.444   8.457   7.908  0.0108 -1.2513  1.3404
  123MOL    C1414898   2.555   0.103   7.849  0.2122  0.7871 -0.4473
  123MOL    C1514899   2.680   0.181   7.830 -0.0465  0.3175  0.1570
  123MOL   Cl1614900   2.623   0.345   7.794  0.1912  0.1563  0.0642
  123MOL    H1714901   2.509   0.151   7.935  0.0277 -1.3940  0.7148
  123MOL    H1814902   2.479   0.120   7.773 -0.4908 -0.5385 -0.0658
  123MOL    H1914903   2.747   0.192   7.915  1.3099 -0.6009 -0.7811
  123MOL    C2014904   2.750   0.137   7.698  0.0088  0.0008  0.2989
  123MOL    C2114905   2.879   0.217   7.656 -0.0084 -0.5111 -0.2605
  123MOL   Cl2214906   2.940   0.146   7.504  0.0608 -0.0624 -0.2462
  123MOL    H2314907   2.670   0.146   7.624  1.2696  2.0954 -0.8672
  123MOL    H2414908   2.775   0.031   7.707 -0.0077  0.0086  0.4322
  123MOL    H2514909   2.851   0.321   7.640 -1.9021 -0.8527  0.7509
  123MOL    C2614910   2.983   0.200   7.761 -0.4267  0.0963 -0.7825
  123MOL    C2714911   3.112   0.275   7.739 -0.2739 -0.0255  0.7731
  123MOL   Cl2814912   3.222   0.227   7.875 -0.1776 -0.1062 -0.1604
  123MOL    H2914913   3.009   0.094   7.763  0.4924  0.2476 -2.7288
  123MOL    H3014914   2.950   0.228   7.861  1.0069 -0.5562 -0.1061
  123MOL    H3114915   3.159   0.236   7.649 -1.2581  0.4939  0.0124
  123MOL    C3214916   3.078   0.423   7.735  0.5180  0.6037  0.2656
  123MOL    C3314917   3.203   0.495   7.696  0.2442 -0.0672 -0.2334
  123MOL   Cl3414918   3.171   0.668   7.718 -0.4578 -0.0891 -0.4087
  123MOL    H3514919   3.057   0.443   7.840  0.2370  0.9920  0.1345
  123MOL    H3614920   3.006   0.460   7.663  1.3315  0.8795 -0.4156
  123MOL    H3714921   3.284   0.475   7.766  2.6541 -1.6435 -3.3406
  123MOL    C3814922   3.277   0.460   7.557 -0.3944 -0.5667  0.2424
  123MOL    C3914923   3.189   0.448   7.431 -0.8209  0.2419  0.8785
  123MOL   Cl4014924   3.281   0.334   7.323 -0.1902  0.2792  0.1899
  123MOL    H4114925   3.317   0.360   7.570 -0.8059 -0.8687 -0.7679
  123MOL    H4214926   3.360   0.529   7.545  0.4881 -1.4214  1.3648
  123MOL    H4314927   3.102   0.389   7.461 -0.3078 -2.2845 -2.3039
  123MOL    C4414928   3.147   0.571   7.344  0.5185  0.2005 -0.5899
  123MOL    C4514929   3.000   0.619   7.369 -0.0418  0.3912 -0.3365
  123MOL   Cl4614930   2.883   0.491   7.319  0.0634 -0.2056  0.1231
  123MOL    H4714931   3.154   0.539   7.240 -1.9010 -3.4408  0.2708
  123MOL    H4814932   3.222   0.645   7.371 -0.7974  2.1669 -2.1508
  123MOL    H4914933   2.993   0.637   7.477 -0.6515 -1.3065 -0.0788
  123MOL    C5014934   2.964   0.747   7.301  0.0260 -0.1897 -0.1891
  123MOL    C5114935   2.930   0.868   7.389 -0.0060  0.2558  0.4721
  123MOL   Cl5214936   3.079   0.922   7.467  0.3973  0.1788  0.3547
  123MOL    H5314937   2.894   0.729   7.220 -1.2971  2.2110  0.3648
  123MOL    H5414938   3.046   0.790   7.243  0.6533 -2.0092 -0.6950
  123MOL    H5514939   2.890   0.947   7.325  1.4305  0.2063 -0.4887
  123MOL    C5614940   2.812   0.834   7.480  0.4766  0.9512 -0.6339
  123MOL    C5714941   2.681   0.774   7.413 -0.3912  1.6167 -0.6114
  123MOL   Cl5814942   2.613   0.898   7.303 -0.3660 -0.0208 -0.0120
  123MOL    H5914943   2.777   0.919   7.540 -1.0009 -0.5225  0.6335
  123MOL    H6014944   2.855   0.779   7.564 -1.4516  0.7117  0.2093
  123MOL    H6114945   2.719   0.690   7.354  3.5307 -0.6307  4.6697
  123MOL    C6214946   2.581   0.722   7.519 -0.5643  0.1717  0.4487
  123MOL    C6314947   2.470   0.636   7.473  0.3995  0.0403 -0.4022
  123MOL   Cl6414948   2.336   0.633   7.584 -0.4238 -0.5620 -0.3274
  123MOL    H6514949   2.552   0.815   7.568 -1.8337  0.2419 -0.4107
  123MOL    H6614950   2.635   0.654   7.585 -1.4211  0.3332  1.3316
  123MOL    H6714951   2.431   0.677   7.380 -0.6574 -0.2707 -0.1050
  123MOL    C6814952   2.522   0.491   7.446  0.1681 -0.3629 -0.4704
  123MOL    C6914953   2.418   0.398   7.379  0.0340 -0.1150  0.5113
  123MOL   Cl7014954   2.464   0.230   7.403  0.1120  0.0514  0.0241
  123MOL    H7114955   2.544   0.445   7.542 -2.5730  0.6584  0.7279
  123MOL    H7214956   2.619   0.496   7.397 -0.5490 -0.2450 -1.9254
  123MOL    H7314957   2.325   0.416   7.434  0.2158 -2.5564  1.6618
  123MOL    C7414958   2.390   0.419   7.226  0.1262 -0.4965  0.1822
  123MOL    C7514959   2.509   0.388   7.129  0.0904  0.4480 -0.2747
  123MOL   Cl7614960   2.599   0.536   7.094  0.2708 -0.4002 -0.0045
  123MOL    H7714961   2.362   0.523   7.211  1.5204 -0.3093 -1.1970
  123MOL    H7814962   2.298   0.370   7.194 -0.1347 -0.7635  1.2933
  123MOL    H7914963   2.583   0.324   7.177 -1.3033 -1.6890 -0.9006
  123MOL    C8014964   2.478   0.325   6.989 -0.1188  0.3348  0.1688
  123MOL    C8114965   2.407   0.187   6.975 -0.1945 -0.0706  0.1200
  123MOL   Cl8214966   2.511   0.072   7.054  0.0063  0.2654  0.2162
  123MOL    H8314967   2.575   0.315   6.939 -1.4221 -0.2416 -2.3242
  123MOL    H8414968   2.417   0.404   6.945 -1.9571 -1.8548 -1.3130
  123MOL    H8514969   2.308   0.194   7.022 -1.7205  0.9241 -3.0766
  123MOL    C8614970   2.391   0.149   6.827  0.0510 -0.1939 -0.0429
  123MOL    C8714971   2.368   8.525   6.795  0.1232 -0.8881 -0.2559
  123MOL   Cl8814972   2.385   8.510   6.620 -0.0447 -0.0734  0.0666
  123MOL    H8914973   2.480   0.184   6.775 -0.3519  0.6060 -0.2008
  123MOL    H9014974   2.304   0.202   6.790  0.2395 -0.2218 -0.5253
  123MOL    H9114975   2.431   8.459   6.854  2.6921  0.9401 -0.8509
  123MOL    C9214976   2.221   8.476   6.817  0.5982  0.0918  0.6779
  123MOL    C9314977   2.184   8.412   6.945 -0.1537 -0.9042  0.3854
  123MOL   Cl9414978   2.265   8.258   6.942 -0.2871 -0.1227 -0.1126
  123MOL    H9514979   2.194   8.410   6.735 -0.4825  2.0877 -0.6088
  123MOL    H9614980   2.157   0.038   6.804 -1.9943 -1.5118  2.1890
  123MOL    H9714981   2.213   8.467   7.035  0.0603  0.9003 -0.7794
  123MOL    C9814982   2.030   8.400   6.957 -0.0302  0.0253 -0.0541
  123MOL    C9914983   1.969   8.354   7.095 -0.0004 -0.3555 -0.7299
  123MOL  Cl10014984   1.824   8.263   7.062  0.0718  0.0097  0.0534
  123MOL   H10114985   2.000   8.317   6.893  0.3761 -0.8378  0.8686
  123MOL   H10214986   1.974   8.489   6.928  0.7810 -0.0029 -1.7694
  123MOL   H10314987   2.041   8.290   7.146 -0.5586  0.0302  0.5762
  123MOL   C10414988   1.920   8.467   7.184 -0.0492  0.4373  0.2086
  123MOL   C10514989   2.031   0.003   7.268  0.0474  0.0458 -0.6361
  123MOL  Cl10614990   2.105   8.414   7.397 -0.2821  0.0018 -0.3806
  123MOL   H10714991   1.849   8.425   7.256 -2.2080  1.3472 -1.3217
  123MOL   H10814992   1.864   0.011   7.121  2.7792  0.8712 -1.9192
  123MOL   H10914993   2.117   0.024   7.204  1.2012 -0.3536  0.7858
  123MOL   C11014994   1.985   0.134   7.343  0.2228  0.3546  0.5492
  123MOL   C11114995   1.858   0.119   7.434  0.2253  0.0368 -0.7791
  123MOL  Cl11214996   1.753   0.266   7.410  0.1711 -0.0884 -0.2236
  123MOL   H11314997   1.974   0.214   7.270  1.6489  1.0568  1.0827
  123MOL   H11414998   2.067   0.176   7.403  0.1278 -0.0258  0.9502
  123MOL   H11514999   1.787   0.044   7.398 -0.9273 -0.0283  1.5506
  123MOL   C11615000   1.883   0.100   7.585  0.5163  0.0856 -0.4903
  123MOL   C11715001   1.755   0.093   7.677 -0.2484  0.3358  0.4320
  123MOL  Cl11815002   1.815   0.072   7.845 -0.1196 -0.0884 -0.0475
  123MOL   H11915003   1.959   0.174   7.610 -1.0841  1.9888 -1.0927
  123MOL   H12015004   1.931   0.004   7.603 -1.4333 -0.9515 -0.7527
  123MOL   H12115005   1.685   0.177   7.678  1.0455  1.4432 -0.6023
  123MOL   H12215006   1.702   8.525   7.655  1.4798 -0.8309  1.1409
  124MOL     C115007   6.832   7.269   2.801  0.4197 -0.5024  0.5046
  124MOL     C215008   6.872   7.226   2.941  0.2779 -0.0794  0.0719
  124MOL    Cl315009   7.005   7.325   2.994  0.0776  0.2368 -0.1600
  124MOL     H415010   6.742   7.218   2.765 -1.0099  1.4917  1.1865
  124MOL     H515011   6.809   7.375   2.804 -1.9680 -0.9713  0.1679
  124MOL     H615012   6.791   7.255   3.008  1.4795  3.7583 -0.0109
  124MOL     H715013   6.904   7.259   2.720  0.3795  1.2144  0.2485
  124MOL     C815014   6.903   7.077   2.941 -0.5447 -0.0834  0.0298
  124MOL     C915015   6.938   7.011   3.073  0.1570  0.0090 -0.3926
  124MOL   Cl1015016   7.014   6.856   3.040 -0.0298 -0.0278 -0.1409
  124MOL    H1115017   6.987   7.085   2.872 -1.0197  0.1307 -0.5238
  124MOL    H1215018   6.825   7.023   2.888 -1.5766  0.4307  1.0047
  124MOL    H1315019   7.023   7.067   3.113  0.4722 -0.1479 -0.8312
  124MOL    C1415020   6.824   7.000   3.173  0.0759 -0.3462  0.4714
  124MOL    C1515021   6.875   6.955   3.314 -0.5132  0.8547  0.4881
  124MOL   Cl1615022   6.736   6.885   3.406 -0.1145 -0.0781 -0.1657
  124MOL    H1715023   6.742   6.935   3.143  0.1391 -0.5714  0.7860
  124MOL    H1815024   6.775   7.098   3.180  1.3346  0.3886 -0.8444
  124MOL    H1915025   6.947   6.876   3.293 -0.2849  1.2671 -0.3298
  124MOL    C2015026   6.927   7.075   3.388  0.4283 -0.1174  0.0986
  124MOL    C2115027   6.968   7.064   3.543 -0.4427 -0.0603 -0.2674
  124MOL   Cl2215028   6.816   7.091   3.630  0.1887  0.2795  0.1244
  124MOL    H2315029   6.858   7.159   3.378  0.6489  0.2057  1.2185
  124MOL    H2415030   7.013   7.106   3.328 -0.0050  0.1821 -0.3666
  124MOL    H2515031   7.005   6.966   3.574 -0.9454 -0.7575 -1.8014
  124MOL    C2615032   7.063   7.180   3.568  0.6643 -0.5915  0.2170
  124MOL    C2715033   7.208   7.146   3.566 -0.0518 -0.0369  0.7336
  124MOL   Cl2815034   7.234   7.025   3.701 -0.1931 -0.0401  0.1270
  124MOL    H2915035   7.045   7.233   3.661  0.7892 -0.7448  0.3279
  124MOL    H3015036   7.043   7.254   3.490 -4.3025  0.2872  2.1780
  124MOL    H3115037   7.226   7.101   3.468 -0.5777 -1.5050  1.2939
  124MOL    C3215038   7.296   7.272   3.590  0.2300  0.2975  0.0568
  124MOL    C3315039   7.291   7.387   3.484 -0.0828 -0.1803 -0.1365
  124MOL   Cl3415040   7.292   7.319   3.319 -0.0822 -0.2014  0.0974
  124MOL    H3515041   7.399   7.239   3.603 -0.3307 -1.9858 -1.0055
  124MOL    H3615042   7.272   7.314   3.688 -1.1002  1.7821 -0.8712
  124MOL    H3715043   7.192   7.430   3.501  0.7404  2.2062 -1.1005
  124MOL    C3815044   7.405   7.495   3.496  0.9128 -0.2299  0.0230
  124MOL    C3915045   7.375   7.627   3.430 -0.9525  0.0021 -0.1034
  124MOL   Cl4015046   7.523   7.718   3.398  0.0685  0.1185 -0.1843
  124MOL    H4115047   7.498   7.456   3.454  0.7053  0.4245 -1.0618
  124MOL    H4215048   7.431   7.515   3.600 -0.4584 -1.8581  0.7111
  124MOL    H4315049   7.314   7.610   3.342 -1.4797  0.9547  0.0686
  124MOL    C4415050   7.285   7.714   3.527 -0.2832 -0.4937  0.0627
  124MOL    C4515051   7.257   7.859   3.475 -0.1188  0.0944  0.4103
  124MOL   Cl4615052   7.156   7.938   3.593 -0.4738 -0.3846 -0.2645
  124MOL    H4715053   7.345   7.727   3.617 -1.3908  3.1425  0.3457
  124MOL    H4815054   7.188   7.670   3.550 -0.6459  0.2117 -0.0960
  124MOL    H4915055   7.348   7.917   3.461 -0.8776  0.9774 -1.0117
  124MOL    C5015056   7.184   7.868   3.338  0.6169 -0.1386  0.1048
  124MOL    C5115057   7.158   8.010   3.278 -0.7822 -0.4450  0.7293
  124MOL   Cl5215058   7.083   7.996   3.114 -0.0131 -0.0857 -0.0689
  124MOL    H5315059   7.093   7.816   3.365  0.5832 -0.6463 -0.9436
  124MOL    H5415060   7.233   7.801   3.267  1.0216 -1.5626  1.6742
  124MOL    H5515061   7.089   8.066   3.341  0.2419  0.3372  1.1798
  124MOL    C5615062   7.288   8.095   3.270  0.1558 -0.2803 -0.4205
  124MOL    C5715063   7.279   8.234   3.204  0.0451 -0.0651 -0.5320
  124MOL   Cl5815064   7.420   8.268   3.114  0.3605  0.3703  0.0015
  124MOL    H5915065   7.356   8.037   3.208 -1.9590 -0.1933 -2.8568
  124MOL    H6015066   7.337   8.107   3.367  3.0976 -0.1174 -1.8611
  124MOL    H6115067   7.202   8.219   3.128 -0.3447 -1.3983  0.1080
  124MOL    C6215068   7.236   8.351   3.301  0.4042 -0.4672  0.3865
  124MOL    C6315069   7.111   8.433   3.252 -0.3550  0.0588 -0.0070
  124MOL   Cl6415070   7.133   8.474   3.081  0.0879 -0.1054 -0.0181
  124MOL    H6515071   7.320   8.411   3.336 -0.7699  1.0597  0.6765
  124MOL    H6615072   7.205   8.308   3.396 -2.2271 -0.5295 -0.4692
  124MOL    H6715073   7.018   8.375   3.246 -0.3414  0.1467 -1.3646
  124MOL    C6815074   7.087   0.032   3.340 -0.0154  0.4017 -0.0513
  124MOL    C6915075   6.985   8.524   3.455 -0.4060  0.3263 -0.0751
  124MOL   Cl7015076   6.820   8.521   3.390  0.0128  0.0334 -0.0615
  124MOL    H7115077   7.043   0.106   3.273 -3.7327 -2.2548 -0.6704
  124MOL    H7215078   7.173   0.083   3.383 -0.2354  1.0594 -0.3741
  124MOL    H7315079   7.002   8.423   3.493  0.7727  1.5005  2.6246
  124MOL    C7415080   6.981   0.092   3.576  0.8937  0.1646  0.2597
  124MOL    C7515081   7.109   0.120   3.649 -0.0544 -0.4643  0.0239
  124MOL   Cl7615082   7.190   8.487   3.669  0.0063 -0.1979  0.1163
  124MOL    H7715083   6.899   0.050   3.634 -0.5311 -0.9399 -2.4808
  124MOL    H7815084   6.949   0.186   3.531 -0.0685 -0.2278  0.1167
  124MOL    H7915085   7.188   0.176   3.598  0.0256  0.3758  1.0454
  124MOL    C8015086   7.079   0.186   3.786  0.4210 -0.2906 -0.4098
  124MOL    C8115087   7.019   0.330   3.780 -0.3671  0.8235 -0.2314
  124MOL   Cl8215088   7.143   0.440   3.701  0.0020  0.1709 -0.1862
  124MOL    H8315089   7.171   0.178   3.843  0.0229  1.5447  0.5302
  124MOL    H8415090   7.000   0.136   3.843  0.3875 -0.7212 -0.8310
  124MOL    H8515091   6.924   0.343   3.727 -1.2610 -1.5257  0.7339
  124MOL    C8615092   6.988   0.387   3.923 -0.0332 -0.4098 -0.4371
  124MOL    C8715093   6.862   0.333   3.997  0.6146 -0.5869  0.7127
  124MOL   Cl8815094   6.713   0.385   3.907  0.1192 -0.0863  0.1415
  124MOL    H8915095   6.986   0.495   3.910  3.2042 -0.4448 -1.9068
  124MOL    H9015096   7.081   0.369   3.978  0.5066  0.7217 -0.9661
  124MOL    H9115097   6.863   0.225   4.007  1.3379 -0.6995 -0.4814
  124MOL    C9215098   6.860   0.407   4.134 -0.0179 -1.2270  0.0414
  124MOL    C9315099   6.957   0.355   4.241  0.3687 -0.3587  0.0389
  124MOL   Cl9415100   6.914   0.183   4.271  0.0277 -0.6457 -0.0482
  124MOL    H9515101   6.756   0.404   4.166  0.5347 -0.1787  2.0361
  124MOL    H9615102   6.874   0.513   4.113 -2.4250 -0.1549  3.4542
  124MOL    H9715103   7.063   0.349   4.216  0.4823  0.1382  0.3719
  124MOL    C9815104   6.929   0.437   4.369 -0.1520  0.3216 -0.1857
  124MOL    C9915105   7.012   0.569   4.386  0.1288 -0.5633 -0.0849
  124MOL  Cl10015106   7.185   0.512   4.407 -0.0634  0.4386  0.1943
  124MOL   H10115107   6.962   0.371   4.449  0.4140 -0.8078 -1.3295
  124MOL   H10215108   6.825   0.467   4.378  0.0090  1.4269 -1.6529
  124MOL   H10315109   7.008   0.634   4.298 -2.0446 -2.1355 -1.1859
  124MOL   C10415110   6.972   0.649   4.517  0.6949  0.4137  0.0180
  124MOL   C10515111   7.065   0.777   4.549 -0.4887 -0.0109 -0.3768
  124MOL  Cl10615112   7.018   0.843   4.718 -0.0644  0.1068  0.0291
  124MOL   H10715113   6.985   0.583   4.603  1.8552  0.3383 -0.2058
  124MOL   H10815114   6.864   0.662   4.522  0.4286 -0.7151 -2.1477
  124MOL   H10915115   7.167   0.739   4.556 -0.8172 -0.7770  0.4582
  124MOL   C11015116   7.058   0.892   4.447 -0.7387  0.4426 -0.7915
  124MOL   C11115117   7.145   1.020   4.473 -0.1096  0.1714  0.0977
  124MOL  Cl11215118   7.093   1.134   4.354 -0.1427  0.4425  0.5804
  124MOL   H11315119   6.954   0.923   4.440 -1.9594 -3.3653 -0.2511
  124MOL   H11415120   7.085   0.850   4.349 -0.5018  1.0103 -0.9736
  124MOL   H11515121   7.128   1.058   4.573 -0.1053  0.7543 -0.1197
  124MOL   C11615122   7.288   0.992   4.438  0.4609 -0.1313  0.3014
  124MOL   C11715123   7.383   1.114   4.465 -0.2427  0.1012  0.5896
  124MOL  Cl11815124   7.552   1.068   4.490 -0.2966 -0.1451  0.0032
  124MOL   H11915125   7.302   0.957   4.335 -1.8632 -0.2575  0.0049
  124MOL   H12015126   7.321   0.905   4.495  2.2147  0.9513  0.9662
  124MOL   H12115127   7.384   1.175   4.374 -0.1659  0.0361  0.5478
  124MOL   H12215128   7.347   1.183   4.542 -1.7611  0.3010 -0.2826
  125MOL     C115129   7.291   6.315   0.539 -0.5665  0.2197 -0.3606
  125MOL     C215130   7.146   6.276   0.520  0.3133 -0.0887  0.1211
  125MOL    Cl315131   7.116   6.282   0.345  0.2362 -0.1386 -0.2193
  125MOL     H415132   7.325   6.416   0.517  2.0577 -0.8491 -1.3967
  125MOL     H515133   7.315   6.291   0.642  0.3690 -0.8735 -0.8212
  125MOL     H615134   7.129   6.175   0.558  0.3608  0.2899  1.1777
  125MOL     H715135   7.362   6.252   0.484 -2.6686 -1.8082 -0.8555
  125MOL     C815136   7.046   6.365   0.588  0.0446 -0.5925  0.0386
  125MOL     C915137   7.060   6.372   0.748 -0.6341  0.0991  0.3508
  125MOL   Cl1015138   7.018   6.211   0.804 -0.0207 -0.2396 -0.1060
  125MOL    H1115139   6.943   6.336   0.565 -0.3426 -0.8463  1.9804
  125MOL    H1215140   7.074   6.467   0.561  2.1312 -1.1965 -0.1301
  125MOL    H1315141   7.159   6.393   0.788 -0.3682  0.7124 -0.6138
  125MOL    C1415142   6.958   6.463   0.828 -0.2428  0.0261 -0.3220
  125MOL    C1515143   6.985   6.615   0.825 -0.5546 -0.1096 -0.2587
  125MOL   Cl1615144   7.144   6.640   0.899 -0.1592 -0.1040  0.2140
  125MOL    H1715145   6.967   6.433   0.932  1.0547 -2.1547 -1.0160
  125MOL    H1815146   6.860   6.436   0.788 -0.2466 -0.1315 -0.2070
  125MOL    H1915147   6.985   6.643   0.720 -2.0516 -1.7306 -0.7189
  125MOL    C2015148   6.889   6.712   0.894  0.7135  0.2149  0.1726
  125MOL    C2115149   6.745   6.716   0.847 -0.6738  0.5492 -0.5539
  125MOL   Cl2215150   6.737   6.736   0.669 -0.0487 -0.0478  0.2370
  125MOL    H2315151   6.928   6.811   0.873 -0.3478  0.7165  0.5351
  125MOL    H2415152   6.900   6.690   1.000 -0.2556  0.4645  0.3315
  125MOL    H2515153   6.694   6.621   0.858 -0.8081  0.7073  0.2643
  125MOL    C2615154   6.665   6.821   0.924 -0.5044 -0.5178 -0.6184
  125MOL    C2715155   6.518   6.851   0.886 -0.0238 -0.0435  0.5354
  125MOL   Cl2815156   6.453   6.990   0.979 -0.0515 -0.3211  0.5766
  125MOL    H2915157   6.715   6.915   0.902 -0.6721 -0.7877 -2.1838
  125MOL    H3015158   6.675   6.799   1.031  0.4541  0.3929 -0.5054
  125MOL    H3115159   6.521   6.880   0.781  1.9411  0.1127  0.6279
  125MOL    C3215160   6.429   6.725   0.895 -0.0585 -0.3476  0.2067
  125MOL    C3315161   6.290   6.730   0.822 -0.0686  0.3843 -0.0527
  125MOL   Cl3415162   6.185   6.850   0.899  0.0400 -0.5666  0.2956
  125MOL    H3515163   6.410   6.706   1.001  1.9571  1.9734  1.0357
  125MOL    H3615164   6.486   6.642   0.852 -0.4739  0.3035 -1.6332
  125MOL    H3715165   6.297   6.762   0.718  0.3066  1.0491  0.1684
  125MOL    C3815166   6.221   6.588   0.822  0.0860 -0.2414 -0.5948
  125MOL    C3915167   6.114   6.566   0.699  0.2602 -0.1350 -0.0861
  125MOL   Cl4015168   6.193   6.572   0.538 -0.2803  0.0129 -0.0174
  125MOL    H4115169   6.173   6.566   0.917  1.3571 -0.3134  0.0292
  125MOL    H4215170   6.291   6.506   0.811  0.9600  0.2784  0.9960
  125MOL    H4315171   6.072   6.466   0.702  0.2954 -0.0959  2.6713
  125MOL    C4415172   5.999   6.660   0.688  0.3227 -0.0308 -0.3703
  125MOL    C4515173   5.891   6.645   0.802 -0.0782  0.3787 -0.3154
  125MOL   Cl4615174   5.835   6.478   0.807  0.6177  0.0028  0.0939
  125MOL    H4715175   5.944   6.652   0.594 -0.9552  0.6573  0.2984
  125MOL    H4815176   6.027   6.765   0.692  0.6112 -0.0454 -1.5868
  125MOL    H4915177   5.937   6.663   0.899 -0.8749  2.4635 -0.3015
  125MOL    C5015178   5.769   6.733   0.780 -0.8866 -0.4809 -0.0489
  125MOL    C5115179   5.630   6.709   0.835  0.4629  0.3430  0.7214
  125MOL   Cl5215180   5.502   6.833   0.779 -0.0966  0.1009  0.2777
  125MOL    H5315181   5.750   6.741   0.673 -0.7708 -0.3218 -0.0584
  125MOL    H5415182   5.788   6.834   0.817  0.0691 -1.0197  0.9929
  125MOL    H5515183   5.594   6.615   0.793  1.8812 -0.2506  0.8065
  125MOL    C5615184   5.620   6.698   0.984  0.0601  0.3150 -0.2470
  125MOL    C5715185   5.677   6.807   1.087  0.1057 -0.6210  0.8412
  125MOL   Cl5815186   5.861   6.781   1.103  0.1602 -0.5546  0.2971
  125MOL    H5915187   5.659   6.598   1.002 -1.7381 -0.2726  0.5278
  125MOL    H6015188   5.516   6.682   1.014  0.1338  0.6153  0.1864
  125MOL    H6115189   5.655   6.903   1.039  2.2340 -0.8245 -0.6367
  125MOL    C6215190   5.612   6.793   1.232 -0.2392 -0.2306 -0.0927
  125MOL    C6315191   5.655   6.891   1.344 -0.5713 -0.2975  0.4403
  125MOL   Cl6415192   5.580   6.827   1.488  0.1871 -0.5577  0.1489
  125MOL    H6515193   5.642   6.693   1.262 -0.8998 -0.6748 -0.9101
  125MOL    H6615194   5.503   6.791   1.228 -0.2517 -0.8481  0.4794
  125MOL    H6715195   5.763   6.891   1.357 -0.6609  0.1099  1.2026
  125MOL    C6815196   5.610   7.037   1.319  0.4285 -0.2576  0.3220
  125MOL    C6915197   5.657   7.147   1.422 -0.1764  0.9901 -0.2099
  125MOL   Cl7015198   5.563   7.289   1.382 -0.2967 -0.1630  0.0275
  125MOL    H7115199   5.501   7.028   1.325  0.5278 -0.9615  1.2737
  125MOL    H7215200   5.639   7.067   1.218 -0.0049 -1.4428 -0.1725
  125MOL    H7315201   5.619   7.128   1.523  2.3247  2.4996  1.0659
  125MOL    C7415202   5.805   7.180   1.413  0.1039 -0.0787  0.5381
  125MOL    C7515203   5.854   7.289   1.513 -0.0392  0.2125 -0.2784
  125MOL   Cl7615204   6.029   7.332   1.498  0.0486 -0.3811 -0.4006
  125MOL    H7715205   5.821   7.210   1.310  2.4960 -0.9701  0.6293
  125MOL    H7815206   5.864   7.091   1.432  1.9843  1.3236  1.3755
  125MOL    H7915207   5.803   7.383   1.496  1.7306  1.5141  1.4215
  125MOL    C8015208   5.828   7.256   1.660  0.2841 -0.7520 -0.2768
  125MOL    C8115209   5.894   7.125   1.716 -0.7055  0.7524 -0.0819
  125MOL   Cl8215210   5.771   6.995   1.729  0.3292 -0.2250  0.1485
  125MOL    H8315211   5.719   7.249   1.664  0.3202 -0.9455  0.3665
  125MOL    H8415212   5.852   7.351   1.709 -2.6020  0.7165 -1.5847
  125MOL    H8515213   5.970   7.094   1.644 -1.7785 -1.9502 -0.0806
  125MOL    C8615214   5.956   7.152   1.853 -0.4214 -0.0101  0.8446
  125MOL    C8715215   6.035   7.031   1.904  0.4150 -0.1451 -0.4716
  125MOL   Cl8815216   6.107   7.061   2.069 -0.3423 -0.3930  0.2563
  125MOL    H8915217   5.886   7.186   1.930 -0.7451 -1.0389  1.0055
  125MOL    H9015218   6.035   7.227   1.847  0.4442 -0.9288  0.7510
  125MOL    H9115219   5.952   6.963   1.922  0.5341  0.2199  1.4947
  125MOL    C9215220   6.147   6.967   1.808 -0.1144  0.5882  0.7952
  125MOL    C9315221   6.252   6.868   1.862  0.6850  0.0806 -0.3869
  125MOL   Cl9415222   6.361   6.831   1.736 -0.5997 -0.1841  0.0132
  125MOL    H9515223   6.217   7.043   1.773  0.2189 -0.1796 -0.2469
  125MOL    H9615224   6.115   6.919   1.715  1.7589 -1.2949  1.0781
  125MOL    H9715225   6.315   6.914   1.939  1.4505 -0.2670 -0.8071
  125MOL    C9815226   6.191   6.742   1.918  0.3065 -1.0137  0.0481
  125MOL    C9915227   6.289   6.635   1.960  0.1874 -0.1419  0.2796
  125MOL  Cl10015228   6.198   6.486   1.973  0.0513  0.2978 -0.1216
  125MOL   H10115229   6.119   6.708   1.843  1.1677  0.4270 -1.4701
  125MOL   H10215230   6.136   6.769   2.008  1.0973  1.0168 -0.0456
  125MOL   H10315231   6.351   6.623   1.871  2.0410 -0.4759  1.5796
  125MOL   C10415232   6.365   6.659   2.092  0.7945  0.0804  0.3207
  125MOL   C10515233   6.510   6.598   2.099 -0.7302  0.8463 -0.0833
  125MOL  Cl10615234   6.614   6.661   1.968 -0.2776 -0.2712  0.1953
  125MOL   H10715235   6.313   6.626   2.182  1.8489  0.7188  1.1807
  125MOL   H10815236   6.390   6.762   2.114 -2.0675  0.6740  1.0067
  125MOL   H10915237   6.565   6.628   2.188 -1.1997 -1.9794  1.2007
  125MOL   C11015238   6.517   6.444   2.100  0.3562  0.2210  0.3070
  125MOL   C11115239   6.429   6.369   2.201 -0.3574  0.0897 -0.5013
  125MOL  Cl11215240   6.504   6.374   2.368  0.2355 -0.0051 -0.1057
  125MOL   H11315241   6.619   6.412   2.117  0.3628  0.2141  0.2516
  125MOL   H11415242   6.499   6.408   1.998 -1.4340 -0.4948  0.8645
  125MOL   H11515243   6.330   6.416   2.203  0.2025  1.2748  1.1914
  125MOL   C11615244   6.408   6.216   2.178  0.4543  0.5226  0.6687
  125MOL   C11715245   6.330   6.188   2.046 -0.5520  0.2687  0.8031
  125MOL  Cl11815246   6.348   6.029   1.980 -0.3294 -0.0657  0.2336
  125MOL   H11915247   6.348   6.184   2.263  1.2507  1.9843  1.8048
  125MOL   H12015248   6.500   6.160   2.166 -0.2943 -0.5792 -0.0117
  125MOL   H12115249   6.225   6.204   2.073 -0.2770  3.1005  0.3496
  125MOL   H12215250   6.356   6.257   1.966  1.3712  0.9391  1.9676
  126MOL     C115251   1.250   2.838   6.548  0.1449 -0.4444  0.0076
  126MOL     C215252   1.243   2.690   6.509  0.1903 -0.4346  1.0948
  126MOL    Cl315253   1.293   2.670   6.336 -0.1753  0.0805  0.0912
  126MOL     H415254   1.352   2.867   6.524 -0.3052  0.3048 -1.0677
  126MOL     H515255   1.177   2.895   6.489 -0.4667 -1.1119  0.1185
  126MOL     H615256   1.318   2.637   6.567  0.1199 -0.2797  1.3260
  126MOL     H715257   1.227   2.863   6.651  0.4911 -0.2246  0.0313
  126MOL     C815258   1.109   2.625   6.526  1.0017  0.5599  0.0151
  126MOL     C915259   1.074   2.612   6.678  0.2604  0.2946 -0.2552
  126MOL   Cl1015260   1.192   2.508   6.758 -0.1506  0.5471 -0.1391
  126MOL    H1115261   1.109   2.524   6.486 -2.9749 -0.9136  3.4187
  126MOL    H1215262   1.039   2.686   6.468 -0.5360 -1.5146 -0.3474
  126MOL    H1315263   1.077   2.712   6.721 -0.6862 -0.1588  0.8804
  126MOL    C1415264   0.938   2.551   6.705 -0.2180 -0.3517  0.3511
  126MOL    C1515265   0.815   2.612   6.630 -0.0356  0.0182  0.1951
  126MOL   Cl1615266   0.809   2.791   6.670 -0.1605  0.1678  0.0982
  126MOL    H1715267   0.919   2.562   6.811 -0.0638  2.3300  0.1279
  126MOL    H1815268   0.946   2.446   6.675 -0.5765 -0.3728  0.3368
  126MOL    H1915269   0.836   2.593   6.525  4.0071 -0.5254  0.9981
  126MOL    C2015270   0.676   2.553   6.667 -0.7911  0.0916  0.0655
  126MOL    C2115271   0.671   2.402   6.662  0.0531 -0.0304  0.6565
  126MOL   Cl2215272   0.685   2.351   6.491  0.3782 -0.0739  0.0895
  126MOL    H2315273   0.598   2.612   6.619  0.7065 -1.0187 -3.9398
  126MOL    H2415274   0.663   2.586   6.770 -1.8922 -0.1397  0.0150
  126MOL    H2515275   0.759   2.351   6.702  1.5695  2.1732  0.2505
  126MOL    C2615276   0.537   2.350   6.725 -0.0648 -0.2206 -0.2492
  126MOL    C2715277   0.527   2.201   6.721 -0.2555  0.2534 -0.1260
  126MOL   Cl2815278   0.348   2.171   6.719  0.0457  0.0545 -0.1352
  126MOL    H2915279   0.461   2.390   6.658 -0.9863 -1.0279  0.3063
  126MOL    H3015280   0.517   2.376   6.829 -0.1620  0.5328 -0.4526
  126MOL    H3115281   0.556   2.142   6.634  0.9652 -0.2555  0.6145
  126MOL    C3215282   0.579   2.126   6.843  0.0229  0.3882 -0.6168
  126MOL    C3315283   0.729   2.097   6.867  0.0338 -0.3863  0.8779
  126MOL   Cl3415284   0.783   2.004   6.720  0.0076 -0.0993  0.2781
  126MOL    H3515285   0.524   2.032   6.842 -0.7160  0.8173 -1.1337
  126MOL    H3615286   0.531   2.173   6.929  1.7122  0.7471  0.1517
  126MOL    H3715287   0.785   2.189   6.881 -1.5148  0.8330 -0.6727
  126MOL    C3815288   0.754   2.005   6.988  0.3182 -0.2146  0.1627
  126MOL    C3915289   0.728   2.066   7.124  0.0527  0.2817  0.1752
  126MOL   Cl4015290   0.860   2.187   7.156 -0.0782  0.1064  0.0848
  126MOL    H4115291   0.856   1.968   6.999  0.4668  0.0252 -0.3607
  126MOL    H4215292   0.697   1.912   6.983 -1.8824  0.9201  2.9476
  126MOL    H4315293   0.637   2.124   7.107 -0.9522 -1.7274 -1.4856
  126MOL    C4415294   0.719   1.970   7.242 -0.0803  0.1132  0.0906
  126MOL    C4515295   0.692   2.040   7.376  0.4916  0.3088  0.3778
  126MOL   Cl4615296   0.783   1.937   7.497 -0.1685  0.0066 -0.1517
  126MOL    H4715297   0.818   1.924   7.252  1.0215  2.8716  2.9573
  126MOL    H4815298   0.645   1.892   7.227 -0.1158 -0.3421  2.4989
  126MOL    H4915299   0.737   2.139   7.386 -1.1121  0.9360  1.4806
  126MOL    C5015300   0.544   2.048   7.423  1.0728 -0.0470 -0.0644
  126MOL    C5115301   0.439   2.090   7.314  0.2684  0.1357  0.5498
  126MOL   Cl5215302   0.463   2.264   7.267 -0.2384 -0.0414  0.1581
  126MOL    H5315303   0.529   2.100   7.517 -0.5972  0.3709 -0.5504
  126MOL    H5415304   0.513   1.945   7.440  0.7061  0.0050 -0.3881
  126MOL    H5515305   0.467   2.036   7.223  0.4690  0.0968  0.6341
  126MOL    C5615306   0.297   2.063   7.361 -0.4032 -0.2694  0.6716
  126MOL    C5715307   0.185   2.055   7.249 -0.6091 -0.3239 -0.6935
  126MOL   Cl5815308   0.162   2.209   7.169  0.0085 -0.1819 -0.0979
  126MOL    H5915309   0.280   2.140   7.437  1.0223  1.6023 -0.8395
  126MOL    H6015310   0.304   1.968   7.413  0.1010  0.7065  2.4444
  126MOL    H6115311   0.210   1.994   7.163 -1.5553  0.3018 -1.4244
  126MOL    C6215312   0.042   2.026   7.307  0.6793 -0.3035 -0.1612
  126MOL    C6315313   0.030   1.878   7.342 -0.0053  0.4748 -0.8211
  126MOL   Cl6415314   0.044   1.774   7.203 -0.0900  0.0712  0.0219
  126MOL    H6515315   8.489   2.059   7.239 -0.2049 -0.2693  0.8399
  126MOL    H6615316   0.028   2.087   7.397  1.6552  1.0391 -0.9100
  126MOL    H6715317   0.116   1.855   7.405 -1.1441 -0.0247  0.5920
  126MOL    C6815318   8.425   1.842   7.425  0.7724  0.1248  0.2871
  126MOL    C6915319   8.288   1.844   7.357  0.7133  0.1488  0.2189
  126MOL   Cl7015320   8.242   2.010   7.333 -0.0460 -0.4107  0.1858
  126MOL    H7115321   8.432   1.925   7.496  1.0756  0.8104 -0.5419
  126MOL    H7215322   8.451   1.748   7.475  1.8873  0.8395  1.0897
  126MOL    H7315323   8.301   1.798   7.259  0.4513  0.5879 -0.0228
  126MOL    C7415324   8.182   1.761   7.433 -0.1862 -0.2686 -0.1724
  126MOL    C7515325   8.145   1.816   7.578  0.6703 -0.2337 -0.3741
  126MOL   Cl7615326   8.206   1.694   7.695 -0.0668  0.1353  0.0786
  126MOL    H7715327   8.220   1.660   7.440 -0.8247 -0.5020 -0.0655
  126MOL    H7815328   8.093   1.757   7.370 -0.9653  0.7740  0.8360
  126MOL    H7915329   8.198   1.909   7.597  0.9274  0.1995 -3.0105
  126MOL    C8015330   7.995   1.842   7.594  1.0415 -0.5992 -0.3071
  126MOL    C8115331   7.945   1.898   7.729  0.9731 -1.1342  0.0679
  126MOL   Cl8215332   7.777   1.930   7.698 -0.0609 -0.0135 -0.2463
  126MOL    H8315333   7.951   1.746   7.563 -2.0997 -0.6329  3.8312
  126MOL    H8415334   7.967   1.917   7.520 -0.7702  1.4734  2.3926
  126MOL    H8515335   7.956   1.818   7.801 -0.8493 -1.1952  0.3037
  126MOL    C8615336   8.020   2.031   7.764 -0.0723  0.3732 -0.1025
  126MOL    C8715337   7.964   2.096   7.894 -0.6015  0.0257  0.1263
  126MOL   Cl8815338   8.040   2.251   7.922 -0.0460 -0.2520 -0.3688
  126MOL    H8915339   8.002   2.105   7.686 -0.0978  1.1031  0.5890
  126MOL    H9015340   8.127   2.010   7.759 -0.1678 -0.2778  0.4562
  126MOL    H9115341   7.860   2.120   7.871 -1.1974  0.0639  2.6987
  126MOL    C9215342   7.971   2.023   8.028  0.9806 -0.5029 -0.1958
  126MOL    C9315343   8.110   2.013   8.107 -0.2602  0.1652  0.3059
  126MOL   Cl9415344   8.213   1.891   8.020 -0.2148  0.0908  0.0011
  126MOL    H9515345   7.934   1.920   8.019  0.2829 -0.4159  1.5549
  126MOL    H9615346   7.895   2.068   8.091  1.3273 -0.4092  0.1588
  126MOL    H9715347   8.167   2.106   8.101  2.0680 -1.0238  2.9056
  126MOL    C9815348   8.087   1.968   8.252 -0.7470 -0.0985  0.9896
  126MOL    C9915349   7.998   2.058   8.350  0.6389  0.1340 -0.2579
  126MOL  Cl10015350   8.096   2.202   8.389  0.2080  0.3604  0.2213
  126MOL   H10115351   8.183   1.951   8.300  0.5109 -0.4105 -1.5281
  126MOL   H10215352   8.040   1.869   8.253  0.8443 -0.8744  0.9598
  126MOL   H10315353   7.911   2.097   8.296  1.7555  4.0261  0.6298
  126MOL   C10415354   7.948   1.997   8.481  0.4153 -1.1045 -0.5774
  126MOL   C10515355   7.827   1.912   8.461 -0.7117 -0.2828 -0.3855
  126MOL  Cl10615356   7.677   2.003   8.427 -0.1653  0.3811 -0.6195
  126MOL   H10715357   7.909   2.072   0.024  0.8320 -0.7367 -0.7378
  126MOL   H10815358   8.030   1.947   0.007 -1.0055 -1.8831  0.9570
  126MOL   H10915359   7.830   1.843   8.376  1.0268  1.0827 -1.4711
  126MOL   C11015360   7.798   1.826   0.062  0.2630 -0.5401 -0.2729
  126MOL   C11115361   7.685   1.729   0.059 -0.4590  0.1916 -0.1655
  126MOL  Cl11215362   7.645   1.691   0.226 -0.2139 -0.2255  0.1500
  126MOL   H11315363   7.793   1.891   0.150  1.4950 -1.8407  0.7692
  126MOL   H11415364   7.883   1.763   0.086 -0.3771 -1.6207 -0.8130
  126MOL   H11515365   7.596   1.781   0.024  0.5238  0.5140 -2.2282
  126MOL   C11615366   7.714   1.608   8.496 -0.5660 -1.4359  0.4728
  126MOL   C11715367   7.602   1.507   8.476  0.4283  0.3969  0.0209
  126MOL  Cl11815368   7.641   1.362   8.370 -0.2542  0.5361 -0.2085
  126MOL   H11915369   7.799   1.551   0.009  0.0080  0.0302  1.4333
  126MOL   H12015370   7.732   1.636   8.393 -0.8242 -2.6143  0.1004
  126MOL   H12115371   7.556   1.462   0.039  0.0489  0.8725  0.0705
  126MOL   H12215372   7.518   1.557   8.428  0.8964 -1.3127 -2.6459
  127MOL     C115373   5.284   1.294   3.367 -0.0368 -0.0933  0.0686
  127MOL     C215374   5.149   1.248   3.419 -0.0283  0.0770 -0.4785
  127MOL    Cl315375   5.101   1.096   3.338 -0.3218  0.0833 -0.3066
  127MOL     H415376   5.285   1.324   3.262  0.4408 -2.4233 -0.6341
  127MOL     H515377   5.329   1.375   3.425 -0.3739  0.8586 -0.9752
  127MOL     H615378   5.160   1.230   3.526 -1.3408 -0.3040 -0.4012
  127MOL     H715379   5.355   1.211   3.362 -0.7363 -0.8421  2.0667
  127MOL     C815380   5.033   1.351   3.412  0.3335  0.3509  0.2216
  127MOL     C915381   4.919   1.345   3.505  0.1963  0.3674 -0.1944
  127MOL   Cl1015382   4.795   1.217   3.470  0.0718  0.2452  0.1645
  127MOL    H1115383   4.993   1.360   3.311 -0.2799 -1.7826  0.2588
  127MOL    H1215384   5.079   1.447   3.435 -1.0130  0.5395  2.2470
  127MOL    H1315385   4.961   1.322   3.602 -0.3313  0.9158  0.1687
  127MOL    C1415386   4.856   1.484   3.521  0.1483  0.4793 -0.2574
  127MOL    C1515387   4.763   1.501   3.642 -0.1193  0.1503 -0.0628
  127MOL   Cl1615388   4.677   1.657   3.650  0.1909  0.1196  0.0108
  127MOL    H1715389   4.792   1.514   3.437  0.3551  0.8195 -0.2955
  127MOL    H1815390   4.929   1.565   3.530  1.8291 -0.8773 -1.4128
  127MOL    H1915391   4.692   1.421   3.618  1.8554 -0.8576 -2.8763
  127MOL    C2015392   4.839   1.483   3.776  0.2974 -0.1656 -0.1508
  127MOL    C2115393   4.788   1.534   3.917 -0.3012 -0.1176 -1.0653
  127MOL   Cl2215394   4.934   1.520   4.026 -0.0654  0.5331  0.3266
  127MOL    H2315395   4.931   1.538   3.763 -0.7957  1.0772 -2.9903
  127MOL    H2415396   4.865   1.379   3.799  1.7294  0.4428  1.0344
  127MOL    H2515397   4.767   1.641   3.903  1.1005  0.5391  1.5109
  127MOL    C2615398   4.658   1.471   3.968 -0.1556 -0.4730 -0.5535
  127MOL    C2715399   4.590   1.548   4.082 -0.1115 -0.1425  0.2115
  127MOL   Cl2815400   4.686   1.500   4.229 -0.5468  0.1913 -0.2917
  127MOL    H2915401   4.679   1.372   4.009 -0.6288  0.0910  1.0736
  127MOL    H3015402   4.594   1.470   3.880 -1.6774  0.7104  0.5093
  127MOL    H3115403   4.605   1.656   4.083 -0.2973 -0.1201  1.5682
  127MOL    C3215404   4.450   1.507   4.120 -0.1924  0.2637 -0.8563
  127MOL    C3315405   4.335   1.554   4.026 -0.1672  0.7314 -0.2881
  127MOL   Cl3415406   4.339   1.734   4.040 -0.0687 -0.3124 -0.3866
  127MOL    H3515407   4.424   1.530   4.223 -3.4419 -1.9003 -1.1146
  127MOL    H3615408   4.445   1.398   4.124 -1.2181  0.3754  1.1768
  127MOL    H3715409   4.367   1.515   3.929 -0.8316  0.1937 -0.2909
  127MOL    C3815410   4.191   1.516   4.054  0.6851 -0.2367 -1.3989
  127MOL    C3915411   4.086   1.585   3.962  0.4517  0.1774 -0.1619
  127MOL   Cl4015412   3.925   1.529   4.018  0.0164  0.1715  0.0720
  127MOL    H4115413   4.168   1.541   4.158  1.0077 -1.8176 -0.9318
  127MOL    H4215414   4.184   1.408   4.037  1.3025 -0.2266 -1.7327
  127MOL    H4315415   4.095   1.693   3.972 -1.5775  0.3832 -0.3397
  127MOL    C4415416   4.101   1.549   3.810 -0.0719  0.1238  0.5961
  127MOL    C4515417   4.202   1.635   3.729  0.7599  0.5049  0.9813
  127MOL   Cl4615418   4.150   1.803   3.738 -0.0224  0.4401 -0.5522
  127MOL    H4715419   4.010   1.592   3.768  0.4155  1.3652  0.7749
  127MOL    H4815420   4.101   1.441   3.794  3.9542  0.1014  0.3450
  127MOL    H4915421   4.303   1.636   3.771  0.2758 -0.5706  2.2256
  127MOL    C5015422   4.217   1.592   3.579 -0.1733  0.2094 -0.5024
  127MOL    C5115423   4.261   1.451   3.547 -0.9678  0.0271 -0.2299
  127MOL   Cl5215424   4.416   1.424   3.631  0.2004  0.1566 -0.1761
  127MOL    H5315425   4.284   1.660   3.526  0.2582  0.2649  0.1024
  127MOL    H5415426   4.118   1.604   3.537 -0.1875 -0.4092 -0.6511
  127MOL    H5515427   4.192   1.380   3.593 -2.4071  1.0943 -0.6812
  127MOL    C5615428   4.277   1.430   3.392  0.0603  0.2659  0.0213
  127MOL    C5715429   4.266   1.283   3.350  0.4268  0.0904 -0.1193
  127MOL   Cl5815430   4.113   1.202   3.388  0.1981  0.2699 -0.3338
  127MOL    H5915431   4.375   1.469   3.363 -0.5359  1.0360 -1.0186
  127MOL    H6015432   4.209   1.494   3.335  0.3501 -0.1102 -0.7577
  127MOL    H6115433   4.272   1.285   3.241  0.0032  0.2614 -0.1379
  127MOL    C6215434   4.379   1.198   3.401 -0.1829  0.9285 -0.2617
  127MOL    C6315435   4.388   1.061   3.327  0.1682  0.0042  0.0644
  127MOL   Cl6415436   4.394   0.926   3.444 -0.2200 -0.2194  0.3165
  127MOL    H6515437   4.353   1.179   3.505 -0.2925 -0.7630 -0.5676
  127MOL    H6615438   4.473   1.252   3.403 -0.3030  1.0909  2.0638
  127MOL    H6715439   4.303   1.030   3.267  1.5997 -1.2218 -1.4043
  127MOL    C6815440   4.509   1.038   3.235  0.2944  0.5622  0.3145
  127MOL    C6915441   4.523   1.142   3.113  0.2345 -0.0626  0.2057
  127MOL   Cl7015442   4.394   1.121   3.004  0.4481  0.3892  0.3364
  127MOL    H7115443   4.501   0.935   3.200  0.4495  0.0131  1.8783
  127MOL    H7215444   4.599   1.046   3.296 -0.1026  0.0262  0.9673
  127MOL    H7315445   4.515   1.241   3.158 -0.5038  0.0752 -0.2096
  127MOL    C7415446   4.651   1.145   3.028  0.4511  0.1110  0.1741
  127MOL    C7515447   4.780   1.176   3.111 -0.7570  0.3912  0.1144
  127MOL   Cl7615448   4.772   1.344   3.161 -0.1071  0.2386 -0.0142
  127MOL    H7715449   4.654   1.217   2.946 -0.3775 -1.0284 -0.8745
  127MOL    H7815450   4.662   1.045   2.986 -0.4591 -0.5390  1.4776
  127MOL    H7915451   4.774   1.122   3.205  3.4308  1.6002  1.2044
  127MOL    C8015452   4.908   1.151   3.035 -0.1427 -0.6034  0.5984
  127MOL    C8115453   4.944   1.000   3.005  0.6050 -0.4275 -0.3863
  127MOL   Cl8215454   4.892   0.896   3.142 -0.2147  0.1715  0.2291
  127MOL    H8315455   4.989   1.187   3.098  0.8503 -3.2459  0.9045
  127MOL    H8415456   4.901   1.211   2.945 -0.7388  0.8929  1.6270
  127MOL    H8515457   4.885   0.970   2.918  1.0455 -0.1117 -0.7965
  127MOL    C8615458   5.094   0.982   2.993 -0.7889  0.5023  0.1849
  127MOL    C8715459   5.143   1.065   2.879 -0.1502 -0.1433  0.5325
  127MOL   Cl8815460   5.079   1.003   2.721 -0.0552 -0.1141 -0.1505
  127MOL    H8915461   5.119   0.877   2.975 -3.0494  0.0411 -0.3926
  127MOL    H9015462   5.148   1.015   3.082  0.5057 -0.7631 -0.1135
  127MOL    H9115463   5.100   1.165   2.874  1.1343  0.4808  1.5278
  127MOL    C9215464   5.296   1.075   2.859  0.3094  0.3696  0.5552
  127MOL    C9315465   5.366   1.178   2.951 -0.7152 -0.2452 -0.3460
  127MOL   Cl9415466   5.289   1.334   2.917  0.1366 -0.1896  0.0389
  127MOL    H9515467   5.322   1.099   2.756  1.0281 -0.3477  0.5614
  127MOL    H9615468   5.332   0.972   2.862  0.7448  0.4351 -1.6172
  127MOL    H9715469   5.339   1.171   3.057  1.1337  0.5234  0.1888
  127MOL    C9815470   5.516   1.192   2.930  0.7794  0.2224  0.7121
  127MOL    C9915471   5.598   1.268   3.037 -0.3944 -0.2930 -0.0783
  127MOL  Cl10015472   5.587   1.180   3.184 -0.5958 -0.2603  0.1532
  127MOL   H10115473   5.534   1.237   2.832 -2.0115  1.2598  0.6121
  127MOL   H10215474   5.555   1.091   2.915  2.2329  0.7598  0.8145
  127MOL   H10315475   5.701   1.261   3.003 -0.9457 -0.0793 -1.8318
  127MOL   C10415476   5.568   1.415   3.051  0.1882 -0.3993  0.4876
  127MOL   C10515477   5.672   1.499   3.121 -0.5699  0.4827  0.0431
  127MOL  Cl10615478   5.594   1.644   3.192  0.0096  0.3419 -0.1340
  127MOL   H10715479   5.475   1.437   3.104  0.8548 -0.6085  1.7666
  127MOL   H10815480   5.568   1.459   2.951  2.6224 -1.3980  0.0023
  127MOL   H10915481   5.706   1.445   3.209 -0.4213 -0.8441 -0.8091
  127MOL   C11015482   5.796   1.534   3.034  0.3077 -0.1514 -0.1852
  127MOL   C11115483   5.907   1.611   3.104  0.0420  0.0613 -0.0901
  127MOL  Cl11215484   6.015   1.669   2.978 -0.1560 -0.1227 -0.0941
  127MOL   H11315485   5.754   1.595   2.954 -4.3813 -0.3282  1.9831
  127MOL   H11415486   5.825   1.440   2.987 -0.1078 -0.3378 -0.0668
  127MOL   H11515487   5.869   1.699   3.156  2.0929  0.6966  0.3724
  127MOL   C11615488   5.985   1.533   3.215 -0.8114  0.8996 -0.2135
  127MOL   C11715489   6.108   1.600   3.282 -0.1367  0.3796  0.2435
  127MOL  Cl11815490   6.035   1.719   3.394  0.0788 -0.0828  0.6445
  127MOL   H11915491   6.018   1.442   3.165  2.3600 -0.3007  3.7656
  127MOL   H12015492   5.920   1.489   3.291  0.6310 -1.6157 -0.3666
  127MOL   H12115493   6.175   1.529   3.331 -0.2935  0.0332 -0.0429
  127MOL   H12215494   6.169   1.664   3.217  1.1294  1.0074  1.9934
  128MOL     C115495   7.153   3.087   0.234 -0.0307  0.0033  0.1523
  128MOL     C215496   7.234   3.203   0.295 -0.4556  0.7154 -0.3767
  128MOL    Cl315497   7.336   3.135   0.429 -0.5423 -0.5281 -0.0533
  128MOL     H415498   7.102   3.035   0.316 -1.8568  0.1709 -0.8510
  128MOL     H515499   7.079   3.135   0.170  0.8019 -0.1651 -0.9414
  128MOL     H615500   7.291   3.257   0.219  0.1663  0.9865  0.2800
  128MOL     H715501   7.211   3.023   0.168 -0.5158 -0.0011 -0.2702
  128MOL     C815502   7.143   3.294   0.381  0.5787  0.3915  0.1853
  128MOL     C915503   7.052   3.394   0.303 -0.5630  0.2790 -0.1760
  128MOL   Cl1015504   7.147   3.529   0.232 -0.2276 -0.3015  0.3504
  128MOL    H1115505   7.198   3.352   0.456 -1.1989  1.1247  0.9496
  128MOL    H1215506   7.079   3.220   0.431  0.8050 -1.6233 -2.4225
  128MOL    H1315507   7.006   3.356   0.212 -0.4887 -0.2935  0.0254
  128MOL    C1415508   6.939   3.463   0.383  0.2494 -0.2676 -1.2738
  128MOL    C1515509   6.810   3.383   0.421  0.1959  0.0599 -0.4135
  128MOL   Cl1615510   6.724   3.336   0.273  0.0049  0.0761  0.5366
  128MOL    H1715511   6.908   3.557   0.338 -0.7755  0.7893  1.5027
  128MOL    H1815512   6.980   3.492   0.480 -0.2258 -2.3283 -0.4272
  128MOL    H1915513   6.840   3.292   0.473  0.4521 -0.1856 -0.9798
  128MOL    C2015514   6.712   3.476   0.507  0.0303  0.6896 -0.2368
  128MOL    C2115515   6.617   3.394   0.594 -0.5720 -0.3810  0.4507
  128MOL   Cl2215516   6.482   3.513   0.623 -0.2305  0.0703 -0.3850
  128MOL    H2315517   6.660   3.554   0.451  0.8186  1.0927 -0.4176
  128MOL    H2415518   6.767   3.539   0.578  0.0422 -0.1208  0.4769
  128MOL    H2515519   6.568   3.310   0.545 -1.0958 -0.9406  1.9179
  128MOL    C2615520   6.676   3.353   0.730  0.0838  0.4472  0.0759
  128MOL    C2715521   6.582   3.265   0.810  0.4457 -0.2527 -0.4269
  128MOL   Cl2815522   6.595   3.317   0.980 -0.6840  0.4429  0.2976
  128MOL    H2915523   6.703   3.440   0.791 -0.2590 -0.0884  0.9985
  128MOL    H3015524   6.768   3.297   0.717  1.0268  1.7460  0.9305
  128MOL    H3115525   6.477   3.277   0.784  0.7749  1.8863 -0.8416
  128MOL    C3215526   6.628   3.111   0.812 -0.1080  0.2570 -0.0794
  128MOL    C3315527   6.618   3.031   0.686 -0.4277 -0.7971 -0.1284
  128MOL   Cl3415528   6.454   3.019   0.629  0.1229  0.0436 -0.0033
  128MOL    H3515529   6.582   3.058   0.896  1.1833 -2.7093 -1.2123
  128MOL    H3615530   6.731   3.112   0.846 -0.6339  1.2362  1.5660
  128MOL    H3715531   6.683   3.070   0.608 -0.0550 -0.4804  0.3399
  128MOL    C3815532   6.666   2.884   0.722  0.6531 -0.6318 -0.0541
  128MOL    C3915533   6.709   2.796   0.600 -0.3469 -0.4199 -0.4438
  128MOL   Cl4015534   6.832   2.886   0.505  0.1154  0.0584 -0.2255
  128MOL    H4115535   6.599   2.830   0.789  0.4802  0.6756  0.8582
  128MOL    H4215536   6.757   2.902   0.780 -0.5475  3.1096  0.8082
  128MOL    H4315537   6.768   2.710   0.631 -0.0353  0.0634  0.3389
  128MOL    C4415538   6.592   2.746   0.521 -0.4982  0.2655 -0.7271
  128MOL    C4515539   6.612   2.631   0.417  0.2518 -0.3967  0.3144
  128MOL   Cl4615540   6.467   2.618   0.310 -0.2872 -0.1771  0.2572
  128MOL    H4715541   6.545   2.823   0.459 -2.0268 -0.6248 -0.7013
  128MOL    H4815542   6.515   2.720   0.593 -1.8238 -0.4072 -2.3436
  128MOL    H4915543   6.694   2.667   0.355  0.5668 -1.1864  0.2696
  128MOL    C5015544   6.648   2.494   0.476  0.3754 -0.1500  0.3839
  128MOL    C5115545   6.644   2.375   0.384  0.4677 -0.0069 -0.0776
  128MOL   Cl5215546   6.665   2.220   0.473  0.2412 -0.1946 -0.2255
  128MOL    H5315547   6.569   2.480   0.550  1.0173 -0.4080  1.0265
  128MOL    H5415548   6.751   2.499   0.510  0.5517 -0.2937 -0.1210
  128MOL    H5515549   6.545   2.367   0.339 -0.0208  0.9775  0.8125
  128MOL    C5615550   6.749   2.385   0.264  0.0870  0.5620  0.2219
  128MOL    C5715551   6.722   2.292   0.143  0.0574  0.5498  0.0349
  128MOL   Cl5815552   6.870   2.290   0.058  0.2239  0.2734 -0.1050
  128MOL    H5915553   6.845   2.378   0.317  0.8727  0.9016 -1.1316
  128MOL    H6015554   6.751   2.489   0.233 -1.1208  0.0665 -1.5909
  128MOL    H6115555   6.705   2.196   0.192  2.3218 -0.8293 -1.8209
  128MOL    C6215556   6.599   2.340   0.061 -0.0378  0.0807 -1.0836
  128MOL    C6315557   6.571   2.259   8.456  0.5461 -0.4650 -0.1564
  128MOL   Cl6415558   6.405   2.296   8.402 -0.1230 -0.2404  0.5520
  128MOL    H6515559   6.611   2.441   0.023 -0.7140  0.7333  0.3877
  128MOL    H6615560   6.507   2.349   0.120 -1.2048 -1.3276 -2.6173
  128MOL    H6715561   6.640   2.304   8.385 -0.1634  0.8909  0.0135
  128MOL    C6815562   6.608   2.107   8.468  0.3606  0.2069  0.1256
  128MOL    C6915563   6.594   2.020   8.341 -0.0618 -0.1369  0.0085
  128MOL   Cl7015564   6.713   2.077   8.213  0.1311  0.3743  0.0632
  128MOL    H7115565   6.562   2.046   0.021 -0.9048  1.6672  0.5356
  128MOL    H7215566   6.711   2.097   8.500  0.6343  2.1327 -0.1421
  128MOL    H7315567   6.631   1.927   8.384 -3.0213 -2.6216 -2.5805
  128MOL    C7415568   6.452   1.992   8.290 -0.1019 -0.8472  0.2442
  128MOL    C7515569   6.363   1.923   8.400 -0.6554  0.5202  0.2401
  128MOL   Cl7615570   6.430   1.767   8.458  0.1591 -0.0575  0.0225
  128MOL    H7715571   6.457   1.922   8.207 -0.7190 -0.4419 -0.1363
  128MOL    H7815572   6.404   2.081   8.249 -2.5093 -1.9139  0.6753
  128MOL    H7915573   6.355   1.983   8.490  0.8251 -1.4291  1.7015
  128MOL    C8015574   6.220   1.899   8.350 -0.8185  0.5028 -0.0983
  128MOL    C8115575   6.141   2.020   8.305  0.6204  0.1349 -0.1415
  128MOL   Cl8215576   6.121   2.124   8.450  0.3245 -0.1886  0.2216
  128MOL    H8315577   6.152   1.859   8.426  0.1514 -1.2036 -0.0942
  128MOL    H8415578   6.228   1.823   8.272  1.9985  0.0318  0.5975
  128MOL    H8515579   6.196   2.079   8.231 -1.9203  1.6772 -0.8399
  128MOL    C8615580   6.010   1.983   8.228 -0.1731 -0.3438  0.8211
  128MOL    C8715581   5.928   2.088   8.154 -0.0717 -1.0499 -0.3995
  128MOL   Cl8815582   6.028   2.186   8.046  0.2598 -0.2132 -0.3920
  128MOL    H8915583   5.936   1.936   8.293 -3.4895  1.8617 -1.2576
  128MOL    H9015584   6.030   1.904   8.156  0.0693  0.3099  0.1685
  128MOL    H9115585   5.859   2.037   8.087 -0.4239 -0.1116 -0.7637
  128MOL    C9215586   5.852   2.195   8.249  0.1288 -0.2483  0.8048
  128MOL    C9315587   5.726   2.137   8.316  0.7621  0.0586 -0.0829
  128MOL   Cl9415588   5.613   2.075   8.201  0.2339 -0.3674 -0.4747
  128MOL    H9515589   5.815   2.275   8.185  0.2599 -1.4353 -0.7815
  128MOL    H9615590   5.909   2.237   8.331  0.4044  0.8924  0.0320
  128MOL    H9715591   5.754   2.052   8.378  0.0422  1.7166  2.5683
  128MOL    C9815592   5.660   2.236   8.412  0.4176 -0.3720  0.4854
  128MOL    C9915593   5.730   2.266   0.019  0.0222 -0.0723 -0.2175
  128MOL  Cl10015594   5.757   2.120   0.111  0.2193 -0.0548  0.1013
  128MOL   H10115595   5.562   2.194   8.437  0.0359 -0.7026 -1.5380
  128MOL   H10215596   5.645   2.331   8.361 -1.0055  0.1782  1.8632
  128MOL   H10315597   5.834   2.293   0.004  0.1242 -0.3710 -0.0542
  128MOL   C10415598   5.655   2.363   0.109 -0.1412 -0.2582  0.2274
  128MOL   C10515599   5.638   2.504   0.049 -0.2599  0.6365 -0.4638
  128MOL  Cl10615600   5.792   2.576   0.024 -0.1897 -0.4832  0.3057
  128MOL   H10715601   5.721   2.381   0.194 -1.7539  2.1573  1.0221
  128MOL   H10815602   5.557   2.320   0.130 -0.7272 -0.4004 -2.6318
  128MOL   H10915603   5.597   2.503   8.473  2.1487 -1.7807 -1.4781
  128MOL   C11015604   5.553   2.592   0.147  0.0122  0.2731  0.1217
  128MOL   C11115605   5.485   2.726   0.087 -0.1859 -0.2345 -0.6920
  128MOL  Cl11215606   5.450   2.826   0.230 -0.0245 -0.0138  0.0882
  128MOL   H11315607   5.606   2.628   0.234  0.0995  0.0191  0.1737
  128MOL   H11415608   5.473   2.537   0.196  1.3193 -1.4505  0.3389
  128MOL   H11515609   5.557   2.790   0.036  0.7455 -0.7003  0.0282
  128MOL   C11615610   5.349   2.696   0.011 -0.0527 -0.1693  0.9781
  128MOL   C11715611   5.267   2.820   8.498  0.2690  0.1683 -0.2140
  128MOL  Cl11815612   5.324   2.893   8.342 -0.1270 -0.1557 -0.2424
  128MOL   H11915613   5.292   2.616   0.056 -2.7466  1.7278  1.0280
  128MOL   H12015614   5.376   2.641   8.446 -1.3949 -1.9560  1.6395
  128MOL   H12115615   5.162   2.794   8.482 -0.4813  1.7696  1.8228
  128MOL   H12215616   5.272   2.898   0.048 -2.2100 -0.7195  0.9205
  129MOL     C115617   0.606   2.564   7.214 -0.6552 -0.1297  0.5986
  129MOL     C215618   0.738   2.637   7.184  0.3232  0.3625  0.0033
  129MOL    Cl315619   0.867   2.515   7.191  0.1800  0.3561 -0.0636
  129MOL     H415620   0.606   2.506   7.307 -0.1774 -0.7497  0.2158
  129MOL     H515621   0.518   2.627   7.229 -0.3632  0.1927  0.9363
  129MOL     H615622   0.756   2.680   7.086  0.3218 -0.6293 -0.4307
  129MOL     H715623   0.580   2.502   7.128  2.2594 -0.6866  0.0788
  129MOL     C815624   0.771   2.728   7.305 -0.1602 -0.1991 -0.4379
  129MOL     C915625   0.679   2.849   7.332  0.1428 -0.7159  0.1780
  129MOL   Cl1015626   0.666   2.953   7.189  0.1271  0.1861 -0.3959
  129MOL    H1115627   0.871   2.771   7.294  0.5559 -1.3368  1.2036
  129MOL    H1215628   0.771   2.673   7.400  0.2070  1.2214  0.4024
  129MOL    H1315629   0.576   2.821   7.353  0.6317 -1.4723  1.7079
  129MOL    C1415630   0.724   2.938   7.453  0.1590 -0.5516  0.2803
  129MOL    C1515631   0.715   2.881   7.596  0.0631  0.2154  0.6461
  129MOL   Cl1615632   0.546   2.830   7.618 -0.2427  0.0535  0.3717
  129MOL    H1715633   0.660   3.026   7.446 -0.9495 -1.3543  0.1423
  129MOL    H1815634   0.826   2.971   7.434  0.3749 -1.6454 -0.4631
  129MOL    H1915635   0.785   2.799   7.612 -0.6881 -0.9204 -1.7803
  129MOL    C2015636   0.749   2.976   7.713 -0.5218 -0.3318  0.0886
  129MOL    C2115637   0.887   3.034   7.707 -0.0685  0.6164  0.7250
  129MOL   Cl2215638   1.004   2.910   7.743 -0.0599 -0.3434  0.1912
  129MOL    H2315639   0.727   2.924   7.807  0.0190 -1.1601 -0.2357
  129MOL    H2415640   0.683   3.062   7.706 -0.6943 -0.3787  1.0261
  129MOL    H2515641   0.906   3.082   7.611 -1.0423 -1.8410 -0.7562
  129MOL    C2615642   0.902   3.164   7.799  0.1595 -0.1864  0.5227
  129MOL    C2715643   0.872   3.145   7.949 -0.3018  0.2566  0.0854
  129MOL   Cl2815644   0.700   3.156   7.980 -0.1234 -0.2435 -0.3908
  129MOL    H2915645   0.843   3.250   7.768  1.3765  0.7558  0.7752
  129MOL    H3015646   0.999   3.211   7.783  0.6217 -0.9382  1.0426
  129MOL    H3115647   0.902   3.044   7.978  0.1211  0.6597  1.0827
  129MOL    C3215648   0.945   3.253   8.030  1.1630  0.8025 -0.7576
  129MOL    C3315649   1.006   3.209   8.166  0.0637 -0.0463 -0.3517
  129MOL   Cl3415650   0.868   3.132   8.254  0.0303 -0.1275 -0.4964
  129MOL    H3515651   0.884   3.342   8.044 -1.1093 -0.4606 -2.3295
  129MOL    H3615652   1.033   3.277   7.971  0.9659 -0.1480 -1.4513
  129MOL    H3715653   1.069   3.126   8.135  0.9232 -0.0448  1.3467
  129MOL    C3815654   1.082   3.310   8.251  0.7040 -0.3285  0.5442
  129MOL    C3915655   1.136   3.261   8.391 -0.0154 -0.0504 -0.3036
  129MOL   Cl4015656   1.020   3.281   8.518  0.3858  0.4976 -0.2894
  129MOL    H4115657   1.022   3.398   8.274 -3.8548 -3.3586  0.6949
  129MOL    H4215658   1.157   3.360   8.190 -0.5780 -2.5467 -2.9546
  129MOL    H4315659   1.150   3.153   8.397  0.5217 -0.0688 -1.7127
  129MOL    C4415660   1.260   3.339   8.442  0.2326 -0.3699 -0.3163
  129MOL    C4515661   1.387   3.309   8.358  0.4217  0.5424  0.0186
  129MOL   Cl4615662   1.444   3.145   8.413  0.1758 -0.2315  0.1382
  129MOL    H4715663   1.285   3.317   0.020 -0.0909 -2.6280 -0.7011
  129MOL    H4815664   1.241   3.446   8.455  0.7639 -0.1757 -1.0963
  129MOL    H4915665   1.356   3.313   8.254  2.8528  2.9675 -0.6722
  129MOL    C5015666   1.506   3.407   8.388 -0.9155  0.4210  0.0083
  129MOL    C5115667   1.508   3.537   8.305  0.0572 -0.7724  0.1320
  129MOL   Cl5215668   1.558   3.507   8.140  0.3011 -0.1348  0.0015
  129MOL    H5315669   1.596   3.350   8.366 -1.6111 -0.1132 -1.5169
  129MOL    H5415670   1.515   3.421   8.496 -0.5877 -0.5935  0.1156
  129MOL    H5515671   1.413   3.590   8.290  1.0804  0.9292 -0.5185
  129MOL    C5615672   1.606   3.643   8.361 -0.1580 -0.3782  0.6425
  129MOL    C5715673   1.558   3.715   8.488 -0.2760  0.0253 -0.1964
  129MOL   Cl5815674   1.431   3.830   8.437  0.1407 -0.1800  0.2134
  129MOL    H5915675   1.628   3.718   8.285  1.0971 -1.7868 -0.4233
  129MOL    H6015676   1.697   3.588   8.388  1.9351  2.3753 -0.5961
  129MOL    H6115677   1.505   3.643   0.025 -0.0130 -0.4330 -0.4946
  129MOL    C6215678   1.661   3.801   0.035 -0.0674  0.6377 -0.0598
  129MOL    C6315679   1.755   3.727   0.134  0.1468  0.3461  0.3643
  129MOL   Cl6415680   1.662   3.642   0.257 -0.4023 -0.0634 -0.0883
  129MOL    H6515681   1.607   3.886   0.078  0.5228  1.9817 -1.8965
  129MOL    H6615682   1.728   3.856   8.494  2.0355  0.5851  1.9658
  129MOL    H6715683   1.799   3.643   0.082 -1.0258 -0.6845  0.9932
  129MOL    C6815684   1.859   3.817   0.205  0.2445 -0.2182 -0.6117
  129MOL    C6915685   1.947   3.755   0.317  0.4017  0.5649  0.3452
  129MOL   Cl7015686   2.056   3.884   0.367 -0.0059 -0.2064  0.0089
  129MOL    H7115687   1.792   3.890   0.251  0.9036  0.1005 -0.1612
  129MOL    H7215688   1.922   3.867   0.132 -0.4202  0.4666 -0.7341
  129MOL    H7315689   1.882   3.736   0.402 -0.5283  3.4024  0.3098
  129MOL    C7415690   2.022   3.625   0.272 -0.1320 -0.9283 -0.0146
  129MOL    C7515691   2.124   3.570   0.381 -0.8395  0.1980  0.1970
  129MOL   Cl7615692   2.218   3.441   0.300 -0.0903 -0.0697 -0.1604
  129MOL    H7715693   2.078   3.623   0.178 -0.0990 -0.7524  0.0022
  129MOL    H7815694   1.947   3.546   0.260 -0.0381 -0.9515 -0.4575
  129MOL    H7915695   2.203   3.641   0.405  0.5285 -0.5550 -1.9228
  129MOL    C8015696   2.061   3.501   0.504 -0.5620  0.2932  0.4491
  129MOL    C8115697   2.020   3.597   0.620 -0.1149 -0.2658  0.1246
  129MOL   Cl8215698   2.164   3.676   0.688 -0.2762 -0.0962 -0.1336
  129MOL    H8315699   2.136   3.432   0.543 -0.9031 -0.6435 -0.5408
  129MOL    H8415700   1.980   3.433   0.478 -0.0627  0.3270 -1.2394
  129MOL    H8515701   1.959   3.677   0.578 -1.8360 -1.7665 -0.2897
  129MOL    C8615702   1.952   3.531   0.743 -0.3232 -0.3540 -0.8263
  129MOL    C8715703   1.813   3.452   0.717  0.5078 -0.1014  0.8989
  129MOL   Cl8815704   1.689   3.559   0.641 -0.0988 -0.1522  0.1316
  129MOL    H8915705   1.948   3.619   0.807  1.1353  0.1379 -1.3851
  129MOL    H9015706   2.025   3.474   0.801 -0.1878  1.2530  0.6388
  129MOL    H9115707   1.838   3.372   0.647 -1.9696  1.0203 -1.3609
  129MOL    C9215708   1.752   3.389   0.848  0.7003  0.1041 -0.1784
  129MOL    C9315709   1.640   3.285   0.844 -0.9939 -0.8379 -0.3229
  129MOL   Cl9415710   1.581   3.275   1.014 -0.0272  0.0508  0.0510
  129MOL    H9515711   1.731   3.469   0.919  0.5439 -0.5990  0.5705
  129MOL    H9615712   1.842   3.345   0.891  1.3581  2.1175  0.5418
  129MOL    H9715713   1.561   3.335   0.788 -0.3101 -0.9014 -1.3631
  129MOL    C9815714   1.668   3.146   0.782 -0.3114  0.1153  0.4972
  129MOL    C9915715   1.555   3.043   0.752 -0.0959  0.1762  0.4184
  129MOL  Cl10015716   1.427   3.124   0.652  0.1961 -0.0406 -0.2054
  129MOL   H10115717   1.731   3.093   0.854 -0.4757 -0.1475  0.4480
  129MOL   H10215718   1.724   3.157   0.690 -1.6708  1.2636 -0.2040
  129MOL   H10315719   1.586   2.972   0.676 -2.8910 -0.8881  0.2074
  129MOL   C10415720   1.486   2.975   0.874  0.1987 -0.3304 -0.0520
  129MOL   C10515721   1.576   2.915   0.984  0.5626 -0.5862 -0.1514
  129MOL  Cl10615722   1.701   2.807   0.918  0.0246  0.1063 -0.1900
  129MOL   H10715723   1.422   2.902   0.823 -1.4614  0.9603  0.1687
  129MOL   H10815724   1.431   3.061   0.912 -0.6558  1.2246 -4.5041
  129MOL   H10915725   1.627   2.989   1.046 -0.3778  1.6325 -1.9215
  129MOL   C11015726   1.484   2.842   1.088 -0.0683 -0.6204 -0.5957
  129MOL   C11115727   1.550   2.810   1.227  0.0604  0.3382 -0.7064
  129MOL  Cl11215728   1.664   2.665   1.210 -0.3634  0.0792 -0.1926
  129MOL   H11315729   1.439   2.759   1.033  0.6840 -0.9145 -0.7789
  129MOL   H11415730   1.399   2.904   1.117  0.6194  0.7087 -1.3382
  129MOL   H11515731   1.607   2.894   1.267  1.8264 -1.5070  0.7596
  129MOL   C11615732   1.445   2.765   1.330 -0.7005  0.1541  0.0330
  129MOL   C11715733   1.488   2.745   1.471  0.2423  0.3188  0.2350
  129MOL  Cl11815734   1.334   2.754   1.568  0.1672  0.1281  0.1346
  129MOL   H11915735   1.402   2.668   1.305 -1.4812  0.5098 -0.0241
  129MOL   H12015736   1.357   2.828   1.320 -1.0137 -0.2605  0.1604
  129MOL   H12115737   1.532   2.646   1.485  1.3071  0.8349  0.6074
  129MOL   H12215738   1.560   2.823   1.498  3.0855 -1.6248 -1.4402
  130MOL     C115739   3.564   8.319   2.962 -0.0981 -0.8356  0.3963
  130MOL     C215740   3.599   8.305   3.112 -0.1245  0.9099  0.4477
  130MOL    Cl315741   3.501   8.414   3.212 -0.6866 -0.5094  0.3487
  130MOL     H415742   3.609   8.405   2.914  0.4072 -0.9502  0.6570
  130MOL     H515743   3.613   8.230   2.923 -1.8656 -1.1867 -1.0404
  130MOL     H615744   3.584   8.205   3.152  0.0315  0.1776 -1.2794
  130MOL     H715745   3.458   8.306   2.945  0.0406 -0.9107 -0.4210
  130MOL     C815746   3.747   8.331   3.125 -0.2244 -0.1013 -0.1272
  130MOL     C915747   3.808   8.322   3.266  0.2187 -1.2424 -0.4648
  130MOL   Cl1015748   3.984   8.362   3.249 -0.1470 -0.2509  0.1336
  130MOL    H1115749   3.773   8.430   3.089 -0.3019 -0.7383 -1.9913
  130MOL    H1215750   3.794   8.252   3.067  3.0156  0.4638  1.6424
  130MOL    H1315751   3.768   8.403   3.328  1.4113 -1.1254  0.1699
  130MOL    C1415752   3.792   8.193   3.342  0.2695 -0.4216 -0.3873
  130MOL    C1515753   3.858   8.179   3.482 -0.0248 -0.3776 -0.2277
  130MOL   Cl1615754   3.827   8.012   3.543 -0.0520  0.0071 -0.3703
  130MOL    H1715755   3.822   8.109   3.279 -0.4268 -0.3694 -0.7944
  130MOL    H1815756   3.684   8.175   3.345  0.0618  0.9470  1.4878
  130MOL    H1915757   3.965   8.183   3.464 -0.2630  0.4158 -1.5123
  130MOL    C2015758   3.815   8.284   3.582  0.3703  0.7614 -0.2104
  130MOL    C2115759   3.873   8.283   3.717 -0.8266  0.7274 -0.4559
  130MOL   Cl2215760   3.778   8.397   3.804 -0.3220 -0.3570 -0.1259
  130MOL    H2315761   3.707   8.283   3.599  0.7151  2.2407  2.3174
  130MOL    H2415762   3.826   8.385   3.543 -2.8183  1.3817  0.3288
  130MOL    H2515763   3.868   8.183   3.760 -2.1555  2.0589  2.6461
  130MOL    C2615764   4.019   8.325   3.713  0.3856  0.1902 -0.2162
  130MOL    C2715765   4.083   8.340   3.850 -0.1055  0.8286  0.1162
  130MOL   Cl2815766   4.232   8.423   3.831  0.0796 -0.0435  0.2438
  130MOL    H2915767   4.024   8.423   3.667 -0.2182  0.4611  0.2998
  130MOL    H3015768   4.084   8.267   3.647  0.0114  1.9316 -2.1814
  130MOL    H3115769   4.021   8.390   3.924 -0.6752 -0.7768  0.7517
  130MOL    C3215770   4.125   8.202   3.902  0.0706 -0.4834 -0.0996
  130MOL    C3315771   4.205   8.185   4.041  0.4898  0.2309  0.0806
  130MOL   Cl3415772   4.303   8.037   4.018 -0.2722  0.0650 -0.1136
  130MOL    H3515773   4.185   8.145   3.831  2.7855  0.6396  1.2255
  130MOL    H3615774   4.032   8.146   3.916 -0.5372  0.8173  1.2474
  130MOL    H3715775   4.274   8.268   4.058  0.4130  0.3234 -0.0546
  130MOL    C3815776   4.116   8.175   4.160 -0.5406 -0.1761  0.3283
  130MOL    C3915777   4.193   8.197   4.290 -0.5088 -0.1597  0.4175
  130MOL   Cl4015778   4.091   8.181   4.433 -0.2197  0.0035 -0.8925
  130MOL    H4115779   4.085   8.071   4.173 -1.1535 -0.0697 -0.2781
  130MOL    H4215780   4.032   8.245   4.167  1.8207  2.5056  3.2859
  130MOL    H4315781   4.274   8.125   4.306 -1.0537 -1.3933 -2.0907
  130MOL    C4415782   4.252   8.341   4.304  0.0234  0.8608  0.5378
  130MOL    C4515783   4.155   8.461   4.305  0.1130  0.7823  0.7020
  130MOL   Cl4615784   4.131   8.514   4.135  0.3576  0.3432  0.0271
  130MOL    H4715785   4.337   8.360   4.238 -0.7531 -0.4798 -0.8901
  130MOL    H4815786   4.301   8.335   4.400  0.0189  1.9167  0.6086
  130MOL    H4915787   4.057   8.431   4.341 -0.1009 -0.4603 -0.8576
  130MOL    C5015788   4.200   0.055   4.393 -0.0125  0.1107 -0.1528
  130MOL    C5115789   4.183   0.030   4.547 -0.7200  0.2104  0.4880
  130MOL   Cl5215790   4.010   0.029   4.578  0.3797 -0.4051  0.0677
  130MOL    H5315791   4.146   0.148   4.377  0.7360  0.6982  0.7359
  130MOL    H5415792   4.305   0.073   4.371  0.3576 -2.1455 -0.3879
  130MOL    H5515793   4.222   8.462   4.586  0.6237  0.2111 -0.8015
  130MOL    C5615794   4.244   0.150   4.625  0.1246  0.5298 -0.0447
  130MOL    C5715795   4.262   0.141   4.770  0.1473  0.9287  0.7762
  130MOL   Cl5815796   4.305   0.310   4.814  0.1594  0.2430 -0.0947
  130MOL    H5915797   4.173   0.229   4.601  0.2794  1.1461  1.4990
  130MOL    H6015798   4.334   0.179   4.570  0.0281 -1.5125 -1.3582
  130MOL    H6115799   4.168   0.122   4.822  0.9273 -0.5652  1.6859
  130MOL    C6215800   4.373   0.047   4.828 -0.4371 -0.0484  0.0919
  130MOL    C6315801   4.516   0.061   4.770  0.2550 -0.3607 -0.3309
  130MOL   Cl6415802   4.516   0.014   4.596  0.2025 -0.0823  0.0509
  130MOL    H6515803   4.351   8.466   4.813  0.2683 -0.0219 -1.2190
  130MOL    H6615804   4.370   0.061   4.936 -1.6436  1.4175 -0.1169
  130MOL    H6715805   4.545   0.166   4.764 -0.7311 -0.0210  0.8193
  130MOL    C6815806   4.618   8.515   4.857 -0.1626  0.1444  0.2558
  130MOL    C6915807   4.644   0.044   5.001  0.3432 -0.4767  0.7973
  130MOL   Cl7015808   4.745   0.188   4.986  0.4967 -0.1742 -0.0512
  130MOL    H7115809   4.713   8.511   4.803 -1.2429 -1.3700 -1.5820
  130MOL    H7215810   4.595   8.409   4.866 -2.5543  0.5983 -0.0937
  130MOL    H7315811   4.553   0.076   5.051 -0.2817  0.0318 -0.6381
  130MOL    C7415812   4.717   8.471   5.095  0.0374  0.6969  0.4639
  130MOL    C7515813   4.621   8.356   5.150 -0.8900 -0.6690  0.4186
  130MOL   Cl7615814   4.521   8.424   5.274  0.0002  0.1859  0.0680
  130MOL    H7715815   4.748   0.000   5.184  1.4848 -0.7363  0.8748
  130MOL    H7815816   4.796   8.426   5.034  0.0120  1.2195  0.0393
  130MOL    H7915817   4.564   8.323   5.063  1.4582 -1.4656 -0.8611
  130MOL    C8015818   4.688   8.233   5.220  0.3609 -0.1427  0.2864
  130MOL    C8115819   4.776   8.146   5.119  0.3086 -0.5258 -0.1913
  130MOL   Cl8215820   4.672   8.070   5.003 -0.1332 -0.0113 -0.3676
  130MOL    H8315821   4.613   8.172   5.271  1.2087 -0.5855  1.0046
  130MOL    H8415822   4.757   8.268   5.296  0.4296  1.4175 -0.4715
  130MOL    H8515823   4.836   8.220   5.067 -2.2172 -0.3975 -3.0171
  130MOL    C8615824   4.864   8.040   5.196 -0.0889 -0.3534  0.4006
  130MOL    C8715825   4.975   7.983   5.110 -0.5346  0.2270 -0.0466
  130MOL   Cl8815826   5.067   7.849   5.197  0.2810 -0.1902  0.3105
  130MOL    H8915827   4.799   7.967   5.243  0.6088 -0.6086  0.9712
  130MOL    H9015828   4.914   8.106   5.267 -1.4095  0.2858  0.7606
  130MOL    H9115829   4.927   7.935   5.024  0.0091  3.5843 -2.3721
  130MOL    C9215830   5.090   8.077   5.060  0.7197 -0.5962 -0.5631
  130MOL    C9315831   5.158   8.167   5.166  0.2438 -0.4977 -0.2702
  130MOL   Cl9415832   5.058   8.311   5.190  0.2217 -0.0882 -0.3842
  130MOL    H9515833   5.049   8.151   4.991 -0.7660 -0.4570  0.4400
  130MOL    H9615834   5.163   8.023   5.000 -0.9516 -1.5003 -1.8232
  130MOL    H9715835   5.163   8.116   5.263  0.5883 -1.1467 -0.6320
  130MOL    C9815836   5.297   8.219   5.122 -0.8077  0.3685  0.5493
  130MOL    C9915837   5.399   8.109   5.079 -0.3320 -0.2114 -0.5225
  130MOL  Cl10015838   5.398   7.974   5.191  0.3578  0.1361  0.1110
  130MOL   H10115839   5.343   8.267   5.209  0.2168 -1.3323  0.9620
  130MOL   H10215840   5.279   8.291   5.042 -0.0903 -1.2242 -1.0769
  130MOL   H10315841   5.370   8.070   4.982 -0.4090  0.2856 -0.6989
  130MOL   C10415842   5.549   8.168   5.070  0.4122  0.8949  0.6250
  130MOL   C10515843   5.564   8.275   4.958  0.3705 -0.4958  0.0276
  130MOL  Cl10615844   5.567   8.195   4.796  0.2891  0.4582 -0.2384
  130MOL   H10715845   5.627   8.092   5.060 -1.2156 -0.6985 -0.2386
  130MOL   H10815846   5.564   8.217   5.166 -0.9271  1.6243  0.4804
  130MOL   H10915847   5.478   8.342   4.951 -0.1022 -1.3082 -2.2412
  130MOL   C11015848   5.694   8.353   4.970 -0.3896 -0.2787  0.1353
  130MOL   C11115849   5.698   8.495   4.914  0.1851  0.1385  0.6340
  130MOL  Cl11215850   5.672   8.503   4.741 -0.0914 -0.2244  0.0421
  130MOL   H11315851   5.765   8.289   4.918 -1.5026 -1.8433  0.5097
  130MOL   H11415852   5.727   8.352   5.074  0.0034  0.4976  0.0256
  130MOL   H11515853   5.611   0.016   4.961  0.2937 -1.3062  2.3401
  130MOL   C11615854   5.817   0.051   4.960 -0.0584 -0.2503  0.0287
  130MOL   C11715855   5.805   0.203   4.921  0.6157  0.0755 -0.0899
  130MOL  Cl11815856   5.675   0.293   5.013  0.0640  0.2456  0.1782
  130MOL   H11915857   5.899   0.007   4.905 -0.3631  1.4553 -1.8530
  130MOL   H12015858   5.840   0.045   5.066 -1.6787  0.3087  0.4347
  130MOL   H12115859   5.899   0.258   4.926 -0.3961  2.3348 -3.8056
  130MOL   H12215860   5.789   0.218   4.814 -0.3336 -0.2625 -0.0012
  131MOL     C115861   2.730   6.826   3.758 -0.6054 -0.1244 -0.0633
  131MOL     C215862   2.725   6.735   3.881  0.2143  0.3507  0.2410
  131MOL    Cl315863   2.738   6.841   4.020  0.6666  0.0877  0.1758
  131MOL     H415864   2.817   6.890   3.751  0.8114 -1.8348  1.2888
  131MOL     H515865   2.734   6.766   3.667  0.9230 -0.0101 -0.0728
  131MOL     H615866   2.631   6.681   3.884  0.6971 -0.4795  0.7001
  131MOL     H715867   2.636   6.878   3.741  0.0122  2.0641  2.7732
  131MOL     C815868   2.848   6.642   3.875 -0.2219  0.3752  0.2479
  131MOL     C915869   2.818   6.511   3.795  0.4673  0.6139 -0.0574
  131MOL   Cl1015870   2.723   6.397   3.894  0.2066 -0.2023  0.1136
  131MOL    H1115871   2.862   6.618   3.980  0.6417 -0.0875  0.0267
  131MOL    H1215872   2.933   6.694   3.830  0.1456  0.1450  0.6736
  131MOL    H1315873   2.758   6.527   3.706 -0.2182 -0.5945  0.1746
  131MOL    C1415874   2.944   6.446   3.743 -0.2342  0.3306 -0.8336
  131MOL    C1515875   2.997   6.528   3.621  0.1317  0.0792  0.1531
  131MOL   Cl1615876   2.909   6.477   3.471 -0.1056  0.2072  0.4674
  131MOL    H1715877   2.932   6.343   3.710  3.2562 -1.1146  2.0292
  131MOL    H1815878   3.006   6.440   3.833 -1.1105 -1.9588 -0.3572
  131MOL    H1915879   2.995   6.636   3.634 -1.7362  0.2724 -1.4821
  131MOL    C2015880   3.151   6.496   3.582 -0.4964  0.9654  0.2529
  131MOL    C2115881   3.226   6.624   3.536 -0.2031 -0.6582 -0.4591
  131MOL   Cl2215882   3.144   6.699   3.394  0.3075 -0.1699 -0.4250
  131MOL    H2315883   3.165   6.425   3.501  0.2965 -0.3921  1.5524
  131MOL    H2415884   3.204   6.451   3.666  0.7690  0.5543 -0.7535
  131MOL    H2515885   3.206   6.695   3.617  0.2102  2.0774 -2.6531
  131MOL    C2615886   3.372   6.601   3.513  0.2449  0.2632  0.3865
  131MOL    C2715887   3.446   6.730   3.478 -0.8832  0.0693 -0.0574
  131MOL   Cl2815888   3.619   6.690   3.435 -0.1531 -0.1090  0.0687
  131MOL    H2915889   3.381   6.525   3.435 -1.1812 -0.3509  0.8029
  131MOL    H3015890   3.420   6.566   3.604  0.7930  1.8535  0.7198
  131MOL    H3115891   3.398   6.775   3.391  0.4634 -0.4788 -1.0961
  131MOL    C3215892   3.437   6.830   3.599  0.0234  0.5283  0.1021
  131MOL    C3315893   3.505   6.959   3.577 -0.4870  0.4778 -0.1251
  131MOL   Cl3415894   3.488   7.040   3.733 -0.2776  0.1863 -0.0784
  131MOL    H3515895   3.482   6.768   3.677 -1.9732 -0.1850  0.7180
  131MOL    H3615896   3.334   6.850   3.628 -0.3754 -0.1502 -0.8012
  131MOL    H3715897   3.612   6.943   3.566 -0.4717  1.3804 -1.3617
  131MOL    C3815898   3.448   7.053   3.462 -0.3276  0.4849 -0.1772
  131MOL    C3915899   3.522   7.030   3.328 -0.0134 -0.0836  0.1052
  131MOL   Cl4015900   3.673   7.115   3.327 -0.1939  0.0891  0.1325
  131MOL    H4115901   3.430   7.159   3.480 -3.8305  0.0136 -0.6532
  131MOL    H4215902   3.346   7.022   3.442  0.3902 -0.3952 -2.6607
  131MOL    H4315903   3.542   6.923   3.314 -1.0909 -0.1555 -0.8956
  131MOL    C4415904   3.431   7.090   3.212 -0.1194  1.0338 -0.1384
  131MOL    C4515905   3.290   7.023   3.180 -0.3786 -0.3511  0.2170
  131MOL   Cl4615906   3.323   6.922   3.034 -0.1376 -0.0638  0.2567
  131MOL    H4715907   3.488   7.094   3.119  0.7657  1.1001  0.4013
  131MOL    H4815908   3.410   7.195   3.231 -2.2084  0.6787 -0.3120
  131MOL    H4915909   3.257   6.949   3.254 -0.0629 -0.8346 -0.1212
  131MOL    C5015910   3.169   7.117   3.145  0.2100 -1.2319 -0.6540
  131MOL    C5115911   3.136   7.215   3.258 -0.2766  0.6442  0.5083
  131MOL   Cl5215912   3.091   7.122   3.405  0.2953  0.0022  0.0037
  131MOL    H5315913   3.078   7.060   3.127 -1.5632  1.5323 -0.7507
  131MOL    H5415914   3.188   7.168   3.050  0.7602 -1.9834 -0.9548
  131MOL    H5515915   3.221   7.279   3.285  0.3034  0.4538 -0.8236
  131MOL    C5615916   3.026   7.309   3.217 -0.5708 -0.7449  0.7941
  131MOL    C5715917   3.004   7.418   3.329 -0.5452 -0.3651 -0.1847
  131MOL   Cl5815918   2.886   7.359   3.456  0.1164 -0.2383  0.6392
  131MOL    H5915919   2.935   7.250   3.204  0.2225 -1.6634 -0.6037
  131MOL    H6015920   3.038   7.356   3.120  0.4165  1.6045  2.0087
  131MOL    H6115921   3.100   7.437   3.377 -0.4445 -2.1310  0.3356
  131MOL    C6215922   2.944   7.549   3.288  0.1511  0.0769 -0.6137
  131MOL    C6315923   3.009   7.628   3.174 -0.3430 -0.0893  0.3435
  131MOL   Cl6415924   3.187   7.602   3.162  0.1091 -0.0543 -0.0779
  131MOL    H6515925   2.933   7.614   3.375 -0.1456 -0.1332 -0.4928
  131MOL    H6615926   2.837   7.542   3.266  0.5090 -3.0977 -1.5152
  131MOL    H6715927   2.969   7.578   3.086  1.6771 -0.6353 -0.2859
  131MOL    C6815928   2.977   7.779   3.175 -0.5655 -0.0259  0.6622
  131MOL    C6915929   2.833   7.818   3.140  0.5186  0.2024 -0.0990
  131MOL   Cl7015930   2.787   7.732   2.987 -0.2460  0.0039  0.4700
  131MOL    H7115931   3.036   7.820   3.093  1.5165  0.4821  2.3755
  131MOL    H7215932   3.013   7.825   3.266 -2.7117  0.9707  1.0493
  131MOL    H7315933   2.764   7.786   3.217 -1.0168  1.3078 -0.9834
  131MOL    C7415934   2.821   7.968   3.104  0.6128 -0.3615 -0.3435
  131MOL    C7515935   2.677   8.018   3.081 -0.4437  0.2508 -0.6488
  131MOL   Cl7615936   2.666   8.188   3.041 -0.1122 -0.2700 -0.1336
  131MOL    H7715937   2.856   7.986   3.003 -0.6187 -0.9101 -0.8813
  131MOL    H7815938   2.867   8.033   3.179 -2.5098 -1.3001  2.5157
  131MOL    H7915939   2.657   7.966   2.987  0.4063 -2.8440  0.8346
  131MOL    C8015940   2.577   7.978   3.190  0.3726 -0.1910  0.2203
  131MOL    C8115941   2.464   7.886   3.149  0.0390  0.0659 -0.0917
  131MOL   Cl8215942   2.360   7.973   3.032 -0.0610  0.2576  0.1180
  131MOL    H8315943   2.539   8.067   3.240 -0.3232 -1.5457  2.0992
  131MOL    H8415944   2.628   7.936   3.276 -1.7625  1.9496  2.5984
  131MOL    H8515945   2.503   7.793   3.106  2.5139  0.1711  1.8243
  131MOL    C8615946   2.367   7.838   3.264 -0.0758 -0.5864  0.1938
  131MOL    C8715947   2.433   7.757   3.377 -0.2090 -0.0930 -0.2445
  131MOL   Cl8815948   2.539   7.635   3.305  0.0642 -0.4796 -0.1424
  131MOL    H8915949   2.278   7.787   3.227 -2.3283  1.4835  2.5594
  131MOL    H9015950   2.327   7.931   3.307 -0.2047 -1.3717  1.8331
  131MOL    H9115951   2.484   7.831   3.438 -0.2951  0.6279 -1.0391
  131MOL    C9215952   2.332   7.677   3.457  1.0357 -0.5351 -0.0515
  131MOL    C9315953   2.249   7.760   3.555 -0.5009 -0.3518  0.6723
  131MOL   Cl9415954   2.360   7.864   3.655 -0.1411  0.6256  0.5795
  131MOL    H9515955   2.390   7.595   3.501 -0.0590 -0.8719  0.7779
  131MOL    H9615956   2.263   7.621   3.394 -1.0722 -0.1360  1.8391
  131MOL    H9715957   2.179   7.834   3.515  1.1971 -0.6147 -3.0031
  131MOL    C9815958   2.173   7.664   3.649 -0.2179 -0.1836  0.1338
  131MOL    C9915959   2.080   7.719   3.763  0.3069  0.2293  1.0744
  131MOL  Cl10015960   1.994   7.862   3.694  0.3761 -0.1033 -0.2914
  131MOL   H10115961   2.245   7.599   3.699 -0.4839  0.0336  0.8118
  131MOL   H10215962   2.110   7.609   3.580 -2.1244  1.1694  0.7516
  131MOL   H10315963   2.003   7.646   3.785  0.1353 -0.6149 -2.0380
  131MOL   C10415964   2.142   7.752   3.898 -0.0790 -0.7464  0.2475
  131MOL   C10515965   2.050   7.789   4.010 -0.8779  0.0923 -0.3221
  131MOL  Cl10615966   2.142   7.799   4.171  0.2701  0.0555  0.5349
  131MOL   H10715967   2.218   7.829   3.885 -1.0490 -0.3218 -3.5578
  131MOL   H10815968   2.201   7.665   3.928  0.4511 -0.5402 -0.1800
  131MOL   H10915969   2.003   7.884   3.985 -0.6020 -0.0561 -1.3995
  131MOL   C11015970   1.940   7.680   4.029 -0.3563 -0.0909  0.3617
  131MOL   C11115971   1.858   7.687   4.157  0.5386 -0.5382  0.2260
  131MOL  Cl11215972   1.739   7.548   4.146 -0.0081 -0.3287 -0.4273
  131MOL   H11315973   1.993   7.585   4.033  2.5272  1.4716  0.7491
  131MOL   H11415974   1.867   7.696   3.950  0.7222 -1.5990 -0.9632
  131MOL   H11515975   1.930   7.682   4.240  1.2429 -3.8192 -0.4949
  131MOL   C11615976   1.781   7.817   4.171  0.4444  0.2067 -0.6305
  131MOL   C11715977   1.698   7.837   4.304  0.4120  0.2988 -0.1131
  131MOL  Cl11815978   1.614   7.986   4.292 -0.0661 -0.6770 -0.2064
  131MOL   H11915979   1.705   7.826   4.093 -0.7214 -1.7895  0.2379
  131MOL   H12015980   1.847   7.902   4.156 -0.2377  1.0623  1.1538
  131MOL   H12115981   1.625   7.757   4.301 -0.0017  0.6222  1.3654
  131MOL   H12215982   1.752   7.840   4.399 -1.2498  1.6573  0.8063
  132MOL     C115983   5.826   5.741   6.599  0.2719 -0.3183  0.1480
  132MOL     C215984   5.906   5.827   6.499 -0.2514  0.0241  0.3333
  132MOL    Cl315985   5.897   5.997   6.544 -0.2097 -0.1846  0.2728
  132MOL     H415986   5.875   5.737   6.696  1.1876 -0.1177 -0.2907
  132MOL     H515987   5.728   5.785   6.613 -0.0808 -0.8045 -0.7404
  132MOL     H615988   6.011   5.807   6.521  0.7511  2.1379 -2.1337
  132MOL     H715989   5.801   5.640   6.564 -0.1468  0.2180 -1.1287
  132MOL     C815990   5.873   5.799   6.352  0.2226 -0.4431 -0.6177
  132MOL     C915991   5.938   5.664   6.299 -0.3980 -0.8836 -0.2644
  132MOL   Cl1015992   6.116   5.655   6.341  0.4835  0.1153 -0.1501
  132MOL    H1115993   5.920   5.881   6.299  1.3146  0.2974  1.4383
  132MOL    H1215994   5.767   5.813   6.330  0.7584  1.8115 -1.8556
  132MOL    H1315995   5.884   5.586   6.352 -1.7975  0.7059  0.6826
  132MOL    C1415996   5.915   5.650   6.146  0.7427 -0.1220 -0.7090
  132MOL    C1515997   5.772   5.622   6.093  0.4525 -0.4444 -0.2991
  132MOL   Cl1615998   5.726   5.454   6.138 -0.1645  0.0556  0.2854
  132MOL    H1715999   5.993   5.577   6.125  0.6337 -1.1115  2.0505
  132MOL    H1816000   5.959   5.739   6.100  2.5526 -0.1952  0.8078
  132MOL    H1916001   5.703   5.683   6.151 -0.6390 -0.8072 -1.2128
  132MOL    C2016002   5.762   5.650   5.936  0.2901  0.5486 -0.0354
  132MOL    C2116003   5.753   5.791   5.893  0.5132 -0.0837  0.0427
  132MOL   Cl2216004   5.583   5.837   5.900 -0.4137  0.3369  0.1688
  132MOL    H2316005   5.669   5.600   5.910 -1.4370  1.3673  4.1285
  132MOL    H2416006   5.837   5.585   5.891  0.6139  0.2736  0.8957
  132MOL    H2516007   5.805   5.853   5.966  0.2011 -1.1566  1.2090
  132MOL    C2616008   5.817   5.823   5.752 -0.1120 -0.0559 -0.5019
  132MOL    C2716009   5.803   5.968   5.706 -0.0025 -0.3661 -0.1476
  132MOL   Cl2816010   5.872   5.978   5.541  0.3042  0.2095  0.1041
  132MOL    H2916011   5.780   5.754   5.676  1.3813  0.9053 -2.1315
  132MOL    H3016012   5.923   5.798   5.765  0.0523  1.9058  2.1516
  132MOL    H3116013   5.700   6.004   5.700  0.3382  1.1952  2.4348
  132MOL    C3216014   5.879   6.072   5.789  0.5254 -0.3784 -0.0431
  132MOL    C3316015   5.904   6.211   5.721 -0.0102 -0.5108 -0.4005
  132MOL   Cl3416016   6.027   6.303   5.816 -0.1564  0.2801 -0.2364
  132MOL    H3516017   5.975   6.030   5.818  0.2896 -1.2957 -0.5418
  132MOL    H3616018   5.819   6.076   5.880 -0.1632 -1.0654 -0.4479
  132MOL    H3716019   5.961   6.187   5.631  0.0068 -0.2187 -0.4660
  132MOL    C3816020   5.787   6.303   5.693 -0.1422 -0.1137 -0.2953
  132MOL    C3916021   5.731   6.375   5.821 -0.5295  0.2081  0.3887
  132MOL   Cl4016022   5.631   6.258   5.903 -0.5374 -0.0306 -0.0023
  132MOL    H4116023   5.710   6.245   5.642  0.1287  0.1836 -1.0451
  132MOL    H4216024   5.821   6.373   5.617 -1.7606 -1.0678 -1.9319
  132MOL    H4316025   5.801   6.401   5.900  2.3450 -3.8215 -0.7001
  132MOL    C4416026   5.632   6.490   5.790 -0.3074  0.2379 -0.1557
  132MOL    C4516027   5.698   6.630   5.760 -0.5786 -0.5794 -0.1355
  132MOL   Cl4616028   5.809   6.691   5.883 -0.2051  0.4476  0.0479
  132MOL    H4716029   5.574   6.518   5.878  0.7996 -1.4731  1.1453
  132MOL    H4816030   5.575   6.451   5.706  0.1527 -1.1043  0.1464
  132MOL    H4916031   5.768   6.615   5.677  1.9350  1.6539  1.4751
  132MOL    C5016032   5.585   6.736   5.719  0.1990 -0.3515  0.9010
  132MOL    C5116033   5.641   6.880   5.672 -0.0336 -0.2538 -0.1178
  132MOL   Cl5216034   5.502   6.989   5.661  0.1468  0.4969  0.4742
  132MOL    H5316035   5.504   6.749   5.790 -0.9083  1.1038 -0.5911
  132MOL    H5416036   5.540   6.692   5.630  1.3474  1.0778 -0.4372
  132MOL    H5516037   5.694   6.915   5.760 -2.2469  0.4565  0.9856
  132MOL    C5616038   5.724   6.881   5.537 -0.8000 -0.1709  0.4779
  132MOL    C5716039   5.656   6.834   5.409 -0.4001  0.0666 -0.8108
  132MOL   Cl5816040   5.663   6.655   5.397 -0.0781 -0.3853 -0.1317
  132MOL    H5916041   5.810   6.821   5.568 -0.9419  0.2627  1.7724
  132MOL    H6016042   5.769   6.977   5.511  1.9354 -1.5557 -0.0991
  132MOL    H6116043   5.553   6.865   5.429 -0.1486  0.3765  0.0093
  132MOL    C6216044   5.708   6.894   5.278  0.3006  0.2840 -0.3114
  132MOL    C6316045   5.643   6.833   5.150 -0.1732 -0.2023 -0.0757
  132MOL   Cl6416046   5.716   6.918   5.011  0.1663 -0.2836 -0.1040
  132MOL    H6516047   5.812   6.862   5.267  1.2429  2.4165  1.9448
  132MOL    H6616048   5.710   7.003   5.286  0.9552  0.3282 -0.9791
  132MOL    H6716049   5.678   6.730   5.145 -0.5596 -0.2362 -2.9327
  132MOL    C6816050   5.494   6.843   5.138 -0.3949  0.1661 -0.4539
  132MOL    C6916051   5.434   6.788   4.999 -0.7192 -0.2949  0.4729
  132MOL   Cl7016052   5.263   6.783   5.034 -0.2226  0.0280  0.2515
  132MOL    H7116053   5.454   6.940   5.168  0.4131  0.1638  0.6440
  132MOL    H7216054   5.456   6.775   5.215  1.9142 -0.4269  0.1991
  132MOL    H7316055   5.459   6.859   4.921  0.7273 -1.7775 -0.4579
  132MOL    C7416056   5.481   6.651   4.960 -0.1314  0.1715  0.0480
  132MOL    C7516057   5.422   6.595   4.833 -0.2892 -0.1927  0.2172
  132MOL   Cl7616058   5.463   6.419   4.825  0.2457 -0.5740  0.3276
  132MOL    H7716059   5.474   6.575   5.038  0.8385 -1.7833 -1.7056
  132MOL    H7816060   5.588   6.657   4.939  0.0089 -1.2399  0.2992
  132MOL    H7916061   5.315   6.613   4.820 -0.1478  1.6015  1.3630
  132MOL    C8016062   5.483   6.669   4.708  0.4454  0.0668  0.2185
  132MOL    C8116063   5.450   6.610   4.568 -0.1759 -0.1143 -0.3630
  132MOL   Cl8216064   5.539   6.710   4.454  0.2726 -0.3635  0.0262
  132MOL    H8316065   5.591   6.663   4.723  0.2655  1.1441  2.1149
  132MOL    H8416066   5.460   6.776   4.707 -0.9791 -0.2333  0.2781
  132MOL    H8516067   5.490   6.509   4.555  1.7502  0.8440 -2.2241
  132MOL    C8616068   5.297   6.607   4.543 -0.2178 -0.2721  0.5444
  132MOL    C8716069   5.258   6.556   4.396  0.1790  0.3400  0.3137
  132MOL   Cl8816070   5.086   6.576   4.383 -0.4155 -0.0838  0.3393
  132MOL    H8916071   5.253   6.705   4.563  0.5910 -0.0078  1.1020
  132MOL    H9016072   5.244   6.546   4.615  1.2031  0.1364  1.9777
  132MOL    H9116073   5.303   6.620   4.320 -3.1262  0.9417 -1.2103
  132MOL    C9216074   5.297   6.408   4.377 -0.6848 -0.1221  0.3626
  132MOL    C9316075   5.276   6.353   4.241  0.4481 -0.6116  0.3382
  132MOL   Cl9416076   5.362   6.450   4.120 -0.0619 -0.2439  0.1122
  132MOL    H9516077   5.237   6.351   4.448  1.8639  0.2098  2.8943
  132MOL    H9616078   5.401   6.399   4.410  0.3233  1.0226 -2.3945
  132MOL    H9716079   5.334   6.261   4.235  1.4148  0.0439 -0.7451
  132MOL    C9816080   5.131   6.333   4.191  0.1799  0.1380 -0.2268
  132MOL    C9916081   5.043   6.229   4.266 -0.1519 -0.1954  0.4379
  132MOL  Cl10016082   5.115   6.065   4.255  0.0233  0.1223 -0.0463
  132MOL   H10116083   5.139   6.299   4.088  0.9504 -0.5705  0.0515
  132MOL   H10216084   5.085   6.430   4.175 -0.4122 -0.1358 -0.1987
  132MOL   H10316085   5.032   6.268   4.367  1.9666 -0.3616  0.7592
  132MOL   C10416086   4.909   6.230   4.189  0.3093 -0.1737  0.1307
  132MOL   C10516087   4.794   6.145   4.250 -0.3171  0.3629 -0.1690
  132MOL  Cl10616088   4.641   6.207   4.167  0.3323  0.4985  0.3189
  132MOL   H10716089   4.921   6.190   4.088 -0.6216 -1.2120  0.4225
  132MOL   H10816090   4.870   6.331   4.177  1.2947  0.3378  1.1579
  132MOL   H10916091   4.807   6.039   4.227  0.7852  0.4726 -0.0970
  132MOL   C11016092   4.786   6.163   4.398  0.0882  0.0201 -0.5576
  132MOL   C11116093   4.657   6.118   4.463  0.1831  0.1989  0.1167
  132MOL  Cl11216094   4.657   6.182   4.627 -0.1723 -0.1949 -0.1985
  132MOL   H11316095   4.782   6.271   4.412  3.3192  0.1492 -0.2373
  132MOL   H11416096   4.868   6.120   4.454  1.8475  1.3030 -2.0567
  132MOL   H11516097   4.576   6.175   4.416 -1.0551 -1.0564  0.6825
  132MOL   C11616098   4.630   5.967   4.454  0.1895 -0.0900 -0.4547
  132MOL   C11716099   4.493   5.925   4.507  0.7338  0.3923 -0.0715
  132MOL  Cl11816100   4.473   5.755   4.477  0.4310  0.3272  0.0224
  132MOL   H11916101   4.705   5.908   4.507 -1.9405 -2.7388 -0.2700
  132MOL   H12016102   4.635   5.930   4.352 -0.6771 -0.9660 -0.1960
  132MOL   H12116103   4.491   5.946   4.614  0.1192  0.9166 -0.1813
  132MOL   H12216104   4.416   5.978   4.451  0.5353 -0.6460 -0.8104
  133MOL     C116105   3.104   5.866   1.006 -0.0141  0.0215  0.6846
  133MOL     C216106   3.006   5.757   1.070  0.4960 -0.9436  0.6127
  133MOL    Cl316107   3.093   5.600   1.083 -0.1621  0.1359  0.1383
  133MOL     H416108   3.189   5.897   1.067  0.4088 -0.4650  0.3442
  133MOL     H516109   3.141   5.830   0.910 -0.1507  0.3945  0.4925
  133MOL     H616110   2.977   5.780   1.173 -0.5346 -1.8280  0.5303
  133MOL     H716111   3.042   5.952   0.981 -1.8144 -2.4025 -3.8255
  133MOL     C816112   2.881   5.731   0.980 -0.8351  0.3222 -1.0609
  133MOL     C916113   2.775   5.848   0.978 -1.0455  0.6790  0.2802
  133MOL   Cl1016114   2.654   5.806   1.105  0.3161  0.4662 -0.1618
  133MOL    H1116115   2.827   5.640   1.009 -2.0152  1.1302 -0.6590
  133MOL    H1216116   2.924   5.705   0.884  1.2594  0.1611 -0.1041
  133MOL    H1316117   2.821   5.944   1.004 -0.5561  0.3373  0.6793
  133MOL    C1416118   2.712   5.866   0.841  0.2174  0.4270 -0.2424
  133MOL    C1516119   2.601   5.970   0.819 -0.2170  0.3767 -0.3208
  133MOL   Cl1616120   2.531   5.949   0.664 -0.2079  0.1528  0.8140
  133MOL    H1716121   2.650   5.776   0.834  0.3935  0.1809  1.2003
  133MOL    H1816122   2.801   5.879   0.780 -0.0493 -0.9663 -0.9532
  133MOL    H1916123   2.521   5.958   0.892 -0.4243  0.3446 -0.5521
  133MOL    C2016124   2.652   6.114   0.833 -0.1205 -0.0747  0.3996
  133MOL    C2116125   2.559   6.233   0.805  0.0775  0.1289  0.1092
  133MOL   Cl2216126   2.657   6.377   0.760  0.3349  0.0582 -0.2062
  133MOL    H2316127   2.733   6.122   0.760  0.4152 -2.2458  0.7467
  133MOL    H2416128   2.700   6.129   0.929  0.8424  1.6260 -0.3134
  133MOL    H2516129   2.498   6.201   0.721  1.2924 -2.4699  0.1758
  133MOL    C2616130   2.468   6.270   0.930 -0.0192 -0.2615 -0.2084
  133MOL    C2716131   2.545   6.298   1.061  0.9216 -0.0627  0.4273
  133MOL   Cl2816132   2.548   6.154   1.171  0.4037  0.5426  0.2382
  133MOL    H2916133   2.411   6.181   0.955 -0.0833  0.0710  0.8377
  133MOL    H3016134   2.407   6.356   0.904 -0.3841 -0.8821 -1.4775
  133MOL    H3116135   2.648   6.321   1.035  1.4191  1.0927  3.2078
  133MOL    C3216136   2.470   6.410   1.150  0.0299 -0.2279 -0.0961
  133MOL    C3316137   2.552   6.539   1.156 -0.4609  0.6237 -0.4936
  133MOL   Cl3416138   2.477   6.639   1.278 -0.1051  0.0284 -0.1429
  133MOL    H3516139   2.450   6.371   1.250 -0.1691  0.1458  0.0116
  133MOL    H3616140   2.367   6.432   1.121  0.0385  1.6652  1.1989
  133MOL    H3716141   2.650   6.508   1.193 -1.3631 -2.8351 -0.8830
  133MOL    C3816142   2.566   6.617   1.024  0.0780 -0.4844 -0.8835
  133MOL    C3916143   2.679   6.719   1.027 -0.1266 -0.1482 -0.1365
  133MOL   Cl4016144   2.643   6.860   0.923  0.1288 -0.0000 -0.6250
  133MOL    H4116145   2.466   6.658   1.006 -0.7608 -1.1814  1.8357
  133MOL    H4216146   2.574   6.547   0.941  0.7358 -3.6025  1.7314
  133MOL    H4316147   2.697   6.748   1.131  1.6013 -2.7941  0.3414
  133MOL    C4416148   2.813   6.659   0.974  0.3816 -0.1958 -0.1395
  133MOL    C4516149   2.888   6.555   1.064 -0.4329  1.0066  0.2877
  133MOL   Cl4616150   2.914   6.614   1.227 -0.0679  0.0914 -0.2679
  133MOL    H4716151   2.887   6.737   0.960 -1.2156  1.8579  2.3606
  133MOL    H4816152   2.791   6.610   0.879  0.4470 -1.0072  0.2529
  133MOL    H4916153   2.826   6.466   1.064  1.0811 -0.0780  1.4694
  133MOL    C5016154   3.026   6.526   0.993 -0.3774  0.2744  0.1527
  133MOL    C5116155   3.121   6.431   1.068 -0.4671 -0.1058  0.3356
  133MOL   Cl5216156   3.047   6.273   1.094  0.1118 -0.1383  0.1598
  133MOL    H5316157   3.076   6.622   0.989  1.4130 -0.6493 -0.3625
  133MOL    H5416158   3.010   6.495   0.890  2.3224  2.2911 -0.9361
  133MOL    H5516159   3.201   6.408   0.998 -2.4330 -1.8187 -1.4119
  133MOL    C5616160   3.199   6.484   1.194 -0.0850 -0.3961 -0.4908
  133MOL    C5716161   3.339   6.426   1.207  0.2954  0.2431 -0.4654
  133MOL   Cl5816162   3.357   6.250   1.227  0.1149 -0.1457 -0.3862
  133MOL    H5916163   3.151   6.445   1.284  3.4157 -2.9877  0.3856
  133MOL    H6016164   3.187   6.592   1.195 -1.4899 -0.5466 -0.9359
  133MOL    H6116165   3.392   6.442   1.112  1.4730 -0.3195  0.0903
  133MOL    C6216166   3.421   6.501   1.313 -0.0122  0.3689 -0.6450
  133MOL    C6316167   3.571   6.487   1.289  0.1407  0.0932 -0.5893
  133MOL   Cl6416168   3.645   6.555   1.444  0.2101  0.4126 -0.3067
  133MOL    H6516169   3.397   6.458   1.410  1.1115  2.2735  0.5323
  133MOL    H6616170   3.402   6.606   1.338 -0.2841  0.2951 -0.5412
  133MOL    H6716171   3.593   6.381   1.276  2.3426  0.2607  1.2962
  133MOL    C6816172   3.636   6.570   1.172 -0.2706 -0.0721 -0.4217
  133MOL    C6916173   3.785   6.555   1.157 -0.0961  0.2968 -0.3442
  133MOL   Cl7016174   3.857   6.686   1.061  0.1550 -0.0093  0.1965
  133MOL    H7116175   3.618   6.677   1.186 -2.9299 -0.5710  0.3701
  133MOL    H7216176   3.582   6.553   1.079 -0.1030 -1.2065 -0.3094
  133MOL    H7316177   3.830   6.573   1.255  0.6292  1.3225 -0.8549
  133MOL    C7416178   3.826   6.414   1.099  0.2780  1.1591 -0.4078
  133MOL    C7516179   3.958   6.354   1.159  0.5407  0.3430  0.2048
  133MOL   Cl7616180   3.924   6.304   1.327  0.2235  0.7391  0.4543
  133MOL    H7716181   3.826   6.417   0.991  0.6951  1.7480 -0.3916
  133MOL    H7816182   3.752   6.336   1.118 -0.7722  2.4102  0.7802
  133MOL    H7916183   3.970   6.262   1.101 -0.6022 -0.3665  1.0851
  133MOL    C8016184   4.091   6.435   1.159 -0.4939  0.6711  0.2739
  133MOL    C8116185   4.220   6.360   1.217 -0.3357 -0.5915  0.3348
  133MOL   Cl8216186   4.250   6.403   1.384 -0.1862 -0.3057 -0.1728
  133MOL    H8316187   4.088   6.528   1.215 -1.2405 -0.0684  1.4636
  133MOL    H8416188   4.110   6.458   1.054 -1.8182  0.5033 -0.0094
  133MOL    H8516189   4.209   6.252   1.211  1.7712 -0.8703  1.1241
  133MOL    C8616190   4.363   6.388   1.150  0.0630 -0.0836 -0.7126
  133MOL    C8716191   4.379   6.352   0.999  0.2304  0.0580  0.1124
  133MOL   Cl8816192   4.359   6.176   0.981 -0.0696  0.2167  0.2951
  133MOL    H8916193   4.438   6.335   1.209  0.3749  1.5629  0.3888
  133MOL    H9016194   4.393   6.491   1.164  1.9610 -0.6539 -0.3801
  133MOL    H9116195   4.291   6.402   0.957 -0.0157  0.9301  1.6118
  133MOL    C9216196   4.511   6.400   0.943  0.6615  0.0127 -0.1516
  133MOL    C9316197   4.532   6.432   0.793 -0.6326  0.3464  0.0853
  133MOL   Cl9416198   4.505   6.296   0.686 -0.0103  0.0389  0.1863
  133MOL    H9516199   4.591   6.341   0.987  1.6845  1.5522  0.0908
  133MOL    H9616200   4.528   6.496   0.990 -3.8562  2.0510 -2.3361
  133MOL    H9716201   4.462   6.509   0.762 -0.0941  0.6056 -0.5039
  133MOL    C9816202   4.677   6.476   0.761 -0.0416  0.3093 -0.4684
  133MOL    C9916203   4.722   6.615   0.814  0.0541 -0.6020 -0.4967
  133MOL  Cl10016204   4.664   6.755   0.721  0.3566  0.0817  0.3777
  133MOL   H10116205   4.680   6.492   0.653 -0.3321 -1.2669 -0.7199
  133MOL   H10216206   4.747   6.397   0.787  0.7001  1.1400  0.0614
  133MOL   H10316207   4.681   6.639   0.912  1.8958  2.1523 -0.3472
  133MOL   C10416208   4.873   6.634   0.819 -0.1902 -0.4439 -0.1406
  133MOL   C10516209   4.950   6.531   0.910 -0.0128 -0.0992  0.2097
  133MOL  Cl10616210   4.909   6.549   1.090 -0.5309  0.0444  0.2601
  133MOL   H10716211   4.904   6.734   0.852  1.2525 -1.3734  1.4132
  133MOL   H10816212   4.915   6.623   0.719 -1.5316 -1.3893 -0.6134
  133MOL   H10916213   4.939   6.425   0.886 -2.4461  0.0258  0.6234
  133MOL   C11016214   5.100   6.561   0.913  0.7400  0.6886 -0.2145
  133MOL   C11116215   5.180   6.452   0.989 -0.1468  0.8206  0.3036
  133MOL  Cl11216216   5.344   6.514   1.028 -0.5394  0.1590  0.6422
  133MOL   H11316217   5.116   6.660   0.954 -0.9022  1.7035 -1.9294
  133MOL   H11416218   5.142   6.551   0.813  0.7706 -0.7653 -0.0625
  133MOL   H11516219   5.129   6.433   1.083 -2.8779 -1.8578 -1.6421
  133MOL   C11616220   5.197   6.309   0.929  0.2638 -0.5951 -0.3737
  133MOL   C11716221   5.250   6.313   0.785 -0.4324 -0.3372  0.3026
  133MOL  Cl11816222   5.286   6.154   0.720 -0.0168  0.6216 -0.5512
  133MOL   H11916223   5.106   6.251   0.941 -0.6490  0.7106 -0.8519
  133MOL   H12016224   5.278   6.259   0.983  1.7181  0.9431 -1.0937
  133MOL   H12116225   5.189   6.366   0.711  1.8182 -1.0293 -2.1464
  133MOL   H12216226   5.346   6.366   0.782 -0.0980 -0.9715 -0.6955
  134MOL     C116227   0.850   4.665   3.739  0.0172  0.0587  0.4855
  134MOL     C216228   0.985   4.662   3.813 -0.0966  0.0693  0.5762
  134MOL    Cl316229   1.041   4.833   3.811  0.3568 -0.0663 -0.3236
  134MOL     H416230   0.825   4.560   3.729  1.3725 -0.3252  1.0116
  134MOL     H516231   0.764   4.714   3.785 -0.1242  1.1555 -0.8919
  134MOL     H616232   0.960   4.639   3.916 -1.9644  0.9939  0.3497
  134MOL     H716233   0.862   4.706   3.638  2.4616  0.4024  0.8829
  134MOL     C816234   1.100   4.576   3.755  0.3273 -0.4000  0.3188
  134MOL     C916235   1.076   4.424   3.740  0.4379 -0.4434 -0.0151
  134MOL   Cl1016236   1.035   4.350   3.898 -0.2558  0.1213 -0.4054
  134MOL    H1116237   1.182   4.589   3.825 -0.9010 -1.0291  1.9112
  134MOL    H1216238   1.130   4.611   3.657  1.9417  1.4036  1.4217
  134MOL    H1316239   0.984   4.409   3.685  0.9459  0.8558 -1.2374
  134MOL    C1416240   1.196   4.360   3.669  0.3698 -0.2271  0.3701
  134MOL    C1516241   1.199   4.207   3.660  0.7982 -0.1836 -0.3216
  134MOL   Cl1616242   1.333   4.156   3.553  0.2819 -0.0473 -0.2350
  134MOL    H1716243   1.281   4.386   3.732  0.7845 -0.4008 -0.1037
  134MOL    H1816244   1.211   4.402   3.569 -1.1578 -0.6609 -0.0520
  134MOL    H1916245   1.201   4.155   3.756 -2.3724  1.1001  0.4938
  134MOL    C2016246   1.073   4.138   3.595 -0.2398  0.4703 -0.6176
  134MOL    C2116247   1.058   3.983   3.605 -0.0044 -0.4683 -0.1912
  134MOL   Cl2216248   0.909   3.937   3.522  0.0377 -0.2458 -0.0274
  134MOL    H2316249   1.081   4.160   3.489 -3.3080  0.4954 -0.8820
  134MOL    H2416250   0.979   4.183   3.627  0.2381  0.4473  0.8837
  134MOL    H2516251   1.140   3.925   3.562 -0.7376 -2.5337  1.1042
  134MOL    C2616252   1.053   3.934   3.751  0.7528 -0.2542 -0.0329
  134MOL    C2716253   0.995   3.795   3.780 -0.3724  0.0022 -0.0080
  134MOL   Cl2816254   0.978   3.767   3.953 -0.6152  0.0469  0.2914
  134MOL    H2916255   0.980   3.993   3.806  1.9554 -0.3206  1.7012
  134MOL    H3016256   1.147   3.931   3.807 -0.0167  0.8085  1.3541
  134MOL    H3116257   0.894   3.775   3.745 -0.9826 -2.0719  2.7644
  134MOL    C3216258   1.086   3.669   3.719 -0.2560  0.6099 -0.7956
  134MOL    C3316259   1.022   3.530   3.720  0.5879 -0.1748 -0.2793
  134MOL   Cl3416260   1.120   3.432   3.617 -0.1905  0.2742  0.1793
  134MOL    H3516261   1.179   3.670   3.775 -1.2163 -0.2879  0.8560
  134MOL    H3616262   1.127   3.690   3.621 -1.2451 -0.5932 -1.4918
  134MOL    H3716263   1.038   3.494   3.822  1.4577  1.7523  0.2877
  134MOL    C3816264   0.880   3.526   3.667 -0.4306 -0.4272 -0.5779
  134MOL    C3916265   0.823   3.401   3.598  0.2665 -0.2287 -0.6369
  134MOL   Cl4016266   0.671   3.454   3.517 -0.0696 -0.3249  0.3614
  134MOL    H4116267   0.888   3.594   3.582  0.1069 -1.4323 -1.3416
  134MOL    H4216268   0.815   3.585   3.732 -0.9559 -0.2919 -1.2185
  134MOL    H4316269   0.891   3.365   3.522 -1.0612  2.2279 -3.0681
  134MOL    C4416270   0.788   3.286   3.693  0.3812  0.3926 -0.8709
  134MOL    C4516271   0.902   3.198   3.741 -0.1841 -0.2784  0.1522
  134MOL   Cl4616272   0.982   3.099   3.606 -0.3990 -0.4561 -0.0561
  134MOL    H4716273   0.722   3.221   3.635 -1.1595  0.0443  1.2220
  134MOL    H4816274   0.736   3.334   3.775  2.4419  0.1111  0.6545
  134MOL    H4916275   0.986   3.257   3.776  0.7371 -0.4373 -1.7167
  134MOL    C5016276   0.859   3.099   3.850  0.2283  0.6386 -0.6241
  134MOL    C5116277   0.976   3.021   3.930 -1.1733 -0.1605  0.1720
  134MOL   Cl5216278   0.889   2.892   4.016  0.1193 -0.0956 -0.3736
  134MOL    H5316279   0.808   3.015   3.803  1.3598 -1.3609  1.6196
  134MOL    H5416280   0.788   3.147   3.917 -0.9482 -0.8969 -0.7366
  134MOL    H5516281   1.039   2.969   3.859 -0.8556 -0.6011  0.7784
  134MOL    C5616282   1.062   3.104   4.025 -0.5673 -0.2740  0.3484
  134MOL    C5716283   0.983   3.183   4.129 -0.2699  1.1331  0.1992
  134MOL   Cl5816284   0.938   3.329   4.043 -0.5585 -0.2101  0.3300
  134MOL    H5916285   1.122   3.166   3.959 -2.4566 -1.0780 -2.1951
  134MOL    H6016286   1.133   3.032   4.068 -0.6396  0.5797  1.9238
  134MOL    H6116287   0.901   3.122   4.167  0.3043 -0.6318 -1.3003
  134MOL    C6216288   1.074   3.236   4.239  0.4394  0.1180  0.2162
  134MOL    C6316289   1.023   3.339   4.341  0.0283 -0.5024  0.8106
  134MOL   Cl6416290   1.152   3.374   4.466  0.1895  0.1171 -0.1510
  134MOL    H6516291   1.154   3.283   4.182 -0.0967 -0.5761 -1.1352
  134MOL    H6616292   1.116   3.144   4.280 -1.2351 -0.4436  0.7419
  134MOL    H6716293   1.009   3.433   4.288 -2.1290 -0.8989  0.6051
  134MOL    C6816294   0.894   3.286   4.410  0.0367 -0.4436 -0.1562
  134MOL    C6916295   0.829   3.383   4.512 -0.4174 -0.5186 -0.5819
  134MOL   Cl7016296   0.772   3.275   4.649  0.1515  0.1143 -0.0525
  134MOL    H7116297   0.914   3.191   4.461 -2.4110 -1.4136 -0.9146
  134MOL    H7216298   0.823   3.261   4.331 -0.4557 -0.2164  0.2064
  134MOL    H7316299   0.914   3.437   4.555 -0.4492 -0.7784 -0.1910
  134MOL    C7416300   0.722   3.476   4.452 -0.0758  0.2632  0.3520
  134MOL    C7516301   0.782   3.580   4.348 -0.3928 -0.2344  0.3644
  134MOL   Cl7616302   0.935   3.658   4.402  0.1981  0.2258 -0.0204
  134MOL    H7716303   0.678   3.526   4.538 -0.1944 -0.7231  0.8722
  134MOL    H7816304   0.650   3.415   4.398  0.0996  1.1917 -0.9655
  134MOL    H7916305   0.810   3.507   4.272 -1.0332 -2.6461  2.3780
  134MOL    C8016306   0.694   3.686   4.285  0.7523 -0.2883  0.4256
  134MOL    C8116307   0.570   3.622   4.223 -0.5265  0.0234 -0.0424
  134MOL   Cl8216308   0.618   3.502   4.089 -0.0190  0.1916 -0.0188
  134MOL    H8316309   0.750   3.737   4.207 -2.1215 -2.8200 -3.4507
  134MOL    H8416310   0.665   3.753   4.366  1.5921 -0.8351  1.1913
  134MOL    H8516311   0.504   3.569   4.293 -1.2645  1.5392  0.4372
  134MOL    C8616312   0.485   3.728   4.147  0.2857  0.3483 -0.8692
  134MOL    C8716313   0.420   3.831   4.237 -0.3993 -0.3051 -0.2025
  134MOL   Cl8816314   0.325   3.765   4.360 -0.1453  0.1549  0.3479
  134MOL    H8916315   0.405   3.677   4.092 -1.5976  1.6143  0.6184
  134MOL    H9016316   0.530   3.785   4.065 -0.9490  0.1146 -1.7307
  134MOL    H9116317   0.495   3.890   4.290 -0.1766  0.1441 -1.0057
  134MOL    C9216318   0.327   3.927   4.163 -0.1415  0.1493  0.4499
  134MOL    C9316319   0.397   4.023   4.057 -0.0279 -0.2539 -0.2650
  134MOL   Cl9416320   0.524   4.107   4.155 -0.0301 -0.1537  0.3661
  134MOL    H9516321   0.277   3.992   4.235  0.6057  0.7635  0.4087
  134MOL    H9616322   0.250   3.861   4.122  0.0650  0.1331  0.0894
  134MOL    H9716323   0.451   3.960   3.985 -0.1002  0.2332 -0.7488
  134MOL    C9816324   0.290   4.120   3.998 -0.1550  0.6434 -0.1737
  134MOL    C9916325   0.356   4.218   3.895  0.0463 -0.2993 -0.2935
  134MOL  Cl10016326   0.232   4.342   3.834  0.0580  0.2365  0.2478
  134MOL   H10116327   0.237   4.169   4.080 -0.1376 -2.4191  1.7667
  134MOL   H10216328   0.215   4.057   3.949 -0.7569  0.2209  1.2537
  134MOL   H10316329   0.429   4.267   3.960 -0.9186 -0.9604  1.3184
  134MOL   C10416330   0.434   4.148   3.781 -0.2429 -0.6748  0.5128
  134MOL   C10516331   0.534   4.238   3.701 -0.4952  0.1681  0.0606
  134MOL  Cl10616332   0.675   4.253   3.805  0.3573  0.1095  0.3975
  134MOL   H10716333   0.361   4.120   3.705  1.2207 -0.7992 -0.8564
  134MOL   H10816334   0.475   4.049   3.799 -1.3435 -1.2800 -0.2346
  134MOL   H10916335   0.570   4.184   3.614 -1.7528  0.9856 -0.9839
  134MOL   C11016336   0.487   4.383   3.656 -0.5797  0.6115 -0.0314
  134MOL   C11116337   0.578   4.464   3.563  1.0243 -0.2520  0.2307
  134MOL  Cl11216338   0.515   4.629   3.552 -0.3930 -0.1271  0.2385
  134MOL   H11316339   0.491   4.440   3.749  0.7726  2.9905 -1.4971
  134MOL   H11416340   0.384   4.386   3.619 -0.8516  3.2882  0.8338
  134MOL   H11516341   0.678   4.478   3.604  1.1405 -0.4543  0.0202
  134MOL   C11616342   0.591   4.407   3.422 -0.9654  0.3426  0.0661
  134MOL   C11716343   0.718   4.452   3.345  0.1620  0.1115 -0.3163
  134MOL  Cl11816344   0.841   4.358   3.426  0.0420 -0.2922  0.0521
  134MOL   H11916345   0.502   4.431   3.363 -0.4936  1.4770 -0.2096
  134MOL   H12016346   0.579   4.299   3.417  2.0806 -0.1040  1.3626
  134MOL   H12116347   0.720   4.426   3.239  0.5625 -1.0347 -0.0235
  134MOL   H12216348   0.732   4.560   3.357  0.1044  0.2586 -1.4464
  135MOL     C116349   4.497   5.225   5.953  0.2944  0.1683 -1.4124
  135MOL     C216350   4.460   5.289   5.820 -0.4212 -0.0502 -0.0803
  135MOL    Cl316351   4.457   5.151   5.696  0.5215  0.0152 -0.2167
  135MOL     H416352   4.459   5.124   5.965  2.5912 -0.3712  2.2739
  135MOL     H516353   4.601   5.201   5.973 -0.1797 -0.0772  0.9227
  135MOL     H616354   4.369   5.349   5.811  0.4135  1.3600  0.7793
  135MOL     H716355   4.469   5.295   6.032  1.1505 -0.6555 -0.3687
  135MOL     C816356   4.565   5.394   5.776 -0.1304 -0.9080  0.6443
  135MOL     C916357   4.545   5.533   5.847 -0.0798 -0.4800 -0.2979
  135MOL   Cl1016358   4.403   5.619   5.786  0.0356 -0.1668 -0.1226
  135MOL    H1116359   4.560   5.393   5.667  0.8742  2.1519  0.5242
  135MOL    H1216360   4.664   5.352   5.797  0.1046 -0.0523  1.2568
  135MOL    H1316361   4.518   5.531   5.953 -2.2262 -0.8926 -0.8123
  135MOL    C1416362   4.669   5.632   5.822 -0.2305  0.5032  0.2617
  135MOL    C1516363   4.803   5.583   5.883 -0.0512  0.5756  0.0455
  135MOL   Cl1616364   4.769   5.538   6.060 -0.0025 -0.0201  0.5335
  135MOL    H1716365   4.648   5.729   5.868 -3.0117 -0.2493  0.6379
  135MOL    H1816366   4.693   5.650   5.717  1.3343  1.1217  0.7026
  135MOL    H1916367   4.839   5.497   5.827  1.4388  1.2983 -0.1360
  135MOL    C2016368   4.920   5.681   5.881 -0.1457 -0.2549  0.1682
  135MOL    C2116369   4.980   5.715   5.736 -0.0317  0.7883  0.2244
  135MOL   Cl2216370   5.062   5.571   5.664 -0.1249 -0.0690  0.4150
  135MOL    H2316371   5.003   5.647   5.941  2.2305  0.6306 -2.5070
  135MOL    H2416372   4.884   5.774   5.926  0.9862  0.2305  0.0773
  135MOL    H2516373   4.901   5.755   5.673 -0.4078 -1.8382 -1.0719
  135MOL    C2616374   5.083   5.829   5.733 -0.0249 -0.3123  0.1239
  135MOL    C2716375   5.023   5.969   5.735  0.3683 -0.3788 -0.3471
  135MOL   Cl2816376   4.951   6.018   5.576  0.0644 -0.4236  0.0545
  135MOL    H2916377   5.159   5.819   5.655 -1.1920 -1.0459 -0.9574
  135MOL    H3016378   5.140   5.821   5.825 -1.8923  0.1154  1.3522
  135MOL    H3116379   4.934   5.962   5.798  0.9389  2.0510  0.7887
  135MOL    C3216380   5.119   6.078   5.789 -0.3796 -0.7368 -0.2173
  135MOL    C3316381   5.183   6.061   5.927 -1.2036 -0.2611  0.0775
  135MOL   Cl3416382   5.061   5.998   6.048 -0.0853  0.0832 -0.1018
  135MOL    H3516383   5.065   6.173   5.784 -1.6960 -1.5703 -2.5732
  135MOL    H3616384   5.194   6.092   5.712 -0.6777  0.0466 -0.3764
  135MOL    H3716385   5.264   5.988   5.919  0.5355  1.6440  0.0559
  135MOL    C3816386   5.240   6.201   5.969  0.1818  0.0752 -0.6783
  135MOL    C3916387   5.294   6.199   6.113 -0.3228 -0.0657 -0.3015
  135MOL   Cl4016388   5.354   6.363   6.159  0.2248 -0.1048 -0.0321
  135MOL    H4116389   5.160   6.275   5.970  0.8812  0.8518 -1.0256
  135MOL    H4216390   5.323   6.236   5.907  2.0817 -1.8104  0.7006
  135MOL    H4316391   5.214   6.185   6.186 -0.0143  0.7283  0.2090
  135MOL    C4416392   5.404   6.093   6.132  0.5019 -0.2476  0.2084
  135MOL    C4516393   5.466   6.097   6.269 -0.5325  0.4427 -0.3727
  135MOL   Cl4616394   5.614   6.005   6.260 -0.0013 -0.1533  0.1387
  135MOL    H4716395   5.466   6.114   6.046 -0.2885 -0.5677 -0.4504
  135MOL    H4816396   5.377   5.989   6.115  0.5425 -0.0398 -1.1521
  135MOL    H4916397   5.509   6.191   6.302  1.8625 -0.8845  0.4478
  135MOL    C5016398   5.374   6.041   6.385  0.6802  0.1168 -0.0342
  135MOL    C5116399   5.410   6.099   6.524  0.2016 -0.3872 -0.1819
  135MOL   Cl5216400   5.496   5.972   6.615  0.0563 -0.1979 -0.0544
  135MOL    H5316401   5.367   5.933   6.389  0.2314  0.1599  0.3079
  135MOL    H5416402   5.274   6.080   6.363  1.0384  0.1695 -1.6648
  135MOL    H5516403   5.477   6.183   6.510  0.9006 -1.0453 -0.8085
  135MOL    C5616404   5.291   6.144   6.613  0.6796  0.1359 -0.5633
  135MOL    C5716405   5.197   6.259   6.564 -0.7559 -0.3399 -0.3674
  135MOL   Cl5816406   5.304   6.383   6.517  0.2084  0.1761 -0.1900
  135MOL    H5916407   5.349   6.182   6.697  0.0052 -0.7138  0.3098
  135MOL    H6016408   5.234   6.059   6.650  1.3565 -0.2702 -0.4504
  135MOL    H6116409   5.157   6.225   6.469 -3.0551  3.0821 -0.7118
  135MOL    C6216410   5.082   6.307   6.659  0.2293 -0.0889  0.8389
  135MOL    C6316411   4.979   6.200   6.709 -0.1697  0.3261  0.3113
  135MOL   Cl6416412   4.869   6.149   6.577 -0.3076  0.1199  0.5967
  135MOL    H6516413   5.027   6.385   6.606 -1.5430 -2.1428 -0.4127
  135MOL    H6616414   5.126   6.365   6.741  0.0099  1.2092  0.0635
  135MOL    H6716415   5.027   6.106   6.737 -0.4068 -0.0251 -0.4337
  135MOL    C6816416   4.886   6.263   6.817 -0.2095 -0.2479  0.5916
  135MOL    C6916417   4.789   6.168   6.901  0.5900  0.0057  0.6413
  135MOL   Cl7016418   4.875   6.018   6.935  0.1068  0.1191  0.4564
  135MOL    H7116419   4.826   6.345   6.778  2.0293  1.7812  1.3395
  135MOL    H7216420   4.954   6.323   6.878  0.2158 -0.0092 -0.1069
  135MOL    H7316421   4.780   6.221   6.996 -1.1188  1.3640 -0.2445
  135MOL    C7416422   4.640   6.144   6.846  0.2169  0.5026  0.2482
  135MOL    C7516423   4.554   6.271   6.853  0.1576 -0.7003  0.6321
  135MOL   Cl7616424   4.481   6.277   7.017  0.2501 -0.7533  0.1024
  135MOL    H7716425   4.597   6.061   6.902  0.0470  0.1579 -0.3966
  135MOL    H7816426   4.649   6.108   6.744  2.6265 -0.2690  0.7090
  135MOL    H7916427   4.624   6.352   6.833 -1.2089  0.5015  0.6338
  135MOL    C8016428   4.434   6.257   6.754 -0.9228 -0.1889 -0.2370
  135MOL    C8116429   4.474   6.297   6.608  0.5720 -0.3558 -0.6257
  135MOL   Cl8216430   4.497   6.472   6.607 -0.1205 -0.3670 -0.1314
  135MOL    H8316431   4.348   6.321   6.773  0.1813  1.0524  0.6517
  135MOL    H8416432   4.396   6.154   6.757  3.8186 -2.0250  2.1512
  135MOL    H8516433   4.572   6.258   6.580  2.0550  1.1717  2.2334
  135MOL    C8616434   4.371   6.261   6.504 -0.5615  0.4407 -0.4139
  135MOL    C8716435   4.415   6.295   6.359  0.0934 -0.4185 -0.2827
  135MOL   Cl8816436   4.277   6.331   6.257 -0.1359 -0.1767  0.1003
  135MOL    H8916437   4.277   6.311   6.531  0.8931  2.9851  0.1076
  135MOL    H9016438   4.350   6.155   6.507 -2.5936  0.8586  1.4610
  135MOL    H9116439   4.461   6.393   6.353 -1.1706  0.0603 -3.4210
  135MOL    C9216440   4.486   6.176   6.293  0.8428  0.1427  0.5080
  135MOL    C9316441   4.589   6.234   6.193 -0.5759 -0.0617 -0.1943
  135MOL   Cl9416442   4.627   6.103   6.079 -0.0817 -0.1730 -0.0538
  135MOL    H9516443   4.413   6.115   6.240  0.2056  3.3181 -2.5092
  135MOL    H9616444   4.540   6.122   6.371  1.1621  2.6729  2.1078
  135MOL    H9716445   4.546   6.309   6.127 -0.3163  1.0164  0.8667
  135MOL    C9816446   4.715   6.285   6.265  0.5480  1.0622  0.5243
  135MOL    C9916447   4.835   6.322   6.167  0.3275 -0.0504 -0.1256
  135MOL  Cl10016448   4.975   6.319   6.276 -0.0625 -0.2491  0.0717
  135MOL   H10116449   4.741   6.201   6.330 -0.1748 -0.1455 -0.7204
  135MOL   H10216450   4.690   6.367   6.332  1.9996  0.6331  1.6076
  135MOL   H10316451   4.849   6.239   6.098  0.4084 -0.7411  0.7286
  135MOL   C10416452   4.821   6.464   6.109  0.4709 -0.4222 -0.0327
  135MOL   C10516453   4.931   6.527   6.013  0.6869 -0.1152 -0.0545
  135MOL  Cl10616454   4.953   6.422   5.867  0.2175  0.0761  0.3017
  135MOL   H10716455   4.810   6.533   6.193  1.1691 -1.1330  0.6566
  135MOL   H10816456   4.722   6.473   6.065  0.7251 -1.1879 -0.7662
  135MOL   H10916457   4.887   6.616   5.970 -0.8763 -0.2308  1.2721
  135MOL   C11016458   5.066   6.572   6.077 -0.7449 -0.2566  0.1778
  135MOL   C11116459   5.162   6.672   6.001 -0.6064 -0.0176  0.3201
  135MOL  Cl11216460   5.293   6.713   6.113 -0.2628  0.0638  0.1426
  135MOL   H11316461   5.127   6.485   6.102  0.1058  0.1595 -0.4230
  135MOL   H11416462   5.032   6.623   6.168 -0.5308  0.5913 -0.2139
  135MOL   H11516463   5.213   6.625   5.917  0.0406  2.9231 -1.0068
  135MOL   C11616464   5.103   6.801   5.953 -0.2768  1.2608 -0.0861
  135MOL   C11716465   5.196   6.892   5.876 -0.4440  0.6627  0.1936
  135MOL  Cl11816466   5.199   6.865   5.702  0.0748  0.0892 -0.1690
  135MOL   H11916467   5.055   6.850   6.037 -1.0643  1.0504 -0.4086
  135MOL   H12016468   5.019   6.778   5.886 -0.7782 -0.1661  1.0030
  135MOL   H12116469   5.174   6.996   5.898 -2.0376 -0.2024  2.9385
  135MOL   H12216470   5.300   6.875   5.902 -0.2474 -1.1091 -1.5819
  136MOL     C116471   1.643   7.547   8.378  0.1980  0.0733  0.0610
  136MOL     C216472   1.744   7.438   8.405 -0.2603  0.2797 -0.5079
  136MOL    Cl316473   1.658   7.296   8.346 -0.1713  0.0826 -0.0406
  136MOL     H416474   1.663   7.651   8.403  0.9937 -0.0949  0.1303
  136MOL     H516475   1.625   7.546   8.271 -0.7794 -0.8585  0.2300
  136MOL     H616476   1.832   7.447   8.340 -0.2500  2.0105 -0.2934
  136MOL     H716477   1.551   7.517   8.428  0.8149 -1.4095  0.3223
  136MOL     C816478   1.801   7.439   0.027 -0.3099  0.7181 -0.4712
  136MOL     C916479   1.901   7.560   0.050  0.4576 -0.5696  0.2418
  136MOL   Cl1016480   2.052   7.511   8.484  0.3188  0.0561  0.1279
  136MOL    H1116481   1.845   7.340   0.043 -0.7475  0.7370  0.9128
  136MOL    H1216482   1.715   7.451   0.092 -0.4784  1.0319 -0.7507
  136MOL    H1316483   1.863   7.655   0.014 -1.1103 -0.3500  2.4152
  136MOL    C1416484   1.955   7.589   0.192  1.0814 -0.0806 -0.1306
  136MOL    C1516485   1.855   7.653   0.293 -0.3577 -0.0467 -0.0238
  136MOL   Cl1616486   1.790   7.801   0.228 -0.4909  0.1964 -0.0034
  136MOL    H1716487   2.036   7.660   0.178  1.7875 -1.0676 -1.0975
  136MOL    H1816488   2.004   7.499   0.229 -0.2835 -0.6327  0.3868
  136MOL    H1916489   1.768   7.589   0.298  1.1430 -2.2244 -1.0529
  136MOL    C2016490   1.917   7.684   0.431  0.2914  0.1168 -0.2407
  136MOL    C2116491   1.978   7.564   0.505  0.2425 -0.4047 -0.5212
  136MOL   Cl2216492   1.863   7.427   0.499  0.2473  0.0559  0.5249
  136MOL    H2316493   1.845   7.732   0.497 -0.7073 -0.5856 -0.8225
  136MOL    H2416494   1.995   7.761   0.430  1.3540 -0.9475 -0.1889
  136MOL    H2516495   2.060   7.523   0.447 -0.0646  1.2681 -2.1936
  136MOL    C2616496   2.022   7.588   0.650  0.0415  0.1664  0.0656
  136MOL    C2716497   2.131   7.494   0.697  0.3706 -0.1504  0.8177
  136MOL   Cl2816498   2.125   7.479   0.873 -0.2127 -0.0197  0.1774
  136MOL    H2916499   1.929   7.573   0.707  0.3065  0.7045  0.6431
  136MOL    H3016500   2.058   7.690   0.662  0.3115  0.3372 -2.1345
  136MOL    H3116501   2.103   7.397   0.656 -1.5072 -0.3779  2.5443
  136MOL    C3216502   2.271   7.554   0.654  0.5226  0.6249 -0.3729
  136MOL    C3316503   2.398   7.488   0.710 -0.8113 -0.4289  0.6487
  136MOL   Cl3416504   2.531   7.597   0.673  0.2216 -0.8129 -0.1149
  136MOL    H3516505   2.270   7.661   0.677 -1.4669  0.6392 -0.4406
  136MOL    H3616506   2.288   7.532   0.549 -2.6684  0.0142 -0.8142
  136MOL    H3716507   2.388   7.497   0.819  0.0469 -1.4579  0.8281
  136MOL    C3816508   2.427   7.335   0.669 -0.7002  0.2541 -0.3113
  136MOL    C3916509   2.558   7.265   0.720  0.7808  0.0266 -0.2274
  136MOL   Cl4016510   2.616   7.149   0.596  0.2091 -0.5135  0.0444
  136MOL    H4116511   2.431   7.332   0.561 -2.1932  0.4079 -0.3864
  136MOL    H4216512   2.339   7.275   0.693 -1.5922  1.3714 -0.7303
  136MOL    H4316513   2.633   7.343   0.729 -1.0275  1.8951 -0.9747
  136MOL    C4416514   2.537   7.192   0.852 -0.3838  0.4448 -0.1678
  136MOL    C4516515   2.523   7.281   0.974 -0.5359 -0.2449 -0.0259
  136MOL   Cl4616516   2.673   7.370   0.985  0.1723 -0.4826 -0.1390
  136MOL    H4716517   2.621   7.122   0.861  1.0689  2.3474  1.5630
  136MOL    H4816518   2.452   7.124   0.843  1.1414 -1.4291 -0.9679
  136MOL    H4916519   2.440   7.352   0.970 -0.8596 -0.6635 -0.9786
  136MOL    C5016520   2.516   7.202   1.108  0.1637 -0.1065  0.4235
  136MOL    C5116521   2.373   7.153   1.148 -0.5356 -0.0746  0.2762
  136MOL   Cl5216522   2.267   7.286   1.186 -0.5913  0.2422  0.3361
  136MOL    H5316523   2.554   7.257   1.194 -0.9140  0.4746  0.5387
  136MOL    H5416524   2.592   7.125   1.117  0.5514  0.2076 -0.1572
  136MOL    H5516525   2.328   7.100   1.065  0.1724 -0.0238 -0.1376
  136MOL    C5616526   2.385   7.056   1.260 -1.1546  0.0394 -0.7239
  136MOL    C5716527   2.255   6.986   1.303 -0.4844 -0.2908 -0.6440
  136MOL   Cl5816528   2.288   6.891   1.451 -0.1272 -0.2751 -0.0024
  136MOL    H5916529   2.424   7.105   1.350 -1.6414  1.5051 -1.2911
  136MOL    H6016530   2.456   6.979   1.230 -0.6484  0.4434 -0.5874
  136MOL    H6116531   2.191   7.068   1.335  0.5804 -1.1230  3.9394
  136MOL    C6216532   2.196   6.904   1.192  0.7461 -0.5205  0.2425
  136MOL    C6316533   2.067   6.832   1.233  0.3908  0.4095 -0.1443
  136MOL   Cl6416534   2.014   6.758   1.083  0.0008 -0.1583  0.1948
  136MOL    H6516535   2.270   6.827   1.171  0.5608  0.2275 -3.3146
  136MOL    H6616536   2.177   6.974   1.112 -1.3942  0.3848  1.4892
  136MOL    H6716537   2.086   6.749   1.301  1.0798  0.5028 -0.2225
  136MOL    C6816538   1.953   6.923   1.273  0.7102  0.4898 -0.7894
  136MOL    C6916539   1.833   6.847   1.335 -0.1639 -0.8344 -0.0290
  136MOL   Cl7016540   1.691   6.950   1.320 -0.0435  0.0250  0.4190
  136MOL    H7116541   1.932   6.992   1.190 -1.0797  1.3427  0.3430
  136MOL    H7216542   1.994   6.983   1.354 -3.2241  1.1922  0.8224
  136MOL    H7316543   1.809   6.749   1.293 -1.2345 -0.8014  0.4876
  136MOL    C7416544   1.846   6.811   1.490 -0.2331  0.6563  0.0685
  136MOL    C7516545   1.956   6.714   1.533 -0.4911  0.4608  0.1689
  136MOL   Cl7616546   1.930   6.555   1.443  0.5549  0.4621  0.0752
  136MOL    H7716547   1.756   6.757   1.520  0.1467 -0.8812 -1.5065
  136MOL    H7816548   1.843   6.898   1.556 -1.2751  0.8032 -0.1660
  136MOL    H7916549   2.050   6.757   1.499  0.0324 -0.4229  0.4973
  136MOL    C8016550   1.959   6.688   1.687 -0.1965  0.0681  0.5224
  136MOL    C8116551   2.069   6.600   1.745  0.0793 -0.1144  0.2851
  136MOL   Cl8216552   1.992   6.539   1.893  0.0963 -0.0024 -0.1344
  136MOL    H8316553   1.861   6.657   1.723 -1.3755  2.8389 -0.2060
  136MOL    H8416554   1.971   6.787   1.732 -0.1551  0.9349 -1.3650
  136MOL    H8516555   2.088   6.512   1.684  0.7681  1.3357 -1.6287
  136MOL    C8616556   2.202   6.673   1.771  0.9244 -0.1919  0.6058
  136MOL    C8716557   2.311   6.610   1.861 -0.2618  0.2204  0.0534
  136MOL   Cl8816558   2.446   6.733   1.879  0.1040 -0.2046 -0.0862
  136MOL    H8916559   2.182   6.761   1.833  0.4036 -1.9890  3.0735
  136MOL    H9016560   2.247   6.707   1.678 -0.0604  0.1081  0.2292
  136MOL    H9116561   2.278   6.590   1.963  0.6838 -1.8365 -0.0196
  136MOL    C9216562   2.377   6.476   1.818  0.4095  0.7419  0.0740
  136MOL    C9316563   2.435   6.460   1.671 -0.5176 -0.8214  0.1738
  136MOL   Cl9416564   2.307   6.462   1.542  0.1505 -0.2233 -0.3111
  136MOL    H9516565   2.301   6.399   1.829  1.6920 -0.6447 -0.7078
  136MOL    H9616566   2.448   6.442   1.892 -0.7005 -1.6272  0.0761
  136MOL    H9716567   2.499   6.548   1.662 -2.7254  0.6580 -1.7145
  136MOL    C9816568   2.512   6.324   1.669 -0.4620  0.0344  0.8066
  136MOL    C9916569   2.662   6.336   1.628  0.3879 -0.2975 -0.4353
  136MOL  Cl10016570   2.700   6.392   1.465  0.0418 -0.1906  0.0535
  136MOL   H10116571   2.459   6.262   1.597  0.6521 -0.8775  0.7503
  136MOL   H10216572   2.501   6.267   1.761 -0.0440  2.2202  2.2525
  136MOL   H10316573   2.704   6.416   1.690  1.5829 -1.2376  0.0085
  136MOL   C10416574   2.745   6.209   1.655 -0.2678 -0.4183  0.8101
  136MOL   C10516575   2.702   6.088   1.571 -0.2829 -0.2871  0.2594
  136MOL  Cl10616576   2.568   6.001   1.656 -0.1894  0.5511  0.4647
  136MOL   H10716577   2.750   6.183   1.760 -0.7500  1.9816  1.4427
  136MOL   H10816578   2.848   6.231   1.626 -0.6357 -1.0663 -1.1099
  136MOL   H10916579   2.664   6.130   1.478 -2.2507 -1.4603  0.5103
  136MOL   C11016580   2.808   5.982   1.540 -0.7895  0.2882  0.4157
  136MOL   C11116581   2.933   6.027   1.455  0.1321  0.3968  0.3108
  136MOL  Cl11216582   2.883   6.057   1.290  0.0788  0.4247 -0.1362
  136MOL   H11316583   2.761   5.896   1.492 -0.6981 -0.8892  2.3865
  136MOL   H11416584   2.837   5.944   1.638  0.6194  0.9906  0.2696
  136MOL   H11516585   2.984   6.119   1.485  2.2255 -0.2725 -1.1737
  136MOL   C11616586   3.039   5.913   1.443  0.1842  0.1433 -0.1228
  136MOL   C11716587   3.163   5.952   1.355  0.3917  0.2644 -0.1780
  136MOL  Cl11816588   3.271   5.808   1.323  0.1894 -0.1039  0.3655
  136MOL   H11916589   3.000   5.818   1.407  0.4620  0.5488 -1.5344
  136MOL   H12016590   3.082   5.906   1.543 -1.0031 -1.7004  0.2809
  136MOL   H12116591   3.128   5.991   1.259 -1.4659 -0.6197  0.1209
  136MOL   H12216592   3.222   6.036   1.393  3.0077 -0.2576 -2.8478
  137MOL     C116593   5.268   0.784   0.510 -0.2604  0.7008  1.0713
  137MOL     C216594   5.207   0.722   0.630 -0.1873 -0.1496  0.3476
  137MOL    Cl316595   5.272   0.559   0.643  0.2419  0.2570 -0.5964
  137MOL     H416596   5.221   0.879   0.485 -0.8290  0.0279 -0.4935
  137MOL     H516597   5.373   0.810   0.515 -0.0390 -0.1190  0.7762
  137MOL     H616598   5.245   0.767   0.722 -2.7016  0.4192  1.1633
  137MOL     H716599   5.258   0.722   0.421  0.7321 -1.2056  2.2614
  137MOL     C816600   5.051   0.726   0.645  0.1604  0.6213 -0.5305
  137MOL     C916601   4.990   0.869   0.652 -0.0915 -0.2358  0.3583
  137MOL   Cl1016602   5.075   0.959   0.776  0.4113  0.0050 -0.3548
  137MOL    H1116603   5.029   0.668   0.735 -2.1077 -0.7546 -1.9513
  137MOL    H1216604   4.991   0.683   0.565  0.6392 -0.2877 -0.4109
  137MOL    H1316605   5.016   0.919   0.558  1.7257  0.1354  1.0468
  137MOL    C1416606   4.839   0.876   0.664  0.1741 -0.3223 -0.0260
  137MOL    C1516607   4.779   1.015   0.663 -0.3406  0.4696 -0.0504
  137MOL   Cl1616608   4.616   1.006   0.727 -0.2777  0.3072  0.3302
  137MOL    H1716609   4.804   0.828   0.755 -2.4332  0.7853 -0.3897
  137MOL    H1816610   4.792   0.813   0.588 -1.0341 -0.6053  0.9448
  137MOL    H1916611   4.837   1.081   0.726  0.0418 -0.7442  0.8993
  137MOL    C2016612   4.774   1.073   0.523 -0.9937  0.5135  0.1503
  137MOL    C2116613   4.741   1.225   0.527  0.7123 -0.0936 -0.3535
  137MOL   Cl2216614   4.660   1.261   0.373 -0.2334  0.1240  0.1257
  137MOL    H2316615   4.718   1.007   0.458 -0.6505  0.7753 -0.4095
  137MOL    H2416616   4.875   1.066   0.484 -1.1481 -0.0478 -0.1527
  137MOL    H2516617   4.672   1.258   0.605 -0.5190 -1.5467 -0.8026
  137MOL    C2616618   4.872   1.316   0.524  0.4601  0.0752 -0.5937
  137MOL    C2716619   4.963   1.343   0.650 -0.1361  0.3576  0.0353
  137MOL   Cl2816620   4.873   1.401   0.797 -0.5456 -0.0405  0.0022
  137MOL    H2916621   4.833   1.415   0.498  0.3986 -0.2766 -1.8276
  137MOL    H3016622   4.937   1.282   0.444 -1.1461  0.4578 -2.0930
  137MOL    H3116623   5.018   1.253   0.678  0.0174 -0.4053 -2.6503
  137MOL    C3216624   5.073   1.449   0.617 -0.6870  0.3458 -0.4396
  137MOL    C3316625   5.022   1.586   0.568 -0.1298  0.4723 -0.0314
  137MOL   Cl3416626   5.009   1.582   0.386 -0.3258  0.4411 -0.1815
  137MOL    H3516627   5.128   1.410   0.531 -0.3704 -1.5909  0.6319
  137MOL    H3616628   5.137   1.456   0.705  0.4223 -1.7298 -1.0448
  137MOL    H3716629   4.933   1.617   0.623 -0.4592  2.5135 -1.6607
  137MOL    C3816630   5.120   1.697   0.606  0.0964  0.1318 -0.8613
  137MOL    C3916631   5.139   1.726   0.756  0.8406  0.9025  0.3989
  137MOL   Cl4016632   5.020   1.843   0.813  0.1544 -0.4308 -0.4583
  137MOL    H4116633   5.088   1.784   0.548 -1.8981  1.5648  2.2602
  137MOL    H4216634   5.220   1.667   0.575  1.1652  1.6150  0.9992
  137MOL    H4316635   5.121   1.632   0.807  0.1278  0.1771 -1.1491
  137MOL    C4416636   5.284   1.786   0.803 -0.0357 -0.5435  0.1882
  137MOL    C4516637   5.401   1.678   0.803  0.0621  0.0627  0.0999
  137MOL   Cl4616638   5.348   1.534   0.902  0.5589 -0.3284 -0.6369
  137MOL    H4716639   5.271   1.817   0.906  0.0389  1.9073 -0.5196
  137MOL    H4816640   5.313   1.872   0.744 -0.2696 -0.0495  0.7877
  137MOL    H4916641   5.426   1.641   0.704  0.1658  0.9659 -0.2171
  137MOL    C5016642   5.521   1.745   0.870 -0.5514  0.5949  0.0709
  137MOL    C5116643   5.654   1.690   0.824  0.0782 -0.2293 -0.2980
  137MOL   Cl5216644   5.657   1.522   0.897  0.1315 -0.1875 -0.0126
  137MOL    H5316645   5.515   1.738   0.979 -0.0884  2.2045  0.2142
  137MOL    H5416646   5.524   1.851   0.843 -0.4409  0.3810 -0.7781
  137MOL    H5516647   5.646   1.662   0.719  1.3603  0.9945 -0.7316
  137MOL    C5616648   5.780   1.779   0.836  0.0982 -0.1655  0.1558
  137MOL    C5716649   5.896   1.724   0.754  0.3362 -0.5104 -0.3189
  137MOL   Cl5816650   6.037   1.827   0.778 -0.1370 -0.3801  0.5791
  137MOL    H5916651   5.799   1.793   0.942 -1.1803  1.8965  0.1615
  137MOL    H6016652   5.760   1.876   0.790 -0.3432 -0.2353  0.2006
  137MOL    H6116653   5.926   1.627   0.795  0.3211 -1.2784 -2.0667
  137MOL    C6216654   5.864   1.713   0.599  0.4343 -0.0398 -1.1326
  137MOL    C6316655   5.992   1.688   0.511 -0.3176  0.2622  0.0179
  137MOL   Cl6416656   5.940   1.691   0.339 -0.0312 -0.1753 -0.1502
  137MOL    H6516657   5.828   1.808   0.560 -1.8645  0.0047  1.0225
  137MOL    H6616658   5.785   1.641   0.576 -1.1393  1.1334  0.5038
  137MOL    H6716659   6.071   1.763   0.515  0.3382 -0.0529 -4.1678
  137MOL    C6816660   6.056   1.551   0.532 -0.5909  0.0295  0.0308
  137MOL    C6916661   5.966   1.433   0.516 -0.0435 -0.0347 -0.4721
  137MOL   Cl7016662   5.926   1.364   0.674  0.0360  0.3227  0.2908
  137MOL    H7116663   6.105   1.545   0.629  0.1489  0.3096 -0.3241
  137MOL    H7216664   6.149   1.539   0.477 -0.5329  0.5856  0.0109
  137MOL    H7316665   5.870   1.467   0.475 -0.3377  0.1067  0.3281
  137MOL    C7416666   6.013   1.310   0.436  0.5850  0.7223  0.0735
  137MOL    C7516667   6.029   1.325   0.283 -0.2714 -0.0022  0.2273
  137MOL   Cl7616668   5.868   1.358   0.210 -0.1238  0.2830 -0.3055
  137MOL    H7716669   5.944   1.226   0.450  0.6082  0.9349  1.5856
  137MOL    H7816670   6.108   1.271   0.473  0.6298  0.6398 -0.1264
  137MOL    H7916671   6.085   1.413   0.252 -1.3437  1.2026  1.5872
  137MOL    C8016672   6.085   1.198   0.216  0.3386  0.1208 -0.2427
  137MOL    C8116673   6.203   1.223   0.122 -0.3247 -0.4061 -0.1356
  137MOL   Cl8216674   6.226   1.087   0.008 -0.0912 -0.3321  0.2848
  137MOL    H8316675   6.002   1.147   0.168  0.2914 -1.3404  1.3354
  137MOL    H8416676   6.123   1.131   0.294  0.2854 -0.2609 -0.5437
  137MOL    H8516677   6.179   1.315   0.069 -1.1705 -0.2750  0.4710
  137MOL    C8616678   6.333   1.235   0.202  0.6996 -0.6052  0.1560
  137MOL    C8716679   6.438   1.327   0.148 -0.7734  0.0804  0.1952
  137MOL   Cl8816680   6.373   1.495   0.153 -0.3028  0.1340 -0.0197
  137MOL    H8916681   6.373   1.134   0.204 -0.5864 -1.1450 -1.2286
  137MOL    H9016682   6.323   1.257   0.309  0.1007 -1.4002  0.2647
  137MOL    H9116683   6.511   1.331   0.228  0.3317  1.7264 -0.8458
  137MOL    C9216684   6.501   1.282   0.010  0.0044  0.4619  0.7887
  137MOL    C9316685   6.641   1.333   8.503  0.1024 -0.2582  0.3308
  137MOL   Cl9416686   6.752   1.260   0.099 -0.1934 -0.3483  0.0491
  137MOL    H9516687   6.438   1.323   8.456  0.6289 -1.5805 -0.8129
  137MOL    H9616688   6.505   1.173   0.016 -0.5483  0.5023  2.0377
  137MOL    H9716689   6.671   1.281   8.411 -0.7207 -2.2585  1.1527
  137MOL    C9816690   6.653   1.486   8.475 -0.4685 -0.0183 -0.3517
  137MOL    C9916691   6.791   1.529   8.434  0.4752 -0.0116  0.1719
  137MOL  Cl10016692   6.800   1.704   8.458 -0.1272 -0.3298  0.0908
  137MOL   H10116693   6.627   1.540   0.041 -1.7027 -0.1691 -0.6011
  137MOL   H10216694   6.580   1.500   8.395 -1.2005 -0.3465  0.2457
  137MOL   H10316695   6.855   1.482   8.509  0.8153 -0.9483 -0.6788
  137MOL   C10416696   6.837   1.487   8.290 -0.5717 -0.2857 -0.2442
  137MOL   C10516697   6.983   1.494   8.260  0.0420  0.1729  0.0668
  137MOL  Cl10616698   7.052   1.655   8.231 -0.3386 -0.2839  0.0485
  137MOL   H10716699   6.782   1.547   8.217 -0.8636  0.5496  0.6562
  137MOL   H10816700   6.808   1.383   8.272 -0.0935 -0.4587 -0.0281
  137MOL   H10916701   7.046   1.450   8.338  2.0919  2.0360 -0.5007
  137MOL   C11016702   7.019   1.424   8.128 -0.2761  0.2828 -0.3092
  137MOL   C11116703   7.173   1.405   8.114 -0.6355  0.6587  0.4933
  137MOL  Cl11216704   7.255   1.507   7.985  0.3485  0.1460  0.1304
  137MOL   H11316705   6.977   1.479   8.044 -0.7046  2.2523  1.1506
  137MOL   H11416706   6.974   1.325   8.126  1.8047 -0.7155  0.3814
  137MOL   H11516707   7.221   1.442   8.205  2.4542 -0.4056 -0.6196
  137MOL   C11616708   7.209   1.258   8.094  0.4881 -0.2815  0.0507
  137MOL   C11716709   7.355   1.240   8.085 -0.0469 -0.0660 -0.2395
  137MOL  Cl11816710   7.396   1.068   8.070 -0.1131  0.3902 -0.0683
  137MOL   H11916711   7.161   1.228   8.001  0.8479 -0.9692  0.0845
  137MOL   H12016712   7.169   1.185   8.165 -2.8591  0.6415 -0.7844
  137MOL   H12116713   7.397   1.293   8.000 -1.2132  0.3084 -0.5827
  137MOL   H12216714   7.405   1.279   8.175 -1.8210 -0.0908  0.7818
  138MOL     C116715   4.266   0.323   6.316 -0.7429 -0.3328 -0.0513
  138MOL     C216716   4.371   0.292   6.194  0.1602 -0.0846 -0.0079
  138MOL    Cl316717   4.331   0.137   6.117 -0.3055 -0.2650 -0.1319
  138MOL     H416718   4.288   0.421   6.358  2.2194 -0.5126 -1.0839
  138MOL     H516719   4.163   0.324   6.278 -1.3914  1.1601  1.6783
  138MOL     H616720   4.356   0.373   6.122 -0.5386  0.0441  0.2729
  138MOL     H716721   4.266   0.245   6.392 -2.0590 -0.2561  0.0356
  138MOL     C816722   4.512   0.284   6.246  0.4983  0.1296 -0.1148
  138MOL     C916723   4.579   0.412   6.280  0.0958 -0.3377  0.3880
  138MOL   Cl1016724   4.582   0.522   6.142  0.1766  0.2777  0.3557
  138MOL    H1116725   4.568   0.239   6.164  2.4301  0.9457  0.7173
  138MOL    H1216726   4.515   0.219   6.334  0.1576 -1.2509 -1.1063
  138MOL    H1316727   4.509   0.457   6.351  0.0066  0.1910 -0.0332
  138MOL    C1416728   4.720   0.392   6.346 -0.5023 -0.6175 -0.3516
  138MOL    C1516729   4.807   0.527   6.346 -0.5224  0.1944  0.4389
  138MOL   Cl1616730   4.965   0.477   6.410 -0.4833  0.1132 -0.3898
  138MOL    H1716731   4.783   0.319   6.295  0.0016  0.3095 -1.0691
  138MOL    H1816732   4.715   0.346   6.445 -2.2376 -0.0947 -0.1993
  138MOL    H1916733   4.815   0.563   6.243 -0.5433  1.8159  0.9803
  138MOL    C2016734   4.743   0.627   6.438  0.0296 -0.0065 -0.8519
  138MOL    C2116735   4.819   0.756   6.467  0.2109 -0.5299 -0.0143
  138MOL   Cl2216736   4.750   0.821   6.625 -0.2371  0.3289  0.0149
  138MOL    H2316737   4.712   0.585   6.533 -1.3591  0.6088 -1.0253
  138MOL    H2416738   4.655   0.667   6.389  1.2453  0.2435 -2.9008
  138MOL    H2516739   4.921   0.730   6.496 -0.5760 -1.2010  2.3173
  138MOL    C2616740   4.818   0.860   6.355  0.2222  0.0966  0.5478
  138MOL    C2716741   4.886   0.998   6.384 -0.3701 -0.0167  0.0559
  138MOL   Cl2816742   4.870   1.095   6.238 -0.0317 -0.1884 -0.4322
  138MOL    H2916743   4.714   0.881   6.330  0.5739  0.5241 -0.6187
  138MOL    H3016744   4.851   0.819   6.260 -2.3041  1.4077 -0.9624
  138MOL    H3116745   4.833   1.050   6.464  2.1209  0.2397  1.5831
  138MOL    C3216746   5.036   0.987   6.429 -0.0851  0.2200 -0.3748
  138MOL    C3316747   5.143   0.957   6.329  0.3448  0.4659  0.0090
  138MOL   Cl3416748   5.154   0.782   6.301 -0.3160 -0.1987  0.4093
  138MOL    H3516749   5.049   0.920   6.514 -0.4594  0.6213 -0.0012
  138MOL    H3616750   5.048   1.091   6.461  1.3744  0.6568 -2.2326
  138MOL    H3716751   5.119   1.005   6.235 -3.9705  0.7111  1.1408
  138MOL    C3816752   5.297   0.996   6.373 -0.4582  1.0286 -0.4774
  138MOL    C3916753   5.326   1.142   6.406 -0.3863  0.2744 -0.1897
  138MOL   Cl4016754   5.246   1.238   6.281 -0.2871  0.2091 -0.2738
  138MOL    H4116755   5.368   0.959   6.299  1.4742 -2.6111  2.9602
  138MOL    H4216756   5.310   0.942   6.467  0.8665  2.0856 -0.0415
  138MOL    H4316757   5.291   1.183   6.500 -1.2794  0.8632 -0.7804
  138MOL    C4416758   5.474   1.163   6.406  0.1079  0.2677 -0.4331
  138MOL    C4516759   5.534   1.094   6.531  0.2483  0.6223  0.4335
  138MOL   Cl4616760   5.504   1.198   6.677  0.0989 -0.0524 -0.2221
  138MOL    H4716761   5.504   1.266   6.425 -0.6600  0.6513 -1.2914
  138MOL    H4816762   5.525   1.129   6.315  1.0350  1.3026 -0.3095
  138MOL    H4916763   5.498   0.992   6.549  0.0444 -0.0488 -3.3454
  138MOL    C5016764   5.680   1.086   6.520 -0.4607 -0.2235 -0.6983
  138MOL    C5116765   5.743   1.000   6.398  0.0100  0.7798 -0.7989
  138MOL   Cl5216766   5.639   0.857   6.353  0.3069  0.0699 -0.2638
  138MOL    H5316767   5.722   1.053   6.615 -0.6534  0.7022 -0.2891
  138MOL    H5416768   5.731   1.182   6.512 -0.5828  0.0120  1.1829
  138MOL    H5516769   5.752   1.061   6.308 -0.6626  1.6794 -0.2642
  138MOL    C5616770   5.887   0.946   6.433 -0.5433 -0.6811  0.0326
  138MOL    C5716771   5.999   1.053   6.470  0.7788 -0.1691  0.3814
  138MOL   Cl5816772   6.022   1.148   6.325  0.1590 -0.0812 -0.4671
  138MOL    H5916773   5.931   0.895   6.347  2.2047  1.3710  0.1362
  138MOL    H6016774   5.880   0.878   6.518 -1.4125 -0.4549  0.1421
  138MOL    H6116775   5.939   1.107   6.543 -2.9565  0.2849 -2.8824
  138MOL    C6216776   6.131   1.015   6.542  0.4910  0.9118  0.7084
  138MOL    C6316777   6.115   0.913   6.650 -0.3934 -0.0593  1.0084
  138MOL   Cl6416778   6.000   0.978   6.771 -0.5079 -0.2552  0.0754
  138MOL    H6516779   6.188   1.094   6.590  1.2940  0.3527  0.6808
  138MOL    H6616780   6.197   0.969   6.468  0.7305  2.6278 -0.1821
  138MOL    H6716781   6.075   0.823   6.604  0.8891  0.8466 -2.0453
  138MOL    C6816782   6.242   0.876   6.725 -0.2703 -0.8970  0.7304
  138MOL    C6916783   6.367   0.830   6.648  0.0065 -0.2528 -0.8519
  138MOL   Cl7016784   6.309   0.680   6.561 -0.0750  0.0613 -0.2662
  138MOL    H7116785   6.223   0.807   6.808  0.2318  0.9116  2.3901
  138MOL    H7216786   6.276   0.965   6.778 -2.8004 -0.1350  1.1211
  138MOL    H7316787   6.380   0.891   6.558  3.4100 -0.3793 -0.5197
  138MOL    C7416788   6.495   0.805   6.730 -0.1143  0.3604 -0.2224
  138MOL    C7516789   6.619   0.773   6.645  0.0848  0.6332  0.8652
  138MOL   Cl7616790   6.624   0.593   6.631  0.0661  0.1286 -0.3179
  138MOL    H7716791   6.489   0.736   6.814 -0.0948  0.1052 -0.4298
  138MOL    H7816792   6.513   0.896   6.787  2.8391 -0.1872 -0.2074
  138MOL    H7916793   6.610   0.805   6.541  1.8145  1.1829  0.8732
  138MOL    C8016794   6.751   0.820   6.697 -0.4230 -1.2594 -0.0164
  138MOL    C8116795   6.872   0.764   6.612  0.8162 -0.1786 -0.5860
  138MOL   Cl8216796   7.008   0.824   6.700  0.1648  0.2287  0.0677
  138MOL    H8316797   6.762   0.797   6.803 -1.4563 -0.4670  0.2614
  138MOL    H8416798   6.768   0.927   6.706 -1.0930 -1.3382  2.6311
  138MOL    H8516799   6.877   0.655   6.618  1.3178 -0.0395  2.0558
  138MOL    C8616800   6.862   0.815   6.460 -0.0862 -0.6926 -0.0020
  138MOL    C8716801   6.825   0.700   6.367 -0.5388 -0.0067  0.4354
  138MOL   Cl8816802   6.933   0.558   6.375 -0.2534  0.0615 -0.4146
  138MOL    H8916803   6.963   0.844   6.434  0.5340 -2.0690  0.7859
  138MOL    H9016804   6.800   0.905   6.457  2.8571  1.3894 -0.5968
  138MOL    H9116805   6.737   0.645   6.401  0.7266 -2.3214  0.0814
  138MOL    C9216806   6.825   0.743   6.213 -0.5893  0.3781  0.4192
  138MOL    C9316807   6.724   0.850   6.176 -0.4920 -1.0947 -0.1986
  138MOL   Cl9416808   6.575   0.815   6.279 -0.2712 -0.0055  0.2338
  138MOL    H9516809   6.801   0.650   6.162  0.6303 -0.4689  1.3424
  138MOL    H9616810   6.924   0.768   6.174 -0.4550  0.2562  0.6759
  138MOL    H9716811   6.756   0.952   6.195 -0.0627 -1.1792 -0.4733
  138MOL    C9816812   6.682   0.851   6.025  0.7037  0.5376 -0.4381
  138MOL    C9916813   6.792   0.889   5.920  0.2237  0.2968 -0.0630
  138MOL  Cl10016814   6.787   1.067   5.902  0.2911  0.1185  0.0770
  138MOL   H10116815   6.602   0.922   6.006 -0.8070 -1.1273 -0.4099
  138MOL   H10216816   6.641   0.753   5.998  1.3969  0.0205  0.3334
  138MOL   H10316817   6.892   0.865   5.956  0.1727 -1.6589 -1.1617
  138MOL   C10416818   6.760   0.821   5.785  0.1175 -0.6336  1.0760
  138MOL   C10516819   6.868   0.837   5.680  0.2752 -0.0817 -0.3993
  138MOL  Cl10616820   6.819   0.947   5.546  0.2594  0.1312  0.0588
  138MOL   H10716821   6.662   0.845   5.742  0.8425 -0.9642 -0.8112
  138MOL   H10816822   6.745   0.716   5.808 -2.6960 -0.6368 -0.4364
  138MOL   H10916823   6.956   0.887   5.721 -1.5472  2.2158  0.7986
  138MOL   C11016824   6.927   0.699   5.637  0.1018  0.4333 -0.3680
  138MOL   C11116825   7.049   0.715   5.550  0.0552 -0.2015 -0.2037
  138MOL  Cl11216826   7.081   0.565   5.466  0.0609 -0.2866 -0.2940
  138MOL   H11316827   6.849   0.640   5.589  0.7971 -0.8078  0.0036
  138MOL   H11416828   6.943   0.636   5.724 -0.1834  0.2234 -0.4640
  138MOL   H11516829   7.019   0.786   5.473  1.5485  0.5962 -0.0591
  138MOL   C11616830   7.168   0.755   5.624 -0.0763 -0.4321  0.2544
  138MOL   C11716831   7.295   0.767   5.536 -0.2418 -0.1120  0.1719
  138MOL  Cl11816832   7.282   0.901   5.418 -0.2147 -0.2127 -0.5573
  138MOL   H11916833   7.190   0.670   5.688  0.3713 -1.7376 -1.5940
  138MOL   H12016834   7.150   0.849   5.677  2.1174  0.3385 -0.2831
  138MOL   H12116835   7.384   0.784   5.598 -0.6118  0.5491  0.5237
  138MOL   H12216836   7.315   0.674   5.482  0.6426 -0.2600  0.7329
  139MOL     C116837   3.236   5.537   4.766 -0.3481  0.0272  0.2931
  139MOL     C216838   3.246   5.684   4.814  0.4775  0.5787  0.3274
  139MOL    Cl316839   3.092   5.737   4.897 -0.2154 -0.0159  0.2342
  139MOL     H416840   3.236   5.466   4.848  1.6895 -0.6275 -0.2184
  139MOL     H516841   3.138   5.530   4.719 -0.0632  0.0191 -0.3123
  139MOL     H616842   3.321   5.696   4.892 -0.1709  1.3046  0.8374
  139MOL     H716843   3.313   5.494   4.701  0.4734  1.8144  0.0604
  139MOL     C816844   3.280   5.789   4.702  0.1274 -0.5127 -0.2383
  139MOL     C916845   3.408   5.760   4.619  0.6896  0.1773  0.3362
  139MOL   Cl1016846   3.534   5.703   4.729 -0.1332  0.0484  0.0831
  139MOL    H1116847   3.287   5.891   4.738 -1.9896  0.0756 -1.3993
  139MOL    H1216848   3.201   5.772   4.629  0.8516  0.5754 -1.2867
  139MOL    H1316849   3.391   5.675   4.552 -2.5870  1.1506 -0.1365
  139MOL    C1416850   3.465   5.886   4.542 -0.4116  0.9402  0.7392
  139MOL    C1516851   3.565   5.863   4.425 -0.2395  0.8114  0.7989
  139MOL   Cl1616852   3.480   5.780   4.293 -0.2110  0.3120 -0.2562
  139MOL    H1716853   3.500   5.952   4.621  1.3869  1.8553 -0.7751
  139MOL    H1816854   3.372   5.927   4.503 -0.4871  0.6939  0.6617
  139MOL    H1916855   3.590   5.960   4.380  1.6676  0.3900  0.8876
  139MOL    C2016856   3.699   5.786   4.457  0.0829  0.3520  0.0924
  139MOL    C2116857   3.795   5.852   4.558  0.2467  0.5966 -0.5447
  139MOL   Cl2216858   3.848   6.006   4.482  0.0447  0.5470  0.0836
  139MOL    H2316859   3.753   5.778   4.362 -2.2419  0.2433 -1.2760
  139MOL    H2416860   3.675   5.682   4.478  0.8743  0.5603  2.0390
  139MOL    H2516861   3.751   5.878   4.654 -0.1480 -1.9556 -0.0088
  139MOL    C2616862   3.908   5.755   4.595  0.1812  0.0786  0.4803
  139MOL    C2716863   4.009   5.809   4.693  0.4706 -0.2673  0.4773
  139MOL   Cl2816864   4.130   5.901   4.610 -0.0036 -0.1545 -0.0381
  139MOL    H2916865   3.963   5.721   4.507 -1.4751 -0.1838 -0.4823
  139MOL    H3016866   3.858   5.686   4.663  0.4281 -1.8937 -1.2755
  139MOL    H3116867   3.953   5.882   4.750  0.7554  1.2531 -1.1719
  139MOL    C3216868   4.085   5.705   4.785  0.7292  0.1284 -0.1673
  139MOL    C3316869   4.003   5.602   4.863 -0.0895  0.2051 -0.3282
  139MOL   Cl3416870   3.851   5.689   4.930  0.2378  0.1969  0.0962
  139MOL    H3516871   4.142   5.765   4.856 -1.4078  1.2374  0.6579
  139MOL    H3616872   4.156   5.644   4.730  1.3544  2.1744 -1.6943
  139MOL    H3716873   3.958   5.531   4.794  0.7933  0.9560 -1.6931
  139MOL    C3816874   4.081   5.533   4.980 -0.2004 -0.9070 -0.3420
  139MOL    C3916875   4.037   5.388   5.014  0.1899  0.5329  0.8398
  139MOL   Cl4016876   4.076   5.259   4.896  0.2709  0.1292  0.5532
  139MOL    H4116877   4.071   5.595   5.069 -0.7037 -0.5384 -0.6503
  139MOL    H4216878   4.189   5.527   4.966 -0.4571 -0.9895 -2.4053
  139MOL    H4316879   4.101   5.362   5.099  0.1628  2.0235  1.3360
  139MOL    C4416880   3.893   5.367   5.053  0.1507 -0.4023 -0.7549
  139MOL    C4516881   3.839   5.447   5.177 -0.2764  0.6017  0.1812
  139MOL   Cl4616882   3.939   5.388   5.314  0.4159  0.0197  0.2155
  139MOL    H4716883   3.876   5.263   5.083 -0.9341 -0.0875 -0.2514
  139MOL    H4816884   3.830   5.400   4.971 -2.0316 -0.2381  0.9474
  139MOL    H4916885   3.867   5.552   5.178  0.4135  0.4275  1.8173
  139MOL    C5016886   3.689   5.431   5.197 -0.1385  0.1884  0.4439
  139MOL    C5116887   3.639   5.507   5.320  0.3389 -0.5365  0.1256
  139MOL   Cl5216888   3.468   5.471   5.351  0.1402  0.1308  0.1952
  139MOL    H5316889   3.672   5.324   5.208 -0.3401  0.3502  1.9005
  139MOL    H5416890   3.625   5.459   5.114 -1.7400  0.4404  1.7338
  139MOL    H5516891   3.699   5.467   5.402 -0.0683  0.0442  0.7090
  139MOL    C5616892   3.651   5.658   5.304 -0.0418  0.1053 -0.0052
  139MOL    C5716893   3.625   5.746   5.430  0.1952  0.4018 -0.6299
  139MOL   Cl5816894   3.624   5.916   5.360 -0.2390 -0.3172  0.0706
  139MOL    H5916895   3.595   5.696   5.219 -0.7312 -2.0710 -0.5665
  139MOL    H6016896   3.747   5.694   5.269 -0.7501  1.6683 -0.3610
  139MOL    H6116897   3.522   5.730   5.463 -0.3099  1.9837 -1.4094
  139MOL    C6216898   3.718   5.730   5.556 -0.1793  0.3646  0.2178
  139MOL    C6316899   3.676   5.806   5.686 -0.0167 -0.1325  0.3610
  139MOL   Cl6416900   3.827   5.883   5.740  0.2299 -0.0874  0.3691
  139MOL    H6516901   3.824   5.736   5.533 -0.4437  1.2944 -0.7467
  139MOL    H6616902   3.714   5.626   5.589  0.9928  1.0270  2.6067
  139MOL    H6716903   3.616   5.896   5.677  0.9598  0.6349  1.4012
  139MOL    C6816904   3.606   5.720   5.797  0.2283 -0.0430  0.9091
  139MOL    C6916905   3.472   5.656   5.763 -0.2342 -0.0303 -0.7807
  139MOL   Cl7016906   3.351   5.788   5.771  0.3385  0.1715  0.0174
  139MOL    H7116907   3.617   5.761   5.897 -0.4835  1.1137  0.5229
  139MOL    H7216908   3.684   5.644   5.803  0.5194 -0.0550 -2.1468
  139MOL    H7316909   3.469   5.620   5.660 -1.1447 -1.4049 -0.2890
  139MOL    C7416910   3.452   5.552   5.875 -0.1642  0.7569 -0.1830
  139MOL    C7516911   3.337   5.454   5.842 -0.1737 -0.2656 -0.3496
  139MOL   Cl7616912   3.300   5.337   5.978 -0.4851  0.0512  0.1194
  139MOL    H7716913   3.426   5.597   5.971 -2.7729  0.9835 -0.9499
  139MOL    H7816914   3.543   5.505   5.912 -0.2998  3.1753  3.4460
  139MOL    H7916915   3.241   5.506   5.841  0.7030  1.3771  0.3850
  139MOL    C8016916   3.348   5.378   5.709 -0.1688  0.3188 -0.6794
  139MOL    C8116917   3.470   5.286   5.688  0.8403 -0.4040 -0.4572
  139MOL   Cl8216918   3.608   5.384   5.661 -0.1203 -0.4244  0.2370
  139MOL    H8316919   3.347   5.446   5.623  1.7745  0.2052 -0.8035
  139MOL    H8416920   3.265   5.309   5.691  0.6123 -0.5845 -0.8353
  139MOL    H8516921   3.492   5.229   5.778  0.9797 -0.4584 -0.5249
  139MOL    C8616922   3.458   5.190   5.566 -0.3857 -0.2292 -0.2419
  139MOL    C8716923   3.326   5.105   5.562 -0.1140  0.0843  1.0340
  139MOL   Cl8816924   3.298   5.033   5.717 -0.3933 -0.2612  0.0360
  139MOL    H8916925   3.535   5.113   5.561 -1.0716 -0.9645  0.4449
  139MOL    H9016926   3.455   5.247   5.473 -1.4739  0.7535  0.3735
  139MOL    H9116927   3.236   5.159   5.532 -0.2012 -0.3535  0.4971
  139MOL    C9216928   3.339   4.983   5.474 -0.3939  0.1671 -0.0979
  139MOL    C9316929   3.316   5.016   5.323 -0.0686 -0.4117 -0.6193
  139MOL   Cl9416930   3.149   5.078   5.302 -0.2341 -0.1533  0.2497
  139MOL    H9516931   3.258   4.914   5.495  0.0912 -0.4254 -0.1880
  139MOL    H9616932   3.433   4.936   5.504 -0.4266 -0.9597 -1.7175
  139MOL    H9716933   3.377   5.096   5.282 -1.5273  1.1867  0.2468
  139MOL    C9816934   3.342   4.897   5.238 -0.0990  0.2955  0.8135
  139MOL    C9916935   3.285   4.898   5.092  0.4261  0.1010  0.4118
  139MOL  Cl10016936   3.300   4.729   5.038  0.0783 -0.0607 -0.2922
  139MOL   H10116937   3.297   4.815   5.293 -0.6557 -1.4872 -2.1805
  139MOL   H10216938   3.447   4.868   5.234  0.4049  2.1702 -0.1726
  139MOL   H10316939   3.178   4.917   5.105  0.3163 -0.3946  0.2679
  139MOL   C10416940   3.350   5.003   4.998 -0.3276 -0.1438 -0.0275
  139MOL   C10516941   3.503   5.006   4.992  0.1115  0.6634 -0.6387
  139MOL  Cl10616942   3.580   5.094   5.120  0.1302  0.0913  0.5291
  139MOL   H10716943   3.314   5.104   5.015 -0.1700  0.0213 -0.6298
  139MOL   H10816944   3.315   4.985   4.896 -2.1075 -0.1734  0.5858
  139MOL   H10916945   3.531   4.903   5.011  2.1459  0.6369 -3.4497
  139MOL   C11016946   3.569   5.047   4.863 -1.3091  0.0713  0.0910
  139MOL   C11116947   3.568   5.198   4.826 -0.2651 -0.6234  0.1055
  139MOL  Cl11216948   3.407   5.239   4.759  0.2519  0.4564  0.3838
  139MOL   H11316949   3.534   4.982   4.783 -2.4523 -1.3478  1.7238
  139MOL   H11416950   3.673   5.021   4.881 -1.5614 -1.6754 -0.9477
  139MOL   H11516951   3.578   5.253   4.919 -1.4895 -3.1809  1.8176
  139MOL   C11616952   3.671   5.234   4.717  0.6053  0.1234 -0.2278
  139MOL   C11716953   3.678   5.388   4.696  0.3616  0.1869 -0.3638
  139MOL  Cl11816954   3.811   5.416   4.580  0.3567 -0.0461 -0.1097
  139MOL   H11916955   3.659   5.178   4.625  0.9103 -0.7165  0.2416
  139MOL   H12016956   3.766   5.205   4.764 -0.1754  1.0500  1.9930
  139MOL   H12116957   3.583   5.430   4.662  0.7833  3.8952  2.6998
  139MOL   H12216958   3.707   5.437   4.789  0.3642  0.3552 -0.4516
  140MOL     C116959   4.560   6.918   5.466 -0.0982  0.2840 -0.2556
  140MOL     C216960   4.453   6.923   5.356  0.1554 -0.2394 -0.1130
  140MOL    Cl316961   4.337   6.792   5.391  0.1157  0.0532 -0.1168
  140MOL     H416962   4.530   6.928   5.570 -0.9619  1.7770 -0.6338
  140MOL     H516963   4.609   6.821   5.454  1.2370  0.7881  0.9864
  140MOL     H616964   4.404   7.019   5.370 -1.2951 -1.2173  1.6698
  140MOL     H716965   4.631   7.000   5.456 -2.4777  2.3343 -0.7269
  140MOL     C816966   4.497   6.902   5.210  1.0183  1.3128  0.3944
  140MOL     C916967   4.567   7.023   5.149  0.2544  0.7145  0.3066
  140MOL   Cl1016968   4.446   7.149   5.125  0.3803 -0.3718  0.1365
  140MOL    H1116969   4.411   6.880   5.147  1.6862 -1.6796  0.4820
  140MOL    H1216970   4.557   6.811   5.211 -1.3285 -0.2845  0.4250
  140MOL    H1316971   4.629   7.069   5.226 -2.0924  0.9388  2.0965
  140MOL    C1416972   4.643   6.999   5.019 -0.5302 -0.0355 -0.0779
  140MOL    C1516973   4.766   6.910   5.033  0.3373 -0.0506  0.1950
  140MOL   Cl1616974   4.887   6.972   5.146  0.3005 -0.4673  0.4044
  140MOL    H1716975   4.688   7.091   4.982  2.5796 -1.5171 -0.1662
  140MOL    H1816976   4.581   6.960   4.939  0.3356  1.2167 -1.3718
  140MOL    H1916977   4.733   6.812   5.067  1.2119 -1.1592 -2.0535
  140MOL    C2016978   4.831   6.876   4.892 -0.6797  0.6734  0.5944
  140MOL    C2116979   4.899   6.740   4.880 -0.0594 -0.5733  0.5654
  140MOL   Cl2216980   4.981   6.743   4.721 -0.3498  0.1143 -0.4358
  140MOL    H2316981   4.898   6.955   4.856  1.0234 -0.4071  1.3518
  140MOL    H2416982   4.757   6.871   4.812 -0.4983 -1.8142  0.5674
  140MOL    H2516983   4.988   6.733   4.943 -1.4713 -0.1305  2.6667
  140MOL    C2616984   4.803   6.616   4.884 -0.1630  0.5495  0.3599
  140MOL    C2716985   4.874   6.486   4.848  0.3563  0.1117 -1.0582
  140MOL   Cl2816986   4.750   6.352   4.864 -0.2452 -0.1076 -0.0870
  140MOL    H2916987   4.725   6.619   4.808  0.9827 -1.2323 -0.9068
  140MOL    H3016988   4.759   6.595   4.982  0.3456 -0.0499  0.4645
  140MOL    H3116989   4.906   6.493   4.744 -0.2740 -0.3286 -1.2863
  140MOL    C3216990   4.999   6.464   4.937 -0.4346  0.5107 -0.3599
  140MOL    C3316991   5.051   6.321   4.949 -0.3595 -0.6393 -0.0082
  140MOL   Cl3416992   5.182   6.331   5.073  0.5713 -0.1141  0.2120
  140MOL    H3516993   4.997   6.520   5.030  1.3082 -0.6935  0.4255
  140MOL    H3616994   5.072   6.513   4.873 -2.0005  1.3857 -1.5229
  140MOL    H3716995   4.977   6.251   4.987 -0.7515  0.0082  0.4247
  140MOL    C3816996   5.106   6.260   4.817  0.4278  0.0545  0.6590
  140MOL    C3916997   5.170   6.121   4.819 -0.2574  0.3388  0.4925
  140MOL   Cl4016998   5.220   6.084   4.646  0.2851  0.0966  0.4430
  140MOL    H4116999   5.174   6.330   4.767  0.8920 -1.1850 -0.4836
  140MOL    H4217000   5.021   6.261   4.748  1.6644  1.1615 -0.9110
  140MOL    H4317001   5.259   6.117   4.882 -0.3536  0.3074  0.6261
  140MOL    C4417002   5.076   6.009   4.867 -0.1441 -0.4761 -0.1658
  140MOL    C4517003   5.144   5.865   4.860  0.0609 -0.0707  0.0596
  140MOL   Cl4617004   5.027   5.738   4.884 -0.0352 -0.1718 -0.4351
  140MOL    H4717005   4.991   6.001   4.799 -0.1142 -1.9920 -0.0262
  140MOL    H4817006   5.036   6.023   4.968  0.0355 -1.2965  0.0221
  140MOL    H4917007   5.190   5.842   4.764  0.9105 -0.8611  0.6341
  140MOL    C5017008   5.245   5.834   4.969  0.8929 -0.8690  0.1803
  140MOL    C5117009   5.320   5.706   4.956 -0.1005  0.3509  0.4276
  140MOL   Cl5217010   5.412   5.681   5.105  0.0167  0.1501 -0.3396
  140MOL    H5317011   5.199   5.848   5.067 -0.2033  0.7698 -0.5326
  140MOL    H5417012   5.325   5.908   4.967 -0.5299  0.7001 -2.1500
  140MOL    H5517013   5.257   5.617   4.952  0.8587 -0.2589 -1.3376
  140MOL    C5617014   5.417   5.698   4.833 -0.4713 -0.6200 -0.3577
  140MOL    C5717015   5.486   5.563   4.822 -0.3127 -0.3036  0.0317
  140MOL   Cl5817016   5.628   5.597   4.717 -0.0111  0.0198  0.0323
  140MOL    H5917017   5.495   5.774   4.842  1.1109 -2.1930 -0.3545
  140MOL    H6017018   5.368   5.727   4.741 -0.3073 -1.1060 -0.5970
  140MOL    H6117019   5.537   5.541   4.916 -1.8195  0.9975  1.1806
  140MOL    C6217020   5.401   5.439   4.773  0.4414 -0.4074 -0.4420
  140MOL    C6317021   5.336   5.474   4.631 -0.2748  0.2338  0.2088
  140MOL   Cl6417022   5.170   5.548   4.646  0.0827  0.2330 -0.1002
  140MOL    H6517023   5.316   5.414   4.837  1.0185  0.1444  0.5471
  140MOL    H6617024   5.459   5.348   4.771 -1.4284 -1.6707  0.7362
  140MOL    H6717025   5.392   5.553   4.580  0.0900  0.8711  1.5909
  140MOL    C6817026   5.328   5.354   4.536  0.8330 -0.3359 -0.7481
  140MOL    C6917027   5.449   5.304   4.462  0.1572 -0.2896  0.4133
  140MOL   Cl7017028   5.495   5.438   4.351  0.2094  0.5994 -0.1357
  140MOL    H7117029   5.252   5.378   4.461  0.5444 -4.2561 -1.8468
  140MOL    H7217030   5.291   5.273   4.599  1.3148  0.3938  0.4850
  140MOL    H7317031   5.540   5.299   4.522  0.9161  0.5101 -0.6681
  140MOL    C7417032   5.428   5.176   4.390 -0.7231  0.1987  0.3261
  140MOL    C7517033   5.419   5.043   4.471 -0.5685 -0.9922  0.5811
  140MOL   Cl7617034   5.576   5.035   4.547  0.2120 -0.0510 -0.2683
  140MOL    H7717035   5.502   5.178   4.310  3.3246 -1.8706  3.7778
  140MOL    H7817036   5.329   5.179   4.344 -2.1088  0.2580  3.2115
  140MOL    H7917037   5.344   5.059   4.548 -0.8466  1.9092 -0.2257
  140MOL    C8017038   5.390   4.907   4.402  0.1287  0.6822  0.7054
  140MOL    C8117039   5.366   4.797   4.508 -0.4840  0.0699 -0.4920
  140MOL   Cl8217040   5.380   4.635   4.418 -0.0927 -0.1894 -0.0577
  140MOL    H8317041   5.482   4.875   4.352  0.0392 -0.6999  1.4054
  140MOL    H8417042   5.311   4.906   4.328 -1.2093  1.5188  2.1092
  140MOL    H8517043   5.441   4.788   4.586 -1.3833  0.4537  0.4256
  140MOL    C8617044   5.217   4.813   4.559 -0.0029  0.4977 -0.1065
  140MOL    C8717045   5.149   4.698   4.630  0.0575  0.7814  0.0751
  140MOL   Cl8817046   4.979   4.736   4.650  0.3004  0.0982  0.4763
  140MOL    H8917047   5.163   4.827   4.466 -1.4946 -0.8473  0.5308
  140MOL    H9017048   5.206   4.890   4.635 -1.4507 -0.8146  1.0713
  140MOL    H9117049   5.149   4.606   4.571  0.4052  0.3367  0.7515
  140MOL    C9217050   5.213   4.671   4.768 -0.3063  0.4405 -0.5792
  140MOL    C9317051   5.167   4.538   4.843 -0.0503 -0.0255  0.0879
  140MOL   Cl9417052   5.273   4.530   4.983 -0.6275  0.5091 -0.1187
  140MOL    H9517053   5.203   4.752   4.839  1.4001  0.2745 -0.1342
  140MOL    H9617054   5.322   4.675   4.760 -0.2844 -2.7590 -3.5777
  140MOL    H9717055   5.067   4.562   4.879  0.3285  1.1529  0.3688
  140MOL    C9817056   5.178   4.411   4.759 -0.7939  0.2549  0.1942
  140MOL    C9917057   5.042   4.357   4.706 -0.5919 -0.7028 -0.6307
  140MOL  Cl10017058   4.979   4.251   4.832  0.0630 -0.0035  0.1935
  140MOL   H10117059   5.214   4.331   4.824  0.9375 -0.5669 -1.7168
  140MOL   H10217060   5.255   4.423   4.682 -1.1731  0.2979 -0.1785
  140MOL   H10317061   4.977   4.440   4.679  0.1705 -0.4024 -1.6196
  140MOL   C10417062   5.070   4.254   4.600 -0.4489 -0.3360  0.3021
  140MOL   C10517063   5.058   4.306   4.455 -0.2332 -0.1727  0.0068
  140MOL  Cl10617064   4.885   4.353   4.423 -0.4323 -0.0121 -0.0575
  140MOL   H10717065   5.004   4.167   4.598 -1.6736  0.5971 -3.6918
  140MOL   H10817066   5.168   4.207   4.611 -0.2411  0.0868  0.2529
  140MOL   H10917067   5.095   4.409   4.459 -2.4974  0.6727 -0.0387
  140MOL   C11017068   5.106   4.212   4.346  0.4596 -0.1178 -0.1358
  140MOL   C11117069   5.102   4.267   4.202 -0.4108  0.0168  0.3658
  140MOL  Cl11217070   5.163   4.133   4.092 -0.3966  0.2381 -0.0107
  140MOL   H11317071   5.043   4.122   4.344  1.7001 -0.9843 -1.6309
  140MOL   H11417072   5.209   4.182   4.364  0.5091  0.9295  1.3475
  140MOL   H11517073   4.999   4.289   4.173 -0.2118  0.9706  0.3860
  140MOL   C11617074   5.193   4.391   4.173  0.1281  0.0759 -0.4322
  140MOL   C11717075   5.177   4.439   4.029 -0.2831 -0.1060 -0.3214
  140MOL  Cl11817076   5.013   4.485   4.006  0.2065 -0.1904  0.0573
  140MOL   H11917077   5.293   4.349   4.179  0.1080 -0.1156 -1.2921
  140MOL   H12017078   5.176   4.479   4.235  1.2427 -0.9700  1.3988
  140MOL   H12117079   5.232   4.531   4.009 -0.1746 -0.3669 -1.2666
  140MOL   H12217080   5.194   4.357   3.958  1.9067 -0.5642  0.6832
  141MOL     C117081   4.332   7.036   4.788  0.3268 -0.1264  0.0875
  141MOL     C217082   4.277   6.916   4.716  0.4492 -0.2118 -0.1494
  141MOL    Cl317083   4.118   6.880   4.772  0.3474  0.3055  0.2445
  141MOL     H417084   4.267   7.123   4.778 -1.1677 -1.5885 -3.6957
  141MOL     H517085   4.325   7.009   4.893  0.8850 -0.1700  0.1116
  141MOL     H617086   4.273   6.936   4.609  0.0233  0.3193 -0.0404
  141MOL     H717087   4.438   7.057   4.775  0.3654  0.2940  1.0312
  141MOL     C817088   4.371   6.798   4.731 -0.4611  0.5494  0.0812
  141MOL     C917089   4.329   6.663   4.667  0.3294 -0.3946  0.2873
  141MOL   Cl1017090   4.474   6.551   4.690  0.1708 -0.1841 -0.0708
  141MOL    H1117091   4.391   6.779   4.836  1.8029  0.7175 -0.2914
  141MOL    H1217092   4.469   6.818   4.687 -0.6268 -0.2734 -0.6739
  141MOL    H1317093   4.243   6.611   4.708 -0.0099 -1.1958 -1.4170
  141MOL    C1417094   4.304   6.684   4.514  0.0580  0.1789 -0.2873
  141MOL    C1517095   4.301   6.560   4.419  0.4231  0.0492  0.2294
  141MOL   Cl1617096   4.316   6.626   4.252 -0.0215 -0.1371 -0.5507
  141MOL    H1717097   4.390   6.744   4.485 -0.2071  0.3648 -0.6822
  141MOL    H1817098   4.211   6.739   4.504 -0.2344 -0.3990 -0.7895
  141MOL    H1917099   4.384   6.494   4.443  0.1540 -0.3733 -0.0090
  141MOL    C2017100   4.167   6.480   4.434  0.1265  0.0647 -0.2823
  141MOL    C2117101   4.170   6.332   4.398  0.4883  0.1712  0.1534
  141MOL   Cl2217102   4.269   6.246   4.520 -0.2456 -0.3653  0.2618
  141MOL    H2317103   4.085   6.527   4.380  1.3152  1.6034 -0.8143
  141MOL    H2417104   4.130   6.487   4.536 -0.0674 -2.4631 -0.1485
  141MOL    H2517105   4.069   6.290   4.406 -1.3230  4.0894 -1.0492
  141MOL    C2617106   4.225   6.288   4.258 -0.4805 -0.3908  0.2295
  141MOL    C2717107   4.152   6.335   4.127 -0.1251 -0.5920 -0.2006
  141MOL   Cl2817108   3.970   6.315   4.152 -0.0103 -0.0685 -0.2562
  141MOL    H2917109   4.236   6.179   4.254 -1.6449 -0.4784 -1.4510
  141MOL    H3017110   4.330   6.315   4.244 -0.4295 -0.3707  0.6436
  141MOL    H3117111   4.165   6.442   4.111 -0.4186 -0.4353  0.5906
  141MOL    C3217112   4.183   6.261   3.999 -0.0023  0.6241 -0.0844
  141MOL    C3317113   4.328   6.274   3.941 -0.5693  0.2849 -0.6621
  141MOL   Cl3417114   4.355   6.447   3.919 -0.1272 -0.2379  0.5609
  141MOL    H3517115   4.111   6.287   3.922  0.1127  1.2748  0.0209
  141MOL    H3617116   4.146   6.160   4.014  1.0120  0.1191 -0.9305
  141MOL    H3717117   4.400   6.247   4.018 -1.3920 -0.8175 -0.2730
  141MOL    C3817118   4.352   6.186   3.817 -0.2403  0.3853 -0.1295
  141MOL    C3917119   4.326   6.038   3.842  0.3500  0.0892  1.0003
  141MOL   Cl4017120   4.421   5.993   3.982  0.0596 -0.2330  0.2155
  141MOL    H4117121   4.454   6.201   3.783  0.9015  0.7655  3.2232
  141MOL    H4217122   4.282   6.233   3.747  1.6271  0.7197 -1.7949
  141MOL    H4317123   4.223   6.018   3.871  0.0824 -1.7952 -1.1112
  141MOL    C4417124   4.373   5.954   3.720 -0.1979  0.0467 -0.2694
  141MOL    C4517125   4.341   5.800   3.702  0.4678 -0.4109 -0.4701
  141MOL   Cl4617126   4.164   5.799   3.725 -0.4073  0.1228 -0.1253
  141MOL    H4717127   4.481   5.962   3.705 -0.1186  0.4247  0.4653
  141MOL    H4817128   4.338   6.012   3.634  0.3373 -0.2284 -0.6800
  141MOL    H4917129   4.359   5.776   3.597  0.2728  1.0503 -0.8531
  141MOL    C5017130   4.400   5.700   3.803 -0.2397 -0.4241 -0.5564
  141MOL    C5117131   4.555   5.703   3.818  0.5350  0.3105  0.0672
  141MOL   Cl5217132   4.636   5.688   3.658 -0.0110 -0.3050  0.0828
  141MOL    H5317133   4.364   5.602   3.773  2.5335 -1.6472 -0.0471
  141MOL    H5417134   4.364   5.723   3.903  0.7257  1.3755 -0.5988
  141MOL    H5517135   4.592   5.801   3.847 -0.4901  1.1153 -1.2843
  141MOL    C5617136   4.609   5.588   3.907 -0.4081  0.3052 -0.2850
  141MOL    C5717137   4.564   5.608   4.051  0.1246 -0.2919 -0.1252
  141MOL   Cl5817138   4.671   5.735   4.121  0.1220 -0.4431  0.1904
  141MOL    H5917139   4.717   5.583   3.891 -0.3684 -0.7617  0.2632
  141MOL    H6017140   4.579   5.487   3.878 -0.7692  0.2502  0.2755
  141MOL    H6117141   4.462   5.644   4.066  0.7838  1.7509 -0.4816
  141MOL    C6217142   4.597   5.473   4.126 -0.6933 -0.2739  0.9568
  141MOL    C6317143   4.474   5.384   4.149  0.3588 -0.0135 -0.2734
  141MOL   Cl6417144   4.363   5.455   4.275  0.5612  0.2967 -0.3886
  141MOL    H6517145   4.620   5.503   4.229  0.9890  0.3516  0.4066
  141MOL    H6617146   4.681   5.417   4.084 -0.7716 -0.1354  0.6226
  141MOL    H6717147   4.406   5.379   4.065  0.1661 -1.9745 -0.0298
  141MOL    C6817148   4.521   5.242   4.194  0.1760 -0.0253  0.5395
  141MOL    C6917149   4.412   5.134   4.224  0.1411  0.2211 -0.0056
  141MOL   Cl7017150   4.497   5.034   4.346  0.5971 -0.2429  0.4143
  141MOL    H7117151   4.573   5.259   4.288  0.7700  1.6983 -0.0902
  141MOL    H7217152   4.582   5.198   4.115  0.5525  2.0322 -0.3359
  141MOL    H7317153   4.331   5.180   4.280  0.4345 -0.3949  0.9417
  141MOL    C7417154   4.376   5.033   4.110  1.1282 -0.6308 -0.2267
  141MOL    C7517155   4.283   5.082   4.011 -0.1954  0.2828  0.4857
  141MOL   Cl7617156   4.134   5.114   4.093 -0.1549  0.2616 -0.2389
  141MOL    H7717157   4.321   4.956   4.165 -0.8802  0.7975 -0.2124
  141MOL    H7817158   4.457   4.986   4.054  1.4552  1.6153 -1.6583
  141MOL    H7917159   4.318   5.178   3.974  0.1167 -1.0801 -2.9581
  141MOL    C8017160   4.241   4.975   3.903 -0.1112 -0.3553 -0.5210
  141MOL    C8117161   4.202   5.040   3.767  0.1945  0.1534  0.1146
  141MOL   Cl8217162   4.036   5.115   3.781 -0.2977  0.1177 -0.1115
  141MOL    H8317163   4.159   4.908   3.930  0.1108 -0.3278  0.2184
  141MOL    H8417164   4.318   4.901   3.880  1.9914  1.0776  1.7115
  141MOL    H8517165   4.267   5.124   3.742 -0.3033  0.5109  0.0269
  141MOL    C8617166   4.210   4.949   3.639  0.2719  0.5858 -0.4205
  141MOL    C8717167   4.322   4.986   3.531  0.2982 -1.4473 -0.5197
  141MOL   Cl8817168   4.283   5.145   3.459 -0.2709 -0.2911  0.0426
  141MOL    H8917169   4.110   4.951   3.596  0.1324 -1.4179 -0.2270
  141MOL    H9017170   4.225   4.842   3.658 -2.6458  0.2334  0.1069
  141MOL    H9117171   4.411   5.011   3.589 -0.9711  2.2333 -0.0047
  141MOL    C9217172   4.354   4.890   3.423  0.5511 -0.1607 -0.4791
  141MOL    C9317173   4.382   4.742   3.466 -0.1249 -0.1752 -0.1891
  141MOL   Cl9417174   4.494   4.723   3.606  0.0985  0.6901  0.0706
  141MOL    H9517175   4.434   4.926   3.359  0.1672  0.9389 -0.3503
  141MOL    H9617176   4.264   4.893   3.362  1.1312 -0.9126 -1.3883
  141MOL    H9717177   4.293   4.691   3.502 -0.3777  0.4474  0.0540
  141MOL    C9817178   4.423   4.653   3.348 -0.2860 -0.4669  0.0114
  141MOL    C9917179   4.335   4.655   3.215  0.1370  0.2292  0.2363
  141MOL  Cl10017180   4.173   4.584   3.246  0.1346  0.3129  0.1314
  141MOL   H10117181   4.423   4.549   3.380 -0.6502  0.1428  2.0561
  141MOL   H10217182   4.529   4.671   3.332 -0.4396  0.8187  0.3114
  141MOL   H10317183   4.323   4.757   3.179 -1.7885  0.1560  0.5990
  141MOL   C10417184   4.398   4.563   3.100 -0.0760  0.3517 -0.2536
  141MOL   C10517185   4.542   4.604   3.063 -0.6215 -0.6884  0.8210
  141MOL  Cl10617186   4.571   4.771   3.020 -0.2066 -0.0428  0.0160
  141MOL   H10717187   4.328   4.568   3.017 -1.6008  0.6912  1.0308
  141MOL   H10817188   4.383   4.461   3.135  0.3825 -0.1682 -1.5315
  141MOL   H10917189   4.610   4.577   3.144  0.9783 -1.9060 -0.8791
  141MOL   C11017190   4.581   4.520   2.941  0.3564 -0.9623  0.2841
  141MOL   C11117191   4.733   4.527   2.905  0.7995  0.8112 -0.2480
  141MOL  Cl11217192   4.766   4.451   2.744  0.0537  0.5059  0.6251
  141MOL   H11317193   4.520   4.567   2.864 -1.0196 -1.2749  1.1537
  141MOL   H11417194   4.548   4.418   2.960 -0.5894 -0.7180 -0.0164
  141MOL   H11517195   4.757   4.634   2.902  1.6337  0.6717  0.9336
  141MOL   C11617196   4.824   4.469   3.022  0.4030  0.5612  0.0291
  141MOL   C11717197   4.970   4.442   2.989  0.4351 -0.1384 -0.2354
  141MOL  Cl11817198   5.031   4.321   3.106  0.2161  0.0785  0.2430
  141MOL   H11917199   4.776   4.377   3.054 -1.0837  0.8472 -1.3530
  141MOL   H12017200   4.833   4.531   3.111 -0.4149  0.0210  0.4936
  141MOL   H12117201   4.990   4.403   2.889  0.4426  0.0395 -0.3048
  141MOL   H12217202   5.029   4.533   3.005  0.6687 -0.3723  0.2251
  142MOL     C117203   8.492   8.429   5.492  0.0111  1.0364  0.4472
  142MOL     C217204   8.517   8.294   5.432 -1.2792  0.3719  0.2316
  142MOL    Cl317205   8.372   8.185   5.448  0.0214  0.1065  0.2822
  142MOL     H417206   8.395   8.470   5.465 -0.1654  3.1075  3.9122
  142MOL     H517207   8.502   8.422   5.600  0.7042  0.8377  0.3714
  142MOL     H617208   0.009   8.313   5.326 -1.7524 -0.2194  0.0479
  142MOL     H717209   0.045   8.491   5.448 -0.8981  1.5072 -0.5189
  142MOL     C817210   0.117   8.230   5.507  0.1156 -0.1154  0.0341
  142MOL     C917211   0.253   8.295   5.472 -0.3997 -0.5103  0.0763
  142MOL   Cl1017212   0.280   8.293   5.297  0.1772 -0.0983 -0.2559
  142MOL    H1117213   0.121   8.126   5.474 -0.0622  0.1251 -0.7525
  142MOL    H1217214   0.098   8.222   5.614 -1.2312  1.7032 -0.0351
  142MOL    H1317215   0.252   8.401   5.501 -0.8574 -0.5213  0.1108
  142MOL    C1417216   0.359   8.214   5.543  0.5624 -0.1474  0.6420
  142MOL    C1517217   0.500   8.265   5.529  0.0008  1.0975  0.1610
  142MOL   Cl1617218   0.607   8.165   5.633 -0.0668  0.2903 -0.2084
  142MOL    H1717219   0.357   8.110   5.512  1.4059  0.4860 -1.6803
  142MOL    H1817220   0.334   8.211   5.649  1.3065  2.1617  0.9259
  142MOL    H1917221   0.541   8.256   5.429  1.4747  0.5650  0.7861
  142MOL    C2017222   0.522   8.407   5.572  0.3551 -0.5402  0.5095
  142MOL    C2117223   0.672   8.459   5.585 -0.1675 -0.3338 -0.3545
  142MOL   Cl2217224   0.673   0.081   5.685 -0.4628 -0.1872 -0.1443
  142MOL    H2317225   0.468   8.407   5.667 -0.7463 -0.6449 -0.1109
  142MOL    H2417226   0.468   8.475   5.507 -0.8824 -0.8252  1.2327
  142MOL    H2517227   0.735   8.393   5.644 -0.4039 -0.2345  0.0161
  142MOL    C2617228   0.741   8.490   5.446  0.6435 -0.2657 -0.4006
  142MOL    C2717229   0.881   0.043   5.443  0.5865 -0.0612  0.4280
  142MOL   Cl2817230   0.904   0.092   5.268 -0.0709 -0.2664  0.1025
  142MOL    H2917231   0.678   0.023   5.379 -2.9326 -3.5851 -0.0976
  142MOL    H3017232   0.759   8.397   5.392  0.6361  0.6049 -1.9292
  142MOL    H3117233   0.883   0.135   5.501  0.2720  0.5719 -0.5554
  142MOL    C3217234   1.006   8.491   5.499 -0.6411 -0.5766  0.3742
  142MOL    C3317235   1.129   0.045   5.541  0.1284 -0.0336 -0.0367
  142MOL   Cl3417236   1.071   0.147   5.683  0.1199  0.2382  0.1963
  142MOL    H3517237   1.032   8.408   5.433 -1.6626 -0.9256  0.4020
  142MOL    H3617238   0.975   8.439   5.590  1.6729  0.4210  1.8032
  142MOL    H3717239   1.201   8.498   5.580  0.0099  0.4563  1.1066
  142MOL    C3817240   1.181   0.146   5.436 -0.4272  0.0120 -0.3508
  142MOL    C3917241   1.325   0.195   5.464  0.5167  0.5185 -0.1607
  142MOL   Cl4017242   1.335   0.364   5.430 -0.1101  0.2513  0.6972
  142MOL    H4117243   1.111   0.229   5.431  1.4536  1.6393 -0.3819
  142MOL    H4217244   1.188   0.098   5.339  0.0506  0.9282 -0.7664
  142MOL    H4317245   1.353   0.193   5.569  0.0434  0.1712 -0.0427
  142MOL    C4417246   1.435   0.131   5.377  0.8211 -0.1776  0.6915
  142MOL    C4517247   1.450   8.505   5.390 -0.0976  0.3578  0.3487
  142MOL   Cl4617248   1.508   8.452   5.549  0.2234  0.1089  0.2749
  142MOL    H4717249   1.524   0.191   5.396  0.6040  0.3081  0.1699
  142MOL    H4817250   1.414   0.148   5.272 -0.4418  0.9534  1.1121
  142MOL    H4917251   1.352   8.459   5.381  0.7024 -1.7406  1.8870
  142MOL    C5017252   1.540   8.437   5.282 -0.9333  0.1598  0.8099
  142MOL    C5117253   1.692   8.466   5.278 -0.3177  0.4599 -0.2454
  142MOL   Cl5217254   1.717   0.098   5.200  0.6986  0.1695  0.1792
  142MOL    H5317255   1.498   8.460   5.184 -1.6237 -1.9529  0.5900
  142MOL    H5417256   1.529   8.329   5.290  1.4607 -0.1054  0.8814
  142MOL    H5517257   1.732   8.466   5.380 -1.2299  0.6058  0.1224
  142MOL    C5617258   1.754   8.357   5.183  0.1910 -0.1810  0.3605
  142MOL    C5717259   1.906   8.350   5.177 -0.4933 -0.2192 -0.2560
  142MOL   Cl5817260   1.955   8.236   5.053 -0.1400 -0.6148 -0.2665
  142MOL    H5917261   1.717   8.385   5.085 -0.9397  0.3163  0.9108
  142MOL    H6017262   1.707   8.262   5.209 -0.8317  0.1845 -0.1403
  142MOL    H6117263   1.947   8.445   5.144  0.6717 -1.2089 -1.7049
  142MOL    C6217264   1.962   8.299   5.311  0.0194 -0.2472  0.2859
  142MOL    C6317265   2.111   8.268   5.330  0.5408  0.0383 -0.7102
  142MOL   Cl6417266   2.126   8.207   5.494  0.0258 -0.0679  0.0079
  142MOL    H6517267   1.912   8.205   5.334  0.7332 -0.7529 -0.2099
  142MOL    H6617268   1.931   8.366   5.391 -0.2989 -2.7974  2.3702
  142MOL    H6717269   2.136   8.183   5.266  0.9263 -0.6320  0.3208
  142MOL    C6817270   2.217   8.378   5.317  0.2105 -0.4465  0.3224
  142MOL    C6917271   2.257   8.410   5.172  0.0193  0.0013 -0.2627
  142MOL   Cl7017272   2.350   8.267   5.099  0.4508  0.1823  0.3203
  142MOL    H7117273   2.310   8.354   5.367  0.9899  0.1994 -0.7847
  142MOL    H7217274   2.176   8.463   5.372 -0.7743 -0.3153 -0.5919
  142MOL    H7317275   2.174   8.419   5.101  1.7679  0.1999 -2.3321
  142MOL    C7417276   2.349   0.008   5.161 -0.2250  0.7456 -0.3742
  142MOL    C7517277   2.389   0.045   5.013 -0.2242  0.2467 -0.5262
  142MOL   Cl7617278   2.498   0.189   5.024 -0.0676  0.0191  0.3979
  142MOL    H7717279   2.440   8.512   5.217 -0.0700 -1.2288 -1.3273
  142MOL    H7817280   2.293   0.078   5.223 -0.9211 -2.4698  2.8381
  142MOL    H7917281   2.453   8.494   4.968 -1.5380 -1.6132  0.6946
  142MOL    C8017282   2.275   0.073   4.915  0.1531  0.4446 -0.4458
  142MOL    C8117283   2.182   0.196   4.950 -0.4939 -0.4702 -0.0192
  142MOL   Cl8217284   2.101   0.183   5.112 -0.3997 -0.5377 -0.1156
  142MOL    H8317285   2.214   8.508   4.913  1.9965 -0.8214 -2.4858
  142MOL    H8417286   2.315   0.078   4.813  0.8352 -1.8409 -0.3295
  142MOL    H8517287   2.243   0.286   4.957 -0.8752 -0.2395  0.3864
  142MOL    C8617288   2.085   0.233   4.834 -0.5782  0.8390  0.2585
  142MOL    C8717289   1.936   0.188   4.854  0.1306  0.0103 -0.1602
  142MOL   Cl8817290   1.902   0.018   4.867 -0.4848  0.1130 -0.1814
  142MOL    H8917291   2.131   0.192   4.744 -0.6430  1.9547 -0.2875
  142MOL    H9017292   2.085   0.342   4.827 -0.5641  0.8233 -0.0114
  142MOL    H9117293   1.901   0.223   4.951  3.3504 -1.0260  1.4418
  142MOL    C9217294   1.854   0.267   4.743  0.5854 -0.3554  0.0857
  142MOL    C9317295   1.703   0.252   4.769  0.3014  0.0395 -0.2006
  142MOL   Cl9417296   1.636   0.322   4.628  0.4203 -0.3911  0.1139
  142MOL    H9517297   1.882   0.238   4.642  2.8045  0.2552  0.5059
  142MOL    H9617298   1.874   0.373   4.756  0.1979 -0.2644 -0.0570
  142MOL    H9717299   1.679   0.146   4.759  2.2159 -0.4642  0.3465
  142MOL    C9817300   1.647   0.312   4.898  0.1097  0.0813 -0.5468
  142MOL    C9917301   1.498   0.314   4.923 -0.7172 -0.1278  0.6961
  142MOL  Cl10017302   1.468   0.431   5.052  0.0503  0.5859  0.5680
  142MOL   H10117303   1.668   0.418   4.884 -1.7261  0.4988 -0.2502
  142MOL   H10217304   1.705   0.274   4.982  1.1044  0.1107 -1.2094
  142MOL   H10317305   1.454   0.354   4.832 -0.9046 -0.7537  0.5066
  142MOL   C10417306   1.432   0.184   4.975 -0.7744  0.0405 -0.7500
  142MOL   C10517307   1.288   0.189   5.021 -0.2277 -0.0739  0.0342
  142MOL  Cl10617308   1.229   0.028   5.061  0.1350 -0.1648  0.1128
  142MOL   H10717309   1.494   0.145   5.055 -1.4533 -1.4062 -0.8962
  142MOL   H10817310   1.437   0.107   4.897  1.3532 -0.7101  0.0949
  142MOL   H10917311   1.288   0.245   5.114 -1.6433 -0.3559  0.2096
  142MOL   C11017312   1.188   0.256   4.916 -0.2996  0.0480 -0.2231
  142MOL   C11117313   1.043   0.262   4.963 -0.4417  0.3453 -0.0100
  142MOL  Cl11217314   0.950   0.315   4.815 -0.4323  0.1865 -0.0686
  142MOL   H11317315   1.206   0.211   4.818 -2.3520  0.6489 -0.9029
  142MOL   H11417316   1.221   0.359   4.906  0.2735 -0.3575 -2.9069
  142MOL   H11517317   1.003   0.166   4.994  0.5666  0.1361  0.6792
  142MOL   C11617318   1.024   0.368   5.079 -0.6532  0.1272 -0.3705
  142MOL   C11717319   0.879   0.404   5.117 -0.3325  0.2361  0.1403
  142MOL  Cl11817320   0.870   0.486   5.267  0.0510 -0.0152 -0.0581
  142MOL   H11917321   1.083   0.458   5.060  1.2643 -1.4630 -2.2283
  142MOL   H12017322   1.063   0.332   5.174 -0.4152  0.8678 -0.1798
  142MOL   H12117323   0.831   0.464   5.040 -3.0342 -0.3261  1.3151
  142MOL   H12217324   0.819   0.313   5.119  0.9306 -0.5804  1.9946
  143MOL     C117325   6.524   7.847   4.898  0.0097 -0.0656 -0.2505
  143MOL     C217326   6.543   7.962   5.004 -0.2417  0.3569  0.2476
  143MOL    Cl317327   6.475   8.115   4.922  0.3794 -0.1982  0.0700
  143MOL     H417328   6.528   7.744   4.933  1.8078  0.2115  0.4221
  143MOL     H517329   6.431   7.847   4.841 -0.2778 -0.4664  0.2131
  143MOL     H617330   6.475   7.948   5.088 -0.1629  2.8193  0.7342
  143MOL     H717331   6.608   7.859   4.830 -1.0473 -0.9225 -1.7609
  143MOL     C817332   6.686   7.993   5.051  0.2567 -0.2663  0.7555
  143MOL     C917333   6.758   7.902   5.160 -0.1386  0.7343  0.3996
  143MOL   Cl1017334   6.659   7.921   5.311  0.0294 -0.0426  0.0439
  143MOL    H1117335   6.672   8.088   5.101 -2.0192 -0.5178  0.6471
  143MOL    H1217336   6.752   8.006   4.965 -0.7549  0.6895  0.1124
  143MOL    H1317337   6.748   7.796   5.140 -0.4052  0.6019  1.2514
  143MOL    C1417338   6.901   7.951   5.196  0.4528 -0.6247  0.0700
  143MOL    C1517339   7.017   7.914   5.099 -0.7903  0.8533 -0.3446
  143MOL   Cl1617340   7.035   7.745   5.063  0.4907 -0.2686  0.0003
  143MOL    H1717341   6.933   7.916   5.294 -1.2956  1.9252  1.6047
  143MOL    H1817342   6.899   8.060   5.202  1.8410 -0.6390  1.1036
  143MOL    H1917343   6.984   7.967   5.010 -1.3777 -0.5624 -0.9860
  143MOL    C2017344   7.149   7.970   5.156  0.4276 -0.0560 -0.0856
  143MOL    C2117345   7.151   8.129   5.172  0.1604  0.1133  0.4218
  143MOL   Cl2217346   7.117   8.211   5.011  0.4591 -0.5363  0.2903
  143MOL    H2317347   7.229   7.950   5.085  0.9983 -0.3186  0.6177
  143MOL    H2417348   7.171   7.926   5.254 -0.7075 -0.8195 -0.1765
  143MOL    H2517349   7.075   8.159   5.244  1.0465 -2.2113  2.4244
  143MOL    C2617350   7.291   8.188   5.197  0.7656  0.8136 -0.6816
  143MOL    C2717351   7.366   8.150   5.330 -0.4270  0.1929 -0.6322
  143MOL   Cl2817352   7.259   8.209   5.460 -0.4073  0.0613 -0.0869
  143MOL    H2917353   7.296   8.296   5.191 -0.1604  0.7705 -2.8134
  143MOL    H3017354   7.340   8.159   5.104 -0.9169 -1.5621 -0.8740
  143MOL    H3117355   7.375   8.043   5.346  3.7657  0.8310  2.0555
  143MOL    C3217356   7.505   8.211   5.327  0.0952  0.1525  0.3839
  143MOL    C3317357   7.605   8.163   5.439 -0.4725 -0.1952 -0.2008
  143MOL   Cl3417358   7.634   7.988   5.428 -0.6178 -0.1462 -0.2515
  143MOL    H3517359   7.509   8.319   5.338  2.1279  0.0175  1.1890
  143MOL    H3617360   7.556   8.187   5.234  0.4744 -1.0946  0.9079
  143MOL    H3717361   7.694   8.214   5.402  0.3950 -0.7901  1.0281
  143MOL    C3817362   7.567   8.199   5.587  0.0976  0.4053  0.2380
  143MOL    C3917363   7.690   8.242   5.669  1.1087  0.2882  0.8772
  143MOL   Cl4017364   7.750   8.398   5.599 -0.1704  0.1250 -0.1016
  143MOL    H4117365   7.519   8.114   5.635 -1.5913  1.2858  0.1505
  143MOL    H4217366   7.504   8.288   5.589 -3.0849 -1.7926  2.7677
  143MOL    H4317367   7.650   8.261   5.769 -1.4805 -0.5482  0.0419
  143MOL    C4417368   7.807   8.132   5.681  0.1279  0.3024  0.3116
  143MOL    C4517369   7.929   8.165   5.778 -0.0928 -0.0179 -0.5044
  143MOL   Cl4617370   8.041   8.259   5.688  0.0893 -0.3657  0.2680
  143MOL    H4717371   7.847   8.107   5.583 -1.5939  1.2525 -0.6548
  143MOL    H4817372   7.762   8.037   5.711  0.5773  0.2474  0.8239
  143MOL    H4917373   7.892   8.228   5.859  0.5705  1.8187 -1.5779
  143MOL    C5017374   7.999   8.037   5.827 -0.0446  0.3170 -0.2065
  143MOL    C5117375   7.937   7.951   5.944 -0.0381 -0.1409  0.4639
  143MOL   Cl5217376   7.965   8.056   6.087  0.0207 -0.0290  0.0741
  143MOL    H5317377   8.097   8.071   5.859 -0.1740  0.4052  0.0972
  143MOL    H5417378   8.017   7.972   5.742  1.6316  0.7251 -0.1811
  143MOL    H5517379   7.829   7.942   5.932  0.1885  0.4284 -2.4121
  143MOL    C5617380   8.006   7.812   5.979  0.3474 -0.1733  0.2610
  143MOL    C5717381   8.144   7.805   6.049 -0.2378 -0.0969 -0.3918
  143MOL   Cl5817382   8.265   7.882   5.944  0.0301  0.1573 -0.1583
  143MOL    H5917383   8.001   7.746   5.892  0.9349 -1.3393  1.0915
  143MOL    H6017384   7.939   7.767   6.053  1.7894 -1.3878  0.8575
  143MOL    H6117385   8.142   7.855   6.145  0.8387 -0.5230 -0.1395
  143MOL    C6217386   8.187   7.661   6.087  0.2465  0.8134  0.2368
  143MOL    C6317387   8.339   7.653   6.130 -0.3592  0.8659  0.4402
  143MOL   Cl6417388   8.372   7.481   6.165 -0.1560 -0.1349 -0.0354
  143MOL    H6517389   8.169   7.588   6.008 -0.2753  1.6562 -0.4262
  143MOL    H6617390   8.128   7.627   6.172 -0.0262 -0.3207 -0.3869
  143MOL    H6717391   8.401   7.677   6.044 -2.2827  0.7997 -0.9866
  143MOL    C6817392   8.380   7.727   6.257 -0.0752 -0.3722 -0.6497
  143MOL    C6917393   0.007   7.720   6.282 -0.4402  0.7752  0.2525
  143MOL   Cl7017394   0.043   7.678   6.451 -0.0805  0.1789  0.2578
  143MOL    H7117395   8.335   7.669   6.337 -0.1134  0.3253 -0.1622
  143MOL    H7217396   8.336   7.824   6.276 -0.2963  0.1677 -3.6747
  143MOL    H7317397   0.046   7.635   6.226 -2.7006 -0.1631  0.0679
  143MOL    C7417398   0.085   7.845   6.249  0.0846 -0.3465 -0.3924
  143MOL    C7517399   0.117   7.858   6.098 -0.2558  0.0315  0.6940
  143MOL   Cl7617400   0.219   7.722   6.070 -0.0802 -0.7682  0.2863
  143MOL    H7717401   0.186   7.847   6.290  0.2293  2.0080 -0.7825
  143MOL    H7817402   0.034   7.935   6.282  0.2119 -0.3581 -0.1683
  143MOL    H7917403   0.030   7.853   6.032  0.5120  2.6271 -0.6260
  143MOL    C8017404   0.204   7.979   6.057  0.5622  0.0879  0.2630
  143MOL    C8117405   0.128   8.109   6.039 -0.3196  0.6459  0.7740
  143MOL   Cl8217406   8.522   8.085   5.925  0.1571 -0.7606 -0.2881
  143MOL    H8317407   0.241   7.951   5.958 -0.1647 -0.9515  0.2799
  143MOL    H8417408   0.295   7.990   6.116  1.5231  0.3068 -1.2295
  143MOL    H8517409   0.090   8.128   6.139 -3.1310 -1.8346  0.2739
  143MOL    C8617410   0.225   8.217   5.976  1.0139 -0.3976 -0.6215
  143MOL    C8717411   0.347   8.278   6.053  0.2730 -0.0473  0.3732
  143MOL   Cl8817412   0.294   8.362   6.209  0.2430  0.1602  0.1360
  143MOL    H8917413   0.156   8.296   5.947 -0.9010 -2.1521 -0.9608
  143MOL    H9017414   0.258   8.164   5.887  0.5509  0.5548 -1.3635
  143MOL    H9117415   0.410   8.197   6.089  0.6104  0.1444  0.2055
  143MOL    C9217416   0.426   8.367   5.960  0.2922  0.1090 -0.1909
  143MOL    C9317417   0.556   8.419   6.025  0.2898  0.3773 -0.1831
  143MOL   Cl9417418   0.536   0.070   6.039  0.3532  0.1922 -0.2494
  143MOL    H9517419   0.364   8.445   5.916 -0.2095 -0.3774 -0.3544
  143MOL    H9617420   0.453   8.301   5.877 -1.3237 -0.6443 -0.1374
  143MOL    H9717421   0.565   8.387   6.130 -2.1852 -1.4046 -0.4698
  143MOL    C9817422   0.687   8.380   5.948  0.2991 -0.3717 -0.1332
  143MOL    C9917423   0.807   8.444   6.015  0.2752  0.4690 -0.4274
  143MOL  Cl10017424   0.942   8.406   5.910 -0.2050  0.2075  0.3632
  143MOL   H10117425   0.691   8.414   5.845 -0.5226  0.8303  0.2316
  143MOL   H10217426   0.702   8.272   5.942 -0.9702 -0.4640 -2.2851
  143MOL   H10317427   0.790   0.026   6.022 -2.1930  0.1825 -1.4972
  143MOL   C10417428   0.842   8.386   6.153 -0.3146 -0.0404 -0.1115
  143MOL   C10517429   0.877   8.238   6.165  0.1784 -0.1685 -0.1493
  143MOL  Cl10617430   0.730   8.137   6.178 -0.3274  0.1720  0.3852
  143MOL   H10717431   0.771   8.410   6.232  1.3330 -0.0750  1.4175
  143MOL   H10817432   0.933   8.440   6.179 -0.3717 -0.0277  0.0574
  143MOL   H10917433   0.924   8.205   6.072  1.0059  0.7766 -0.0711
  143MOL   C11017434   0.972   8.210   6.283 -0.6728  0.2573  0.6496
  143MOL   C11117435   1.046   8.073   6.292  0.3294 -0.7486 -0.2230
  143MOL  Cl11217436   1.163   8.060   6.162 -0.2603 -0.1268  0.0228
  143MOL   H11317437   0.921   8.217   6.379 -0.8018 -0.7144  0.6552
  143MOL   H11417438   1.053   8.282   6.295  0.1956 -0.8498  1.4274
  143MOL   H11517439   1.095   8.081   6.389 -0.8119  2.4663  0.1143
  143MOL   C11617440   0.970   7.938   6.277 -0.1613 -0.2300  0.3196
  143MOL   C11717441   0.889   7.916   6.400  1.1368  0.2219  0.1601
  143MOL  Cl11817442   0.994   7.889   6.545 -0.3593  0.0379 -0.4681
  143MOL   H11917443   1.050   7.865   6.262 -0.3775 -0.2722 -0.6352
  143MOL   H12017444   0.909   7.938   6.186 -0.9002  0.4356  0.8124
  143MOL   H12117445   0.824   8.001   6.422 -2.3810 -1.7254 -2.1735
  143MOL   H12217446   0.830   7.828   6.375  1.0487 -0.1496  1.6452
  144MOL     C117447   3.697   4.440   5.622  0.4433  0.0898  0.2417
  144MOL     C217448   3.616   4.564   5.648 -0.0400  0.8113  0.0825
  144MOL    Cl317449   3.627   4.679   5.510  0.0120  0.3651  0.2533
  144MOL     H417450   3.658   4.399   5.529 -2.9386  0.7988  1.2762
  144MOL     H517451   3.803   4.458   5.607  0.6202 -1.9126 -1.1208
  144MOL     H617452   3.512   4.535   5.663  0.0743  0.9920  1.2128
  144MOL     H717453   3.693   4.354   5.690 -1.3104 -3.0111 -3.5615
  144MOL     C817454   3.653   4.632   5.784 -0.2962 -0.2132 -0.2607
  144MOL     C917455   3.566   4.757   5.815 -0.3588  0.5921 -0.0360
  144MOL   Cl1017456   3.629   4.902   5.734 -0.1369  0.0484  0.5427
  144MOL    H1117457   3.757   4.661   5.773  0.0593 -0.8483  1.2552
  144MOL    H1217458   3.643   4.562   5.867 -1.9387  0.9234  0.5216
  144MOL    H1317459   3.466   4.726   5.783  0.8137 -3.0393 -0.4307
  144MOL    C1417460   3.562   4.792   5.964  0.3158 -0.0411  0.0045
  144MOL    C1517461   3.700   4.841   6.029  0.4074  0.1796  0.1812
  144MOL   Cl1617462   3.812   4.706   6.047  0.4255 -0.1967 -0.3186
  144MOL    H1717463   3.521   4.715   6.029  1.9840  1.1685  2.5636
  144MOL    H1817464   3.492   4.874   5.981 -1.7785 -1.7949  0.1539
  144MOL    H1917465   3.755   4.913   5.969  1.6648 -0.5822  0.3928
  144MOL    C2017466   3.693   4.903   6.169 -0.6582  0.3564 -0.1434
  144MOL    C2117467   3.583   5.012   6.192 -0.7014  0.1314  0.1026
  144MOL   Cl2217468   3.597   5.130   6.071 -0.1438  0.4262 -0.2684
  144MOL    H2317469   3.791   4.930   6.208  0.9867 -3.0704 -1.7517
  144MOL    H2417470   3.687   4.830   6.250  3.0882 -0.1503 -0.2342
  144MOL    H2517471   3.480   4.975   6.193 -0.5404 -0.4624 -2.0180
  144MOL    C2617472   3.607   5.079   6.327  0.2604  0.7287  0.6992
  144MOL    C2717473   3.562   5.019   6.461  0.4989 -1.1457 -0.2159
  144MOL   Cl2817474   3.389   5.045   6.472  0.1555 -0.5992  0.2732
  144MOL    H2917475   3.553   5.174   6.324  1.1011  1.2469  1.8325
  144MOL    H3017476   3.712   5.102   6.344  0.5236 -0.0766  0.1932
  144MOL    H3117477   3.566   4.910   6.473 -1.1575 -1.0468  1.4602
  144MOL    C3217478   3.628   5.081   6.583 -0.0505  0.1947  0.1444
  144MOL    C3317479   3.574   5.030   6.713 -0.2371  0.0988  0.0355
  144MOL   Cl3417480   3.633   5.132   6.847  0.0235 -0.1640  0.1271
  144MOL    H3517481   3.629   5.190   6.585 -1.3284  0.1979  0.5697
  144MOL    H3617482   3.734   5.056   6.579 -0.0254  0.3786 -0.5386
  144MOL    H3717483   3.465   5.026   6.711 -0.2421 -2.3514  3.1820
  144MOL    C3817484   3.627   4.883   6.748 -0.7572 -0.4011 -0.0531
  144MOL    C3917485   3.545   4.801   6.849 -0.1803 -0.1137  0.8158
  144MOL   Cl4017486   3.381   4.762   6.789 -0.4248  0.1883  0.0852
  144MOL    H4117487   3.730   4.883   6.785 -1.5346 -0.1903  2.1843
  144MOL    H4217488   3.635   4.825   6.656  0.2321 -1.4306  0.6551
  144MOL    H4317489   3.607   4.712   6.852  1.3311  0.9162  1.1985
  144MOL    C4417490   3.535   4.863   6.985 -1.0166  0.2949 -0.4455
  144MOL    C4517491   3.670   4.858   7.062 -0.6982  0.2198 -0.3125
  144MOL   Cl4617492   3.714   4.688   7.093 -0.1279  0.4322 -0.4131
  144MOL    H4717493   3.461   4.807   7.043 -0.4390  0.7517  0.7661
  144MOL    H4817494   3.489   4.962   6.980  0.3128  0.9689  0.3271
  144MOL    H4917495   3.750   4.900   7.002 -1.8781  1.4375 -1.0866
  144MOL    C5017496   3.664   4.933   7.198  0.1988 -0.1767 -0.2321
  144MOL    C5117497   3.784   4.906   7.290  0.4242  0.1507 -0.5033
  144MOL   Cl5217498   3.732   4.982   7.446  0.3150  0.0871 -0.4226
  144MOL    H5317499   3.586   4.893   7.263  1.3867 -0.0204  1.3353
  144MOL    H5417500   3.652   5.039   7.177  1.7267 -0.1619 -1.1500
  144MOL    H5517501   3.801   4.806   7.330  1.1469 -0.1070 -1.4375
  144MOL    C5617502   3.926   4.955   7.247  0.3420  0.1087  0.1426
  144MOL    C5717503   4.041   4.926   7.347  0.2000 -0.0560 -0.1895
  144MOL   Cl5817504   4.173   5.046   7.330  0.0636  0.0221  0.4942
  144MOL    H5917505   3.911   5.061   7.222  0.7035  0.0373 -0.4065
  144MOL    H6017506   3.946   4.902   7.154 -1.8392  2.6385 -1.8815
  144MOL    H6117507   4.004   4.937   7.449 -0.3282 -1.0108 -0.2683
  144MOL    C6217508   4.095   4.783   7.313 -0.5036 -0.7409 -0.2171
  144MOL    C6317509   4.183   4.713   7.417 -0.6370  0.4556 -0.3172
  144MOL   Cl6417510   4.101   4.729   7.573 -0.1136 -0.1100  0.0477
  144MOL    H6517511   4.153   4.796   7.222 -3.2042 -0.0373 -1.8837
  144MOL    H6617512   4.023   4.709   7.281 -0.4479 -0.9901  0.2289
  144MOL    H6717513   4.178   4.606   7.397 -1.6048  0.4992 -0.3438
  144MOL    C6817514   4.324   4.775   7.435 -0.2477 -0.4009 -0.0173
  144MOL    C6917515   4.418   4.695   7.537 -1.0009  0.3701 -0.6061
  144MOL   Cl7017516   4.569   4.786   7.568  0.0278  0.1543  0.2359
  144MOL    H7117517   4.320   4.875   7.477 -0.3905 -1.1894  1.9086
  144MOL    H7217518   4.373   4.780   7.338  0.2880 -1.6274  0.1810
  144MOL    H7317519   4.374   4.679   7.636  0.9137 -1.9476 -0.0628
  144MOL    C7417520   4.460   4.551   7.477 -0.6024 -0.3844 -0.3872
  144MOL    C7517521   4.567   4.473   7.557  0.0849  0.6766 -0.5636
  144MOL   Cl7617522   4.605   4.328   7.474  0.0226  0.3593  0.0975
  144MOL    H7717523   4.510   4.578   7.383 -0.2272 -2.5676 -0.8281
  144MOL    H7817524   4.374   4.489   7.452 -0.7613 -0.3121 -0.0280
  144MOL    H7917525   4.650   4.541   7.578 -0.8851  1.7491 -0.1514
  144MOL    C8017526   4.534   4.439   7.704 -0.4344 -0.1824 -0.2593
  144MOL    C8117527   4.401   4.359   7.727  0.1068 -0.2353  0.1747
  144MOL   Cl8217528   4.272   4.471   7.780 -0.0977  0.3336  0.3483
  144MOL    H8317529   4.523   4.532   7.759 -0.2830  0.0379 -0.6070
  144MOL    H8417530   4.615   4.382   7.749 -0.7207 -0.1731  0.2738
  144MOL    H8517531   4.366   4.310   7.636  1.6470 -0.1565 -0.4813
  144MOL    C8617532   4.402   4.252   7.837  0.6538 -0.1289  0.1800
  144MOL    C8717533   4.494   4.131   7.824 -0.6677  0.0295  0.7439
  144MOL   Cl8817534   4.454   4.024   7.677 -0.1126  0.3282  0.0028
  144MOL    H8917535   4.306   4.202   7.829  0.2438  0.9277 -1.6655
  144MOL    H9017536   4.415   4.291   7.938 -1.6397  1.4466 -0.1003
  144MOL    H9117537   4.601   4.152   7.812 -0.9100  1.9191  1.7665
  144MOL    C9217538   4.487   4.045   7.951 -0.7057  0.0857 -0.3783
  144MOL    C9317539   4.586   3.924   7.965  0.1792  0.1641  0.4771
  144MOL   Cl9417540   4.549   3.803   8.099  0.1166 -0.2324  0.0725
  144MOL    H9517541   4.385   4.006   7.948 -0.5182 -0.6054  1.5791
  144MOL    H9617542   4.487   4.100   8.045 -0.7802 -1.1747  0.3752
  144MOL    H9717543   4.583   3.867   7.872  0.7175 -1.0282  1.1695
  144MOL    C9817544   4.729   3.970   7.986 -0.6388 -0.0477 -0.0752
  144MOL    C9917545   4.766   4.038   8.117  0.1649  0.0894 -0.0272
  144MOL  Cl10017546   4.765   4.209   8.077  0.3784 -0.1091  0.2698
  144MOL   H10117547   4.752   4.036   7.902  0.6081 -1.1166 -0.5878
  144MOL   H10217548   4.795   3.884   7.972 -2.2630 -1.4638  0.7345
  144MOL   H10317549   4.689   4.019   8.191  1.8166  1.6193  2.1298
  144MOL   C10417550   4.898   3.998   8.176  0.0171  0.3523  0.1091
  144MOL   C10517551   4.883   3.856   8.234  0.1716 -0.4669 -0.1451
  144MOL  Cl10617552   4.770   3.849   8.380 -0.0277 -0.0419  0.0931
  144MOL   H10717553   4.918   4.071   8.254 -0.2498  0.6605 -0.1051
  144MOL   H10817554   4.967   3.997   8.091  0.2984  1.1087  0.3289
  144MOL   H10917555   4.831   3.782   8.172 -1.0939 -0.6267  1.0678
  144MOL   C11017556   5.016   3.799   8.276  0.1026 -0.7123 -0.2588
  144MOL   C11117557   5.118   3.752   8.167 -0.1107 -0.6214  0.7090
  144MOL  Cl11217558   5.042   3.606   8.105 -0.0849  0.1883  0.0412
  144MOL   H11317559   4.992   3.727   8.355  0.2833 -1.1967 -0.6464
  144MOL   H11417560   5.060   3.885   8.326 -1.3210 -0.2771  0.2785
  144MOL   H11517561   5.136   3.833   8.095 -0.9598  0.2497  1.4525
  144MOL   C11617562   5.246   3.697   8.231 -0.1468 -0.1975  0.4975
  144MOL   C11717563   5.358   3.662   8.136  0.1241 -0.1260  0.4127
  144MOL  Cl11817564   5.425   3.811   8.068  0.0692  0.1789  0.0963
  144MOL   H11917565   5.201   3.612   8.282 -0.9110  0.7510  1.4300
  144MOL   H12017566   5.291   3.762   8.306  0.0518  1.0485 -0.6862
  144MOL   H12117567   5.436   3.593   8.169 -0.2839 -1.0997 -0.6419
  144MOL   H12217568   5.331   3.608   8.046  0.6072  1.4692 -0.7042
  145MOL     C117569   7.929   8.130   0.639  0.3798 -0.6348 -0.1692
  145MOL     C217570   7.985   8.234   0.736 -0.9902 -0.7923  0.0923
  145MOL    Cl317571   7.970   8.394   0.649  0.1736 -0.0794  0.5253
  145MOL     H417572   8.004   8.124   0.561  0.1450  2.3268 -0.6851
  145MOL     H517573   7.916   8.028   0.677 -0.2256 -1.1562 -1.7519
  145MOL     H617574   7.927   8.246   0.828 -1.4624 -0.2487 -0.2734
  145MOL     H717575   7.835   8.163   0.596  0.0567  0.6193  1.4519
  145MOL     C817576   8.138   8.219   0.766 -0.0430  0.3678  0.1901
  145MOL     C917577   8.184   8.277   0.902  0.6601  0.0081 -0.0188
  145MOL   Cl1017578   8.108   8.178   1.023  0.2351 -0.1651 -0.5867
  145MOL    H1117579   8.197   8.275   0.693  2.2340 -0.9793  0.9475
  145MOL    H1217580   8.167   8.115   0.751 -2.2592 -0.5298  1.6995
  145MOL    H1317581   8.288   8.253   0.925  1.5600  3.1839 -0.5294
  145MOL    C1417582   8.138   8.424   0.926  0.0155 -0.0052 -0.0630
  145MOL    C1517583   8.225   0.004   0.844 -0.7159  0.1026  0.0543
  145MOL   Cl1617584   8.394   8.491   0.891  0.2113  0.1453 -0.1366
  145MOL    H1717585   8.164   8.443   1.030  0.9050  0.1971 -0.3176
  145MOL    H1817586   8.029   8.430   0.919 -0.1957 -1.7063  1.6569
  145MOL    H1917587   8.216   8.497   0.741  1.6963 -1.8416  0.3929
  145MOL    C2017588   8.200   0.150   0.873  0.1292  0.3348 -0.2576
  145MOL    C2117589   8.284   0.244   0.778 -0.6532 -0.4421  0.4875
  145MOL   Cl2217590   8.260   0.417   0.819 -0.4459  0.6019  0.1968
  145MOL    H2317591   8.246   0.168   0.970  0.6171 -1.4821 -0.1334
  145MOL    H2417592   8.093   0.173   0.871  0.0845  0.1214 -0.2668
  145MOL    H2517593   8.390   0.219   0.787 -0.6069 -1.8784 -3.1475
  145MOL    C2617594   8.257   0.227   0.626  0.0985  0.1618  0.5315
  145MOL    C2717595   8.343   0.310   0.532 -0.3794  0.0464 -0.1315
  145MOL   Cl2817596   8.292   0.270   0.369  0.0511 -0.4774  0.5207
  145MOL    H2917597   8.150   0.233   0.605  0.3003 -0.9655 -0.8326
  145MOL    H3017598   8.286   0.123   0.608 -0.7444  0.4079 -2.5137
  145MOL    H3117599   8.316   0.414   0.548 -0.9957 -0.1956  0.4214
  145MOL    C3217600   8.494   0.294   0.529 -0.1750  0.3621 -0.6397
  145MOL    C3317601   0.064   0.392   0.450 -0.2068 -0.3096  1.1532
  145MOL   Cl3417602   0.216   0.297   0.437  0.1139  0.0835 -0.1854
  145MOL    H3517603   8.519   0.194   0.495  0.1560  0.7015 -1.4001
  145MOL    H3617604   0.004   0.281   0.631  0.1577  0.9637 -0.6766
  145MOL    H3717605   0.023   0.394   0.349 -0.1929  1.4016  1.1697
  145MOL    C3817606   0.093   0.535   0.500  0.6583 -0.0569 -0.1722
  145MOL    C3917607   8.497   0.630   0.501 -0.0845  0.0720 -0.2987
  145MOL   Cl4017608   8.412   0.641   0.342  0.0718 -0.3575  0.4520
  145MOL    H4117609   0.173   0.582   0.442  1.7992 -0.8080  0.7555
  145MOL    H4217610   0.122   0.518   0.604 -0.7503 -0.3419  0.1812
  145MOL    H4317611   8.421   0.578   0.558  1.5240 -2.4689 -0.4209
  145MOL    C4417612   8.511   0.775   0.557  0.4444  0.2720  0.3552
  145MOL    C4517613   0.068   0.796   0.694 -0.2983 -0.9670  0.5635
  145MOL   Cl4617614   8.501   0.730   0.822  0.1296 -0.2619  0.3076
  145MOL    H4717615   8.420   0.834   0.557  1.2856  1.7152 -3.0804
  145MOL    H4817616   0.053   0.818   0.482  0.7961  0.1164  0.5767
  145MOL    H4917617   0.168   0.752   0.691  1.4908  2.9371 -0.4212
  145MOL    C5017618   0.093   0.945   0.723  0.1101  0.0141 -0.1565
  145MOL    C5117619   0.176   1.030   0.621 -0.2053 -0.1329  0.0214
  145MOL   Cl5217620   0.329   0.942   0.601 -0.0510 -0.1992  0.3872
  145MOL    H5317621   0.143   0.941   0.820  0.5422 -0.3471 -0.3891
  145MOL    H5417622   8.521   0.989   0.743  0.2239 -0.2643  1.0684
  145MOL    H5517623   0.136   1.025   0.520  2.4493 -2.2095 -1.0174
  145MOL    C5617624   0.204   1.169   0.673 -0.1774  0.0124  0.0534
  145MOL    C5717625   0.092   1.275   0.646 -0.0861 -0.4936  0.3592
  145MOL   Cl5817626   0.045   1.278   0.468 -0.0421 -0.2322 -0.2844
  145MOL    H5917627   0.293   1.211   0.626  1.6071 -1.7695  1.7718
  145MOL    H6017628   0.229   1.155   0.778  2.0453  1.7376 -0.2102
  145MOL    H6117629   0.004   1.241   0.701  0.4635 -0.7159  1.1115
  145MOL    C6217630   0.152   1.416   0.686  0.3782  0.5687 -0.4332
  145MOL    C6317631   0.057   1.533   0.676  0.3959 -0.1082  0.4749
  145MOL   Cl6417632   0.144   1.667   0.753 -0.1391  0.2489 -0.5625
  145MOL    H6517633   0.233   1.435   0.616  0.5020 -0.8988 -0.6998
  145MOL    H6617634   0.205   1.406   0.781  2.2273  1.7333 -1.3134
  145MOL    H6717635   0.043   1.560   0.571  0.8536  1.1190  0.7236
  145MOL    C6817636   8.454   1.504   0.754  0.5225  0.7374 -0.3807
  145MOL    C6917637   8.353   1.625   0.747  0.3389 -0.0194 -0.1514
  145MOL   Cl7017638   8.226   1.560   0.856 -0.5798 -0.1927 -0.2935
  145MOL    H7117639   8.480   1.484   0.858 -1.0692  0.5654 -0.0020
  145MOL    H7217640   8.406   1.411   0.722  2.3153 -0.4511  0.3569
  145MOL    H7317641   8.405   1.705   0.801 -0.5064 -1.5459  3.0291
  145MOL    C7417642   8.283   1.664   0.615 -0.6896  0.0209  0.2812
  145MOL    C7517643   8.198   1.795   0.614 -0.1172 -0.0852 -0.0038
  145MOL   Cl7617644   8.299   1.936   0.665  0.2812 -0.1364  0.0241
  145MOL    H7717645   8.223   1.582   0.576  0.0079 -0.3120 -0.1274
  145MOL    H7817646   8.359   1.675   0.536 -0.5766 -1.9560  0.0987
  145MOL    H7917647   8.179   1.808   0.508  0.4325  1.2238  0.0415
  145MOL    C8017648   8.070   1.786   0.708  0.0121  0.6497 -0.0071
  145MOL    C8117649   7.951   1.871   0.661  0.2247  0.3973  0.1232
  145MOL   Cl8217650   7.884   1.793   0.504 -0.2028  0.2770 -0.0063
  145MOL    H8317651   8.097   1.796   0.813 -2.7041 -0.7029  0.8806
  145MOL    H8417652   8.040   1.682   0.696 -1.3728  1.0549 -0.1752
  145MOL    H8517653   7.870   1.840   0.727 -1.0707 -0.4254 -1.8071
  145MOL    C8617654   7.967   2.020   0.625  0.0337 -0.4090  0.1142
  145MOL    C8717655   7.999   2.111   0.746  0.3442 -0.1593 -0.1041
  145MOL   Cl8817656   7.866   2.103   0.866  0.0707  0.1342 -0.1024
  145MOL    H8917657   7.879   2.068   0.581  0.3755  0.2430  0.1254
  145MOL    H9017658   8.044   2.042   0.551  0.0578  1.2491  0.5998
  145MOL    H9117659   8.084   2.068   0.799  0.5729 -0.8510 -1.0223
  145MOL    C9217660   8.013   2.256   0.702  0.2644 -0.1477  0.1158
  145MOL    C9317661   8.075   2.361   0.797  0.4365 -0.1617 -0.7576
  145MOL   Cl9417662   8.247   2.320   0.826 -0.4871  0.0172  0.0385
  145MOL    H9517663   7.926   2.307   0.661  1.0543  1.3834  0.3015
  145MOL    H9617664   8.064   2.257   0.605  1.0443  0.7531  0.5276
  145MOL    H9717665   8.079   2.459   0.750  0.8752  0.9246  1.5217
  145MOL    C9817666   8.010   2.386   0.943  0.0094 -0.6545 -0.1142
  145MOL    C9917667   8.085   2.488   1.039  0.4414 -0.6007 -0.7278
  145MOL  Cl10017668   7.999   2.494   1.195  0.1146 -0.0575 -0.2254
  145MOL   H10117669   8.011   2.288   0.990 -1.9870 -0.9110 -0.5815
  145MOL   H10217670   7.909   2.422   0.925 -0.1985 -0.8599  0.6469
  145MOL   H10317671   8.175   2.430   1.056 -0.4030 -2.1922 -1.5889
  145MOL   C10417672   8.118   2.624   0.975 -0.1504  0.0563  0.2256
  145MOL   C10517673   8.012   2.730   0.959 -0.2446  0.3484  0.4895
  145MOL  Cl10617674   7.883   2.680   0.844 -0.0639 -0.1202 -0.0858
  145MOL   H10717675   8.189   2.623   0.892  0.6338  0.9593  0.8791
  145MOL   H10817676   8.184   2.664   1.052  0.5222 -0.7752  0.0909
  145MOL   H10917677   7.963   2.739   1.056 -2.4029 -1.1006 -0.4304
  145MOL   C11017678   8.068   2.866   0.918 -1.4392  0.3035  0.2000
  145MOL   C11117679   7.971   2.979   0.906  0.2699 -0.6749  0.0379
  145MOL  Cl11217680   8.023   3.130   0.822 -0.0763  0.1889 -0.1254
  145MOL   H11317681   8.110   2.845   0.820 -1.6924 -2.8583  0.7126
  145MOL   H11417682   8.154   2.888   0.982 -0.4393  1.9537 -1.6860
  145MOL   H11517683   7.883   2.952   0.849  0.6657  0.1479 -0.9889
  145MOL   C11617684   7.927   3.020   1.046 -0.5901  0.3468 -0.4453
  145MOL   C11717685   7.810   3.108   1.050  0.2071 -0.0506 -0.3124
  145MOL  Cl11817686   7.762   3.129   1.217  0.1757 -0.0616  0.0935
  145MOL   H11917687   8.010   3.067   1.099 -0.6445 -0.0741  0.0097
  145MOL   H12017688   7.892   2.935   1.104 -0.2988  0.7236  0.2805
  145MOL   H12117689   7.819   3.212   1.017  1.1050 -0.3247 -0.9444
  145MOL   H12217690   7.729   3.054   1.000 -1.6798  2.6110 -0.2722
  146MOL     C117691   3.924   6.183   0.717  0.4943  0.7404 -0.0045
  146MOL     C217692   4.050   6.248   0.669  0.1497  0.0323  0.2368
  146MOL    Cl317693   4.079   6.389   0.770  0.3699  0.1332 -0.0880
  146MOL     H417694   3.925   6.126   0.810 -1.0448 -1.4064 -1.2793
  146MOL     H517695   3.840   6.253   0.721 -0.7306 -0.7276  0.2136
  146MOL     H617696   4.137   6.191   0.701  1.6476  1.9249 -0.3689
  146MOL     H717697   3.895   6.109   0.643 -0.3520  1.2027 -0.1390
  146MOL     C817698   4.056   6.290   0.515 -0.6895  0.3429 -0.5047
  146MOL     C917699   4.196   6.290   0.460 -0.3802 -1.2833  0.6225
  146MOL   Cl1017700   4.255   6.458   0.473  0.4199  0.0385 -0.2245
  146MOL    H1117701   4.003   6.383   0.497 -0.8307  0.7873  1.9647
  146MOL    H1217702   3.993   6.216   0.464 -0.6480  0.7529 -1.1490
  146MOL    H1317703   4.255   6.233   0.531  1.1825  1.9188  2.0184
  146MOL    C1417704   4.205   6.225   0.314  0.1824 -0.1482 -0.2711
  146MOL    C1517705   4.348   6.183   0.277  0.7679  0.9105  0.9027
  146MOL   Cl1617706   4.341   6.136   0.102 -0.3528  0.2394  0.2060
  146MOL    H1717707   4.158   6.291   0.241  1.1960 -0.4960 -1.2675
  146MOL    H1817708   4.142   6.137   0.308  0.4040 -0.2475 -1.4303
  146MOL    H1917709   4.415   6.270   0.279  0.6593  0.9886  1.3231
  146MOL    C2017710   4.409   6.061   0.361 -0.4131  0.3199  0.5647
  146MOL    C2117711   4.556   6.025   0.328  0.3904 -0.5395  0.2318
  146MOL   Cl2217712   4.587   5.850   0.377 -0.4004  0.0338 -0.2493
  146MOL    H2317713   4.350   5.972   0.335  1.9424 -0.8751 -0.8213
  146MOL    H2417714   4.399   6.065   0.469  0.6094 -0.5356  0.6997
  146MOL    H2517715   4.576   6.026   0.221 -0.2129 -3.7239  0.0248
  146MOL    C2617716   4.649   6.127   0.398  0.3931 -0.0571  0.1189
  146MOL    C2717717   4.801   6.095   0.379 -0.2436  0.0582  0.3381
  146MOL   Cl2817718   4.880   6.181   0.506 -0.0234 -0.3303 -0.0747
  146MOL    H2917719   4.633   6.123   0.506  1.0788 -2.2932  0.1709
  146MOL    H3017720   4.615   6.229   0.383 -0.6208 -0.2758  0.8955
  146MOL    H3117721   4.807   5.988   0.397  2.4508  0.0523 -0.4110
  146MOL    C3217722   4.849   6.139   0.240  0.3183  0.0950 -0.0566
  146MOL    C3317723   4.984   6.070   0.197  0.4669  0.0889  0.5723
  146MOL   Cl3417724   5.122   6.154   0.283 -0.2018  0.1964 -0.3674
  146MOL    H3517725   4.850   6.248   0.245 -0.9184  0.0217  3.0002
  146MOL    H3617726   4.774   6.122   0.162 -0.3768  2.2255  0.1119
  146MOL    H3717727   4.985   5.965   0.227  0.5719  0.3479  1.4871
  146MOL    C3817728   5.011   6.082   0.048  0.2633 -0.5126  0.7029
  146MOL    C3917729   5.149   6.044   8.519  0.3656 -0.0026  0.0421
  146MOL   Cl4017730   5.161   6.049   8.336 -0.3634  0.4187  0.1957
  146MOL    H4117731   4.986   6.183   0.014 -2.7823 -1.8466 -1.2058
  146MOL    H4217732   4.937   6.023   8.519 -1.4428  2.0228  0.1693
  146MOL    H4317733   5.225   6.111   0.036  0.4212 -1.2264  1.9473
  146MOL    C4417734   5.206   5.908   0.035  0.2914  0.5235 -0.9993
  146MOL    C4517735   5.351   5.860   8.512  0.9164 -0.3951  0.0988
  146MOL   Cl4617736   5.385   5.700   0.061  0.0665  0.0695  0.0361
  146MOL    H4717737   5.132   5.837   8.523  0.8130 -0.7663  0.3769
  146MOL    H4817738   5.210   5.891   0.143  3.0549  0.1482 -1.1231
  146MOL    H4917739   5.350   5.866   8.403  1.0229  1.6392  0.1864
  146MOL    C5017740   5.454   5.962   0.044 -0.2835 -0.0859  0.3516
  146MOL    C5117741   5.605   5.947   0.007  0.3286 -0.2044 -0.1160
  146MOL   Cl5217742   5.713   6.065   0.081  0.1823  0.0037  0.1814
  146MOL    H5317743   5.438   5.960   0.152 -0.7654  2.7226  0.3563
  146MOL    H5417744   5.431   6.061   0.006  0.8160 -1.2687 -3.6321
  146MOL    H5517745   5.643   5.855   0.050  0.7497  0.6852  1.4211
  146MOL    C5617746   5.629   5.941   8.380 -0.1220 -0.6240  0.0476
  146MOL    C5717747   5.634   6.077   8.295  0.3804 -0.2340  0.2536
  146MOL   Cl5817748   5.470   6.127   8.245  0.3529 -0.1121  0.3079
  146MOL    H5917749   5.562   5.870   8.331  0.6178 -0.8001 -0.7180
  146MOL    H6017750   5.718   5.878   8.378 -1.5029 -2.5412 -2.0347
  146MOL    H6117751   5.668   6.157   8.361  0.7288 -0.4851  0.3810
  146MOL    C6217752   5.728   6.073   8.175 -0.0744  0.5365 -0.3096
  146MOL    C6317753   5.881   6.059   8.214  0.6029  0.3577  0.1603
  146MOL   Cl6417754   5.929   6.188   8.330 -0.3588  0.3471  0.0907
  146MOL    H6517755   5.720   6.160   8.110 -0.7626  2.2757  2.0217
  146MOL    H6617756   5.694   5.996   8.105  1.6698 -0.7808  0.2540
  146MOL    H6717757   5.905   5.961   8.254 -1.8083 -0.6415 -0.7170
  146MOL    C6817758   5.962   6.068   8.090 -0.2850 -0.7887  0.3903
  146MOL    C6917759   6.103   6.009   8.099 -1.0145 -0.0990  0.5526
  146MOL   Cl7017760   6.210   6.081   7.980 -0.2587  0.0326  0.0300
  146MOL    H7117761   5.965   6.173   8.062  0.6695 -0.3818  1.9292
  146MOL    H7217762   5.920   6.018   8.003  1.2440 -0.4808 -0.5392
  146MOL    H7317763   6.139   6.028   8.200  1.7171 -1.1658 -0.1720
  146MOL    C7417764   6.108   5.858   8.068 -1.2918 -0.3634  0.4756
  146MOL    C7517765   6.247   5.784   8.066 -0.5023  0.2477 -0.8106
  146MOL   Cl7617766   6.228   5.623   8.007 -0.2636 -0.0363 -0.7661
  146MOL    H7717767   6.067   5.838   7.969  2.9295 -0.8973 -1.2616
  146MOL    H7817768   6.055   5.807   8.149  0.6261 -0.9188  1.4037
  146MOL    H7917769   6.326   5.827   8.004  0.4428 -0.5468 -0.1724
  146MOL    C8017770   6.288   5.765   8.207  0.2450  0.1350 -0.0771
  146MOL    C8117771   6.445   5.751   8.246  0.3269  0.0684 -0.0299
  146MOL   Cl8217772   6.528   5.890   8.157 -0.0018 -0.0035  0.0184
  146MOL    H8317773   6.242   5.679   8.255  0.5888  0.3598  0.6714
  146MOL    H8417774   6.259   5.854   8.263 -1.7163 -0.3356 -0.3196
  146MOL    H8517775   6.454   5.774   8.352  0.4587 -2.1896  0.4716
  146MOL    C8617776   6.522   5.623   8.208  0.0315  0.5864 -0.5861
  146MOL    C8717777   6.456   5.496   8.267 -0.3330  0.5432  0.2210
  146MOL   Cl8817778   6.432   5.520   8.445 -0.2556 -0.4752 -0.1016
  146MOL    H8917779   6.625   5.625   8.244 -0.1049  0.6110 -0.1935
  146MOL    H9017780   6.532   5.618   8.100 -0.1586  0.1026 -0.5823
  146MOL    H9117781   6.357   5.486   8.223  0.2432 -0.9592 -0.7464
  146MOL    C9217782   6.525   5.358   8.234 -0.5762 -0.3114 -0.1436
  146MOL    C9317783   6.458   5.232   8.279  0.1343  0.1557 -0.5274
  146MOL   Cl9417784   6.558   5.098   8.220  0.2122  0.0296 -0.1260
  146MOL    H9517785   6.627   5.355   8.273  0.0402 -1.6515 -1.7858
  146MOL    H9617786   6.533   5.349   8.126  0.3857 -2.0056  0.0379
  146MOL    H9717787   6.453   5.212   8.386  0.3162 -2.1783 -0.9231
  146MOL    C9817788   6.315   5.211   8.245  0.2452 -0.6263  0.0505
  146MOL    C9917789   6.256   5.071   8.266  0.1478 -0.2161  0.1126
  146MOL  Cl10017790   6.084   5.066   8.231 -0.0215 -0.4514  0.4112
  146MOL   H10117791   6.298   5.225   8.138 -0.8469 -2.2884 -0.0167
  146MOL   H10217792   6.254   5.290   8.290  2.9628  0.5707  1.7027
  146MOL   H10317793   6.296   5.011   8.185 -2.1000  0.8426 -1.8369
  146MOL   C10417794   6.285   5.002   8.406  0.3507 -0.0913 -1.0136
  146MOL   C10517795   6.206   5.030   0.009 -0.3041  0.9030  1.0290
  146MOL  Cl10617796   6.232   5.194   0.060 -0.2004 -0.2833  0.2096
  146MOL   H10717797   6.392   4.993   8.425  0.9570  2.3589 -3.0023
  146MOL   H10817798   6.262   4.897   8.391  0.4541 -0.0465 -1.4850
  146MOL   H10917799   6.100   5.019   8.511 -0.4775  0.8969  1.7990
  146MOL   C11017800   6.250   4.945   0.133  0.5657  0.1251  0.0158
  146MOL   C11117801   6.236   4.792   0.118  0.2152  0.0675  0.7713
  146MOL  Cl11217802   6.075   4.760   0.046 -0.2253 -0.0062 -0.2753
  146MOL   H11317803   6.197   4.973   0.224  0.5711 -0.7965  0.3071
  146MOL   H11417804   6.354   4.964   0.159  1.2036 -3.0661 -0.0028
  146MOL   H11517805   6.306   4.750   0.045 -0.4147 -0.4045  0.4380
  146MOL   C11617806   6.255   4.723   0.251 -0.0363  0.8288  0.1155
  146MOL   C11717807   6.269   4.566   0.241  0.5959  0.8032 -0.0050
  146MOL  Cl11817808   6.429   4.525   0.170  0.4325  0.0796  0.1418
  146MOL   H11917809   6.167   4.748   0.310 -0.2001 -0.5023  0.4465
  146MOL   H12017810   6.344   4.758   0.304  0.5022 -2.3120  1.3920
  146MOL   H12117811   6.262   4.524   0.341  0.5693  1.5038  0.2879
  146MOL   H12217812   6.194   4.513   0.182  0.4664  0.9190  0.0562
  147MOL     C117813   6.680   4.949   3.164 -1.1787  1.1733 -0.2475
  147MOL     C217814   6.569   4.971   3.060 -0.3946 -0.1740 -0.6351
  147MOL    Cl317815   6.428   4.881   3.123  0.0083  0.0956 -0.5123
  147MOL     H417816   6.648   4.976   3.265 -1.4343  3.7214 -0.9721
  147MOL     H517817   6.702   4.842   3.156 -0.6715  1.2844 -0.3422
  147MOL     H617818   6.542   5.077   3.059 -0.3072 -0.1277  0.4134
  147MOL     H717819   6.778   4.993   3.148 -0.1609 -0.9638 -0.1033
  147MOL     C817820   6.602   4.931   2.916  0.2533  0.3250  0.3475
  147MOL     C917821   6.494   4.946   2.809  0.1647  0.3873  0.0377
  147MOL   Cl1017822   6.542   4.859   2.663  0.3142  0.0690  0.1999
  147MOL    H1117823   6.637   4.828   2.908 -0.2522 -0.0264  2.3331
  147MOL    H1217824   6.685   4.996   2.889 -0.1064  0.3002 -0.8574
  147MOL    H1317825   6.411   4.892   2.855 -0.7461 -0.0881 -2.1348
  147MOL    C1417826   6.456   5.097   2.785  0.6835 -0.8045  1.4230
  147MOL    C1517827   6.313   5.132   2.730  0.2776 -0.0923  0.1529
  147MOL   Cl1617828   6.196   5.106   2.864 -0.0973  0.1117 -0.1191
  147MOL    H1717829   6.543   5.134   2.730 -1.1005 -0.2233 -1.1213
  147MOL    H1817830   6.471   5.163   2.870  1.3941  2.4757 -1.0987
  147MOL    H1917831   6.297   5.239   2.733 -0.5576 -0.2226  0.8362
  147MOL    C2017832   6.263   5.066   2.600 -0.2841  0.1920 -0.6411
  147MOL    C2117833   6.354   5.084   2.474  0.4296  0.4607  0.0749
  147MOL   Cl2217834   6.358   5.255   2.425  0.1573 -0.6299  0.0415
  147MOL    H2317835   6.162   5.105   2.591 -1.2233 -1.7207  1.0048
  147MOL    H2417836   6.256   4.959   2.622  1.1789  0.3818  0.9257
  147MOL    H2517837   6.458   5.059   2.496  0.1407 -0.0880  0.8302
  147MOL    C2617838   6.312   4.996   2.359  0.1925 -0.7281  0.5685
  147MOL    C2717839   6.169   5.002   2.308 -0.3421  0.1654 -0.5963
  147MOL   Cl2817840   6.053   4.915   2.416  0.2107 -0.2471  0.0814
  147MOL    H2917841   6.342   4.892   2.376 -1.4043 -1.4212 -0.6709
  147MOL    H3017842   6.382   5.028   2.282 -1.0401  0.3932 -0.1050
  147MOL    H3117843   6.147   5.108   2.313  0.4627  0.2391  2.0015
  147MOL    C3217844   6.151   4.960   2.160 -1.0372  0.6683 -0.1048
  147MOL    C3317845   6.053   5.054   2.087  0.2233 -0.2669 -0.8126
  147MOL   Cl3417846   5.891   5.064   2.173 -0.2241 -0.1553 -0.0053
  147MOL    H3517847   6.102   4.863   2.151  0.1923  0.1527 -1.3354
  147MOL    H3617848   6.248   4.961   2.111 -0.6773  1.6435  0.6185
  147MOL    H3717849   6.090   5.157   2.080 -0.6342  0.0541 -0.6979
  147MOL    C3817850   6.017   5.008   1.946  0.0983 -0.3739 -0.1576
  147MOL    C3917851   6.139   4.989   1.856 -0.8681  0.0092  0.1349
  147MOL   Cl4017852   6.261   5.120   1.867 -0.3364 -0.3190  0.2202
  147MOL    H4117853   5.949   5.076   1.895  0.6546  0.8074  0.6575
  147MOL    H4217854   5.961   4.914   1.943  0.4426 -0.5923  0.1514
  147MOL    H4317855   6.189   4.895   1.877  1.6112  1.6439  1.8726
  147MOL    C4417856   6.104   4.975   1.710  0.6463 -0.0160  0.1770
  147MOL    C4517857   6.215   4.944   1.606 -0.0845 -0.3403  0.9656
  147MOL   Cl4617858   6.165   4.999   1.443  0.0432  0.1777 -0.1813
  147MOL    H4717859   6.067   5.074   1.683  2.5284  0.5022 -0.6338
  147MOL    H4817860   6.021   4.905   1.697 -0.0853  1.1560 -1.7470
  147MOL    H4917861   6.302   4.996   1.645 -0.4636 -0.0376  1.4172
  147MOL    C5017862   6.229   4.792   1.614 -0.0930 -0.1031 -0.2262
  147MOL    C5117863   6.322   4.731   1.498  0.2057 -0.2784 -0.8460
  147MOL   Cl5217864   6.346   4.553   1.533  0.1297  0.1023  0.1355
  147MOL    H5317865   6.138   4.731   1.611  0.6081 -1.3128  2.0860
  147MOL    H5417866   6.279   4.774   1.709  0.2090 -1.0451 -0.5601
  147MOL    H5517867   6.276   4.738   1.399  2.1802  0.2914 -1.7401
  147MOL    C5617868   6.465   4.799   1.486  0.5307 -0.0925 -0.5148
  147MOL    C5717869   6.541   4.745   1.362 -0.0436  1.0148  0.3387
  147MOL   Cl5817870   6.712   4.795   1.357  0.1466  0.2504 -0.4070
  147MOL    H5917871   6.520   4.784   1.579  0.6750 -0.0327 -0.5890
  147MOL    H6017872   6.457   4.907   1.472  0.2266 -0.1904 -1.0727
  147MOL    H6117873   6.545   4.637   1.377  2.3393  0.8857 -0.9826
  147MOL    C6217874   6.499   4.770   1.215 -0.6259  0.4364  0.4749
  147MOL    C6317875   6.572   4.686   1.103  0.8500 -0.8392 -0.2612
  147MOL   Cl6417876   6.505   4.748   0.950  0.2965  0.2204  0.4318
  147MOL    H6517877   6.517   4.868   1.172 -2.4068  0.3796 -0.4469
  147MOL    H6617878   6.392   4.768   1.196 -0.7237 -0.6454  1.0863
  147MOL    H6717879   6.677   4.713   1.103  0.1384  2.0859 -1.1230
  147MOL    C6817880   6.555   4.526   1.095 -0.4799 -0.0372 -0.2160
  147MOL    C6917881   6.671   4.456   1.174  0.1343  0.1850 -1.1336
  147MOL   Cl7017882   6.812   4.477   1.073 -0.0439 -0.2298 -0.2837
  147MOL    H7117883   6.556   4.497   0.990 -1.4120  2.1259 -0.8497
  147MOL    H7217884   6.456   4.494   1.129 -0.2200 -1.3098 -0.6359
  147MOL    H7317885   6.704   4.517   1.258  2.4668 -0.4522 -1.5339
  147MOL    C7417886   6.644   4.309   1.209 -0.1568 -0.7482 -0.1746
  147MOL    C7517887   6.535   4.292   1.313 -0.1230 -0.1864 -0.2728
  147MOL   Cl7617888   6.579   4.375   1.461  0.0371 -0.1711 -0.0657
  147MOL    H7717889   6.744   4.268   1.227  0.2271  0.5047  0.6483
  147MOL    H7817890   6.620   4.250   1.121 -0.2635  1.4995 -1.6880
  147MOL    H7917891   6.442   4.329   1.270 -0.1759 -1.3694 -1.1842
  147MOL    C8017892   6.499   4.151   1.361 -0.1259  0.0622  0.3085
  147MOL    C8117893   6.445   4.051   1.264  0.2352 -0.5202 -0.3961
  147MOL   Cl8217894   6.285   4.125   1.202  0.0833 -0.2924 -0.3518
  147MOL    H8317895   6.432   4.163   1.446 -0.1411 -3.1449  0.8376
  147MOL    H8417896   6.588   4.111   1.410  0.5618  0.9408 -0.2205
  147MOL    H8517897   6.519   4.040   1.184  0.7222  1.0733 -0.1851
  147MOL    C8617898   6.404   3.919   1.327 -0.5682 -0.1959 -0.3173
  147MOL    C8717899   6.511   3.855   1.417  0.0119 -0.2500  0.0558
  147MOL   Cl8817900   6.649   3.820   1.315 -0.0055  0.3179  0.1871
  147MOL    H8917901   6.364   3.858   1.247 -2.0411  0.2204  0.0840
  147MOL    H9017902   6.321   3.947   1.393  0.0076  0.3466  0.1909
  147MOL    H9117903   6.545   3.925   1.494 -0.4177 -0.8228  0.7764
  147MOL    C9217904   6.459   3.726   1.492  0.9258 -0.0897  0.2456
  147MOL    C9317905   6.558   3.673   1.603  0.5125 -0.3661  0.6883
  147MOL   Cl9417906   6.508   3.514   1.670 -0.2842  0.0130 -0.0056
  147MOL    H9517907   6.440   3.643   1.424 -1.9261  0.1856  0.6477
  147MOL    H9617908   6.364   3.738   1.543  0.5375  1.9867 -0.8916
  147MOL    H9717909   6.658   3.667   1.560  1.6101 -0.2592  3.1561
  147MOL    C9817910   6.569   3.763   1.721  0.6225 -0.2183 -0.5643
  147MOL    C9917911   6.693   3.735   1.807 -0.9082  0.2065  0.8788
  147MOL  Cl10017912   6.662   3.818   1.964  0.0540 -0.0480  0.1822
  147MOL   H10117913   6.473   3.754   1.772  0.3943  0.0030 -0.9391
  147MOL   H10217914   6.587   3.865   1.687  0.4936 -0.5559 -1.6739
  147MOL   H10317915   6.706   3.628   1.821 -0.2607  0.0966 -0.5338
  147MOL   C10417916   6.829   3.791   1.748 -0.3039 -0.3962  0.3019
  147MOL   C10517917   6.957   3.768   1.828  0.1954 -0.2319 -0.2294
  147MOL  Cl10617918   6.962   3.597   1.862 -0.1644 -0.0668 -0.1267
  147MOL   H10717919   6.817   3.896   1.719 -3.5086 -0.2207  1.9862
  147MOL   H10817920   6.838   3.739   1.652 -1.2312 -0.4257  0.2226
  147MOL   H10917921   7.043   3.777   1.762 -0.4823 -0.5208 -1.1680
  147MOL   C11017922   6.976   3.851   1.956 -0.5958  0.1810 -0.5043
  147MOL   C11117923   6.990   4.005   1.937 -0.1120 -0.7392 -0.0315
  147MOL  Cl11217924   7.087   4.056   1.801 -0.0046 -0.5210 -0.1061
  147MOL   H11317925   7.074   3.821   1.994  0.0007 -1.7744 -3.3927
  147MOL   H11417926   6.902   3.833   2.034  0.1558 -2.1135 -0.2647
  147MOL   H11517927   6.888   4.039   1.921 -0.5469 -1.8528  0.2911
  147MOL   C11617928   7.044   4.073   2.066 -0.0542  0.2033  0.6714
  147MOL   C11717929   7.193   4.041   2.111 -0.5824 -0.3768  0.6651
  147MOL  Cl11817930   7.245   4.139   2.251 -0.5219  0.3267  0.0406
  147MOL   H11917931   6.985   4.034   2.149  1.3988  0.6276  1.9148
  147MOL   H12017932   7.014   4.177   2.057 -1.9144 -0.5404 -2.6111
  147MOL   H12117933   7.211   3.935   2.122 -0.9703 -0.6293 -1.0255
  147MOL   H12217934   7.266   4.062   2.032 -1.0555 -3.4476 -0.6276
  148MOL     C117935   2.902   3.321   7.551  0.0624 -0.4305  0.0556
  148MOL     C217936   2.814   3.382   7.436  0.4418  0.6576  0.1605
  148MOL    Cl317937   2.920   3.451   7.312  0.2582 -0.0973 -0.6482
  148MOL     H417938   2.904   3.382   7.641 -4.8687 -0.8377  0.6141
  148MOL     H517939   2.857   3.228   7.588  1.4208 -0.2826  2.1511
  148MOL     H617940   2.763   3.294   7.397  1.0690  0.9356 -1.3063
  148MOL     H717941   2.998   3.297   7.507 -0.7114 -1.1891 -1.2762
  148MOL     C817942   2.707   3.480   7.499  0.4929 -0.3104 -0.1268
  148MOL     C917943   2.593   3.537   7.401  0.1134  0.6268 -0.7836
  148MOL   Cl1017944   2.500   3.411   7.327  0.0898  0.4284  0.0315
  148MOL    H1117945   2.747   3.565   7.555  0.1887  1.0265 -1.9015
  148MOL    H1217946   2.664   3.413   7.573  0.5604 -0.7172 -0.4593
  148MOL    H1317947   2.518   3.595   7.455 -0.7477 -0.5415 -0.7199
  148MOL    C1417948   2.640   3.621   7.281  0.5999 -0.3463  0.3395
  148MOL    C1517949   2.736   3.735   7.315 -0.3248  0.0547 -0.0402
  148MOL   Cl1617950   2.663   3.847   7.434 -0.1749  0.0684 -0.0616
  148MOL    H1717951   2.549   3.659   7.236 -0.6571 -2.7003  0.8288
  148MOL    H1817952   2.692   3.562   7.205  0.2923 -0.3046  0.0971
  148MOL    H1917953   2.825   3.697   7.365 -0.5039 -0.3856 -0.0474
  148MOL    C2017954   2.768   3.815   7.191 -0.1439  0.0804 -0.1877
  148MOL    C2117955   2.856   3.941   7.207  0.0031  0.2563 -0.4917
  148MOL   Cl2217956   2.873   4.010   7.045  0.2325 -0.0899  0.1474
  148MOL    H2317957   2.675   3.854   7.150 -0.2206 -0.5294 -0.6049
  148MOL    H2417958   2.816   3.752   7.115 -0.9104 -2.2815  1.2563
  148MOL    H2517959   2.800   4.020   7.257 -2.7348 -3.4083  2.4892
  148MOL    C2617960   2.997   3.912   7.247 -0.2590 -0.4622  0.1527
  148MOL    C2717961   3.025   3.924   7.396  0.2791 -1.1456 -0.4680
  148MOL   Cl2817962   2.966   4.084   7.457 -0.4308  0.2802  0.2477
  148MOL    H2917963   3.064   3.985   7.201 -1.4656  0.7685  0.3342
  148MOL    H3017964   3.042   3.820   7.210  2.6429  0.3991  1.4009
  148MOL    H3117965   2.957   3.857   7.449 -1.5626  1.7365  0.9429
  148MOL    C3217966   3.164   3.889   7.449 -0.9715  0.3501  0.2385
  148MOL    C3317967   3.197   3.733   7.476  0.2059 -0.1697  0.0877
  148MOL   Cl3417968   3.200   3.656   7.313 -0.3679  0.0069 -0.1319
  148MOL    H3517969   3.178   3.932   7.548  4.0920  2.1790 -1.1099
  148MOL    H3617970   3.245   3.936   7.394 -1.1496  1.7923  1.1903
  148MOL    H3717971   3.298   3.721   7.514 -0.1535  0.5000  1.3125
  148MOL    C3817972   3.090   3.658   7.566 -0.3121  0.6187 -0.0904
  148MOL    C3917973   3.098   3.683   7.721  0.4470  0.2547  0.0932
  148MOL   Cl4017974   3.028   3.541   7.793  0.4500 -0.5878 -0.2630
  148MOL    H4117975   3.127   3.556   7.558  0.1927  0.9299 -2.0172
  148MOL    H4217976   2.987   3.665   7.529  0.0941  0.6152 -1.2494
  148MOL    H4317977   3.205   3.680   7.739  0.6150 -0.6243 -0.9454
  148MOL    C4417978   3.031   3.809   7.781  0.4409 -0.6261 -0.4329
  148MOL    C4517979   3.100   3.856   7.914 -0.5829  0.1365 -0.7028
  148MOL   Cl4617980   3.006   3.790   8.052 -0.0721  0.0725 -0.4295
  148MOL    H4717981   2.924   3.809   7.800  0.2478  1.2322 -1.4018
  148MOL    H4817982   3.044   3.893   7.712 -0.1736  0.5421  0.8451
  148MOL    H4917983   3.199   3.809   7.913 -0.3148  0.7220 -1.7581
  148MOL    C5017984   3.116   4.007   7.926 -0.4470 -0.4105 -0.0746
  148MOL    C5117985   3.224   4.058   8.032  0.4573  0.5227  0.1387
  148MOL   Cl5217986   3.191   4.227   8.072  0.3924  0.3732 -0.1559
  148MOL    H5317987   3.023   4.056   7.953 -0.4962 -0.9300  0.7221
  148MOL    H5417988   3.113   4.052   7.827 -0.4172  0.0041  0.1101
  148MOL    H5517989   3.215   4.005   8.126  2.4076  1.3473  0.8179
  148MOL    C5617990   3.370   4.053   7.979  0.3282  0.4852  0.6458
  148MOL    C5717991   3.478   4.076   8.084 -0.1358 -0.0893  0.2328
  148MOL   Cl5817992   3.633   4.070   7.997  0.1915  0.3223 -0.0789
  148MOL    H5917993   3.386   4.116   7.892  1.0360  0.3368  0.6617
  148MOL    H6017994   3.392   3.950   7.950 -2.7166 -0.2379  0.7673
  148MOL    H6117995   3.462   4.176   8.123 -0.7962  0.1539 -0.6424
  148MOL    C6217996   3.475   3.991   8.216  0.6795  0.6916  0.8467
  148MOL    C6317997   3.511   3.842   8.198 -0.0240 -0.3142  0.2375
  148MOL   Cl6417998   3.373   3.748   8.122 -0.1838 -0.1970  0.5115
  148MOL    H6517999   3.378   3.999   8.265  0.2740 -0.3842  0.2351
  148MOL    H6618000   3.538   4.048   8.284 -0.4842  2.0602  0.8103
  148MOL    H6718001   3.597   3.834   8.132  1.3734  0.1192  1.9532
  148MOL    C6818002   3.559   3.776   8.330 -0.3661 -0.3186 -0.1270
  148MOL    C6918003   3.693   3.824   8.384  0.4028  0.5610  0.2810
  148MOL   Cl7018004   3.809   3.748   8.269  0.6120 -0.2842 -0.0889
  148MOL    H7118005   3.575   3.671   8.306  0.5632  0.1182 -1.5127
  148MOL    H7218006   3.488   3.771   8.413  1.7671 -2.2360  1.6274
  148MOL    H7318007   3.710   3.932   8.381  2.3509  0.3903  2.9802
  148MOL    C7418008   3.713   3.781   0.002  0.3740  0.5263  0.1971
  148MOL    C7518009   3.851   3.784   0.079 -0.2590 -0.1187  0.1614
  148MOL   Cl7618010   3.838   3.756   0.255  0.3169 -0.1596 -0.1397
  148MOL    H7718011   3.681   3.676   0.001  0.2739  0.5612 -1.1113
  148MOL    H7818012   3.640   3.822   0.071 -0.5095  1.3623 -1.2192
  148MOL    H7918013   3.925   3.708   0.055 -1.1248 -0.6025 -1.0868
  148MOL    C8018014   3.925   3.918   0.058 -1.0178 -1.1006 -0.1407
  148MOL    C8118015   4.076   3.900   0.046 -0.0363 -0.1926 -0.5781
  148MOL   Cl8218016   4.148   4.067   0.026 -0.5274 -0.1058  0.2093
  148MOL    H8318017   3.909   3.993   0.135  0.6874 -0.1459 -0.6876
  148MOL    H8418018   3.885   3.972   8.498  1.5586  0.8628 -0.1512
  148MOL    H8518019   4.117   3.861   0.139 -1.5595 -1.0129 -0.2450
  148MOL    C8618020   4.132   3.809   8.457 -0.0198  0.5914  0.8093
  148MOL    C8718021   4.270   3.748   8.495 -0.3818  0.5747  0.3096
  148MOL   Cl8818022   4.335   3.688   8.342  0.1371  0.0443 -0.3268
  148MOL    H8918023   4.141   3.877   8.371 -0.3095  0.5706  0.7631
  148MOL    H9018024   4.064   3.728   8.434  1.7584 -0.2919 -1.5765
  148MOL    H9118025   4.339   3.819   0.015 -1.4074  2.0035 -0.3485
  148MOL    C9218026   4.261   3.621   0.054  0.1816  0.1178 -0.2457
  148MOL    C9318027   4.406   3.587   0.121  0.0449 -0.6743  0.0801
  148MOL   Cl9418028   4.396   3.431   0.199  0.0825  0.4229 -0.0718
  148MOL    H9518029   4.235   3.534   8.519  1.0557 -0.2519 -0.0826
  148MOL    H9618030   4.189   3.635   0.135  0.7334  0.4400  0.1920
  148MOL    H9718031   4.486   3.575   0.048 -1.9567 -2.0054 -1.9660
  148MOL    C9818032   4.434   3.689   0.234 -0.4877 -0.1545  0.0723
  148MOL    C9918033   4.576   3.677   0.298 -0.1524  0.1599 -0.3797
  148MOL  Cl10018034   4.556   3.712   0.474  0.2792 -0.0885 -0.3428
  148MOL   H10118035   4.355   3.670   0.307 -1.1663 -0.1545 -0.6544
  148MOL   H10218036   4.414   3.794   0.211  1.1908  0.4388  1.2741
  148MOL   H10318037   4.613   3.574   0.294  1.5056  0.7397 -0.2435
  148MOL   C10418038   4.677   3.770   0.238  0.2292 -0.5236  0.0323
  148MOL   C10518039   4.814   3.717   0.205  0.1727  0.5190  0.0221
  148MOL  Cl10618040   4.799   3.583   0.086  0.0750  0.0374  0.4017
  148MOL   H10718041   4.683   3.853   0.310 -1.2547  0.2832 -0.7493
  148MOL   H10818042   4.634   3.812   0.147  2.4520  1.7924  0.0030
  148MOL   H10918043   4.862   3.797   0.148  0.2425 -0.1194 -0.8305
  148MOL   C11018044   4.897   3.670   0.328  0.5906  0.4947  0.1826
  148MOL   C11118045   4.969   3.783   0.410 -0.0454  0.0528  0.0802
  148MOL  Cl11218046   5.068   3.892   0.309  0.1302 -0.1107 -0.2656
  148MOL   H11318047   4.961   3.587   0.300  0.9518  1.0100 -0.5467
  148MOL   H11418048   4.828   3.612   0.389  0.2374  0.6027 -0.1111
  148MOL   H11518049   4.900   3.847   0.464  1.3320 -0.2219  2.2360
  148MOL   C11618050   5.056   3.715   0.522  0.2573  0.8171 -0.2223
  148MOL   C11718051   5.121   3.815   0.617  0.0206  0.2319 -0.5247
  148MOL  Cl11818052   5.003   3.903   0.722  0.7118 -0.1947  0.0994
  148MOL   H11918053   5.130   3.655   0.468  0.5137  2.2861 -1.5403
  148MOL   H12018054   4.998   3.642   0.579  0.3866 -0.3886 -1.5912
  148MOL   H12118055   5.185   3.775   0.695 -2.0745  0.3533  1.2867
  148MOL   H12218056   5.183   3.891   0.568  1.9062 -0.0702  1.3275
  149MOL     C118057   5.707   7.468   3.926 -0.3377 -0.2229 -0.4123
  149MOL     C218058   5.719   7.484   3.778 -0.1565  0.3377  0.2504
  149MOL    Cl318059   5.693   7.660   3.754  0.0079  0.3860 -0.0617
  149MOL     H418060   5.769   7.543   3.975  0.0761 -2.7537  3.1649
  149MOL     H518061   5.605   7.479   3.961  0.5323  1.7253  1.6533
  149MOL     H618062   5.824   7.464   3.754  0.0825  1.0088  0.7086
  149MOL     H718063   5.737   7.370   3.964  0.3706  0.4022  0.6549
  149MOL     C818064   5.614   7.418   3.692 -0.1982  0.7000  0.3706
  149MOL     C918065   5.636   7.396   3.541  0.0709  0.4186 -0.3217
  149MOL   Cl1018066   5.786   7.312   3.516 -0.3823 -0.0059  0.1200
  149MOL    H1118067   5.517   7.465   3.704  0.0983  1.6725 -0.9612
  149MOL    H1218068   5.603   7.313   3.719 -0.7660  0.0052 -2.4047
  149MOL    H1318069   5.554   7.339   3.497  0.2469  0.6487 -0.9512
  149MOL    C1418070   5.641   7.523   3.453  0.3618  0.0344  0.3802
  149MOL    C1518071   5.499   7.582   3.436  0.8908  0.1811 -0.9211
  149MOL   Cl1618072   5.388   7.492   3.324 -0.2545  0.2515 -0.2098
  149MOL    H1718073   5.685   7.489   3.360 -0.5669 -0.8708  0.2596
  149MOL    H1818074   5.720   7.587   3.492 -0.4342  1.5872 -0.4923
  149MOL    H1918075   5.446   7.582   3.531  0.0865  1.5424 -1.3530
  149MOL    C2018076   5.514   7.729   3.384  0.4022  0.8226  0.3034
  149MOL    C2118077   5.385   7.811   3.388  0.1026  0.1508 -0.3457
  149MOL   Cl2218078   5.413   7.957   3.292  0.0616  0.1086  0.0593
  149MOL    H2318079   5.567   7.732   3.288 -0.6123 -2.9927 -0.4624
  149MOL    H2418080   5.588   7.776   3.449 -0.3519  0.9098  1.1038
  149MOL    H2518081   5.312   7.751   3.334  0.1242 -0.4774  0.3070
  149MOL    C2618082   5.332   7.849   3.523  0.2160 -0.0583  0.0700
  149MOL    C2718083   5.241   7.971   3.556 -0.1245 -0.1461  0.4819
  149MOL   Cl2818084   5.251   8.017   3.726  0.3749  0.0181 -0.1393
  149MOL    H2918085   5.421   7.864   3.585 -0.3940  1.3008  0.6370
  149MOL    H3018086   5.289   7.757   3.563 -0.6006  0.2722 -0.0341
  149MOL    H3118087   5.287   8.057   3.509  0.5987  0.2829  1.9460
  149MOL    C3218088   5.102   7.977   3.503  0.5485 -0.1452 -0.1211
  149MOL    C3318089   5.089   8.013   3.353  0.3761 -0.4037 -0.5072
  149MOL   Cl3418090   5.113   8.189   3.324  0.5164  0.0289  0.3040
  149MOL    H3518091   5.049   8.050   3.563 -2.6703 -1.2368 -1.5270
  149MOL    H3618092   5.045   7.886   3.522 -1.0410  0.3344 -2.3906
  149MOL    H3718093   5.159   7.963   3.287  2.5663 -1.7621  2.7046
  149MOL    C3818094   4.944   7.970   3.314  0.0871  0.1363  0.1094
  149MOL    C3918095   4.887   7.991   3.170 -0.6644  0.9547  0.5976
  149MOL   Cl4018096   4.724   7.919   3.162 -0.1001 -0.1511 -0.2000
  149MOL    H4118097   4.887   8.036   3.379 -0.0303  0.3254 -0.1811
  149MOL    H4218098   4.929   7.866   3.343  1.2133  0.0051  0.2789
  149MOL    H4318099   4.878   8.094   3.136 -1.1550  0.5142 -0.6718
  149MOL    C4418100   4.977   7.909   3.074  0.1871 -0.5604 -0.0259
  149MOL    C4518101   4.945   7.895   2.926  0.5024  0.1949  0.3061
  149MOL   Cl4618102   5.087   7.799   2.862 -0.5737  0.2181 -0.2197
  149MOL    H4718103   4.986   7.807   3.112 -2.0429 -2.0440 -3.1731
  149MOL    H4818104   5.070   7.965   3.080 -0.4361  0.6517 -1.4101
  149MOL    H4918105   4.854   7.835   2.916  1.3167 -1.3898  2.0491
  149MOL    C5018106   4.923   8.030   2.852  0.1936  0.2303 -1.0587
  149MOL    C5118107   4.914   8.031   2.694 -0.1413  0.0919  0.0146
  149MOL   Cl5218108   4.941   8.200   2.644  0.2792  0.3062 -0.0598
  149MOL    H5318109   5.002   8.095   2.889 -1.5112  1.8542 -0.2075
  149MOL    H5418110   4.822   8.061   2.877  0.3964  0.2458 -0.2439
  149MOL    H5518111   4.991   7.967   2.651 -1.8006 -1.6067 -0.5146
  149MOL    C5618112   4.782   7.970   2.636 -0.6854 -0.2952 -0.5603
  149MOL    C5718113   4.784   7.853   2.528 -0.2911  0.0517  0.5747
  149MOL   Cl5818114   4.808   7.699   2.607 -0.2712 -0.2654  0.0360
  149MOL    H5918115   4.733   8.046   2.575 -0.6821  0.5681  0.5216
  149MOL    H6018116   4.715   7.943   2.718  0.0471 -1.3596 -0.3068
  149MOL    H6118117   4.683   7.847   2.485  0.7599  1.7871 -2.2826
  149MOL    C6218118   4.878   7.876   2.402 -0.0421  0.4642 -0.3164
  149MOL    C6318119   4.853   7.792   2.266 -0.1872 -0.4315  0.0454
  149MOL   Cl6418120   4.681   7.802   2.224  0.4828 -0.1190  0.0204
  149MOL    H6518121   4.982   7.858   2.427 -0.0851  2.1427  1.1620
  149MOL    H6618122   4.868   7.979   2.368 -0.3530  0.6502  0.3216
  149MOL    H6718123   4.909   7.844   2.189  0.0428  0.8094  1.0327
  149MOL    C6818124   4.904   7.651   2.264 -0.1667  0.7607 -0.2998
  149MOL    C6918125   5.054   7.629   2.242 -0.1977 -0.2529 -0.5544
  149MOL   Cl7018126   5.096   7.609   2.073 -0.0209 -0.3605  0.1872
  149MOL    H7118127   4.856   7.594   2.185  1.3333  0.4580 -1.0156
  149MOL    H7218128   4.865   7.601   2.353  1.3381  3.4395  1.9261
  149MOL    H7318129   5.110   7.711   2.286 -1.5414  0.5673 -0.3575
  149MOL    C7418130   5.092   7.495   2.300  0.2597  0.1535 -0.0106
  149MOL    C7518131   5.092   7.477   2.455 -0.5462 -0.1563  0.8791
  149MOL   Cl7618132   5.227   7.573   2.532 -0.0350  0.1460  0.5522
  149MOL    H7718133   5.187   7.455   2.264 -1.4085 -3.0682 -0.9346
  149MOL    H7818134   5.017   7.425   2.262  0.2324  1.4284 -2.4378
  149MOL    H7918135   4.999   7.517   2.495 -1.6965 -0.4671 -1.4331
  149MOL    C8018136   5.088   7.326   2.485 -0.7986 -1.6806 -0.0359
  149MOL    C8118137   5.059   7.296   2.630  0.9126 -0.2829 -0.3010
  149MOL   Cl8218138   5.070   7.116   2.624 -0.4883  0.0483  0.0983
  149MOL    H8318139   5.192   7.299   2.466 -0.6746 -0.3539 -1.3535
  149MOL    H8418140   5.022   7.272   2.417 -2.6574  0.3905  0.0541
  149MOL    H8518141   5.141   7.333   2.692  2.4340 -2.4413 -0.9749
  149MOL    C8618142   4.921   7.358   2.670 -0.2146 -0.1051 -0.2687
  149MOL    C8718143   4.849   7.308   2.802 -0.1720  0.2004  1.3645
  149MOL   Cl8818144   4.694   7.385   2.827 -0.1193  0.1238  0.1123
  149MOL    H8918145   4.850   7.323   2.595 -1.0599 -0.3385  0.6218
  149MOL    H9018146   4.912   7.467   2.675 -2.8001 -0.3107  0.3463
  149MOL    H9118147   4.815   7.205   2.790 -2.3315  0.9343  0.9711
  149MOL    C9218148   4.932   7.306   2.927  0.1367  0.8322 -0.2239
  149MOL    C9318149   4.952   7.447   2.999 -0.6434 -0.3101  0.8804
  149MOL   Cl9418150   5.117   7.489   2.944 -0.2067 -0.1551 -0.1773
  149MOL    H9518151   5.025   7.250   2.920 -1.2387 -1.5714  0.3872
  149MOL    H9618152   4.885   7.244   3.003  1.2943  1.2294  0.8346
  149MOL    H9718153   4.884   7.524   2.961  1.7414  0.4848 -1.9783
  149MOL    C9818154   4.954   7.447   3.152  0.1257  0.0932 -0.0922
  149MOL    C9918155   4.816   7.443   3.226 -0.5302  0.4935 -0.1909
  149MOL  Cl10018156   4.754   7.612   3.246 -0.2441  0.7925 -0.2440
  149MOL   H10118157   4.996   7.546   3.174  0.0782 -0.2694  1.7186
  149MOL   H10218158   5.030   7.378   3.190 -0.6528  0.8981  3.1330
  149MOL   H10318159   4.747   7.379   3.172 -0.9460  2.0138 -1.4768
  149MOL   C10418160   4.841   7.385   3.375  0.5693 -0.4680 -0.3461
  149MOL   C10518161   4.709   7.343   3.448  0.0753 -0.2840  0.3682
  149MOL  Cl10618162   4.621   7.219   3.365  0.7434  0.2897 -0.2281
  149MOL   H10718163   4.900   7.448   3.441  0.1328  0.1516 -0.5511
  149MOL   H10818164   4.890   7.288   3.361 -1.3888 -1.4103 -0.7641
  149MOL   H10918165   4.740   7.292   3.540  0.9378 -0.4767 -0.0282
  149MOL   C11018166   4.621   7.454   3.502  0.1596  0.0428 -0.2831
  149MOL   C11118167   4.690   7.547   3.605 -0.1692  0.5194 -0.7136
  149MOL  Cl11218168   4.702   7.455   3.755  0.0096  0.4067 -0.0773
  149MOL   H11318169   4.533   7.416   3.553  1.0647  1.3423  2.3253
  149MOL   H11418170   4.573   7.503   3.418 -0.0115 -0.6883 -0.6185
  149MOL   H11518171   4.788   7.569   3.563  0.0158 -1.7516 -1.5353
  149MOL   C11618172   4.604   7.671   3.636 -0.3601 -0.4753  0.2239
  149MOL   C11718173   4.662   7.762   3.741  0.2125  0.8967 -0.0912
  149MOL  Cl11818174   4.823   7.823   3.688  0.3557 -0.2474  0.3945
  149MOL   H11918175   4.507   7.627   3.660 -0.3973 -0.4592  0.0996
  149MOL   H12018176   4.604   7.727   3.543 -2.3566 -0.0906  0.4384
  149MOL   H12118177   4.588   7.836   3.770 -1.0459 -0.6404  0.6864
  149MOL   H12218178   4.685   7.705   3.831 -0.9982 -0.9968 -0.9566
  150MOL     C118179   5.273   8.093   2.692 -0.7340  0.1454 -0.0856
  150MOL     C218180   5.378   8.038   2.595 -0.7568 -0.1331 -0.2619
  150MOL    Cl318181   5.305   7.986   2.440 -0.1488 -0.1744  0.0684
  150MOL     H418182   5.191   8.022   2.708 -1.5582  0.4196 -2.7851
  150MOL     H518183   5.309   8.129   2.788  2.1216 -2.3349 -0.1534
  150MOL     H618184   5.457   8.105   2.562  0.2819 -0.9290  0.5812
  150MOL     H718185   5.211   8.171   2.648 -0.9612  1.3712  2.3691
  150MOL     C818186   5.435   7.903   2.647  0.0313 -0.1149  0.2043
  150MOL     C918187   5.496   7.898   2.789 -0.4972 -0.6105 -0.1811
  150MOL   Cl1018188   5.611   8.033   2.799  0.0601  0.0865  0.1618
  150MOL    H1118189   5.508   7.880   2.570 -0.1616 -0.5909  0.1624
  150MOL    H1218190   5.372   7.814   2.647  0.2252 -0.2531  0.5949
  150MOL    H1318191   5.420   7.915   2.865  0.1482  0.5037  0.2244
  150MOL    C1418192   5.557   7.761   2.827  0.0764  0.0152 -0.3083
  150MOL    C1518193   5.461   7.650   2.891  0.7323 -0.5081 -0.3293
  150MOL   Cl1618194   5.393   7.727   3.040 -0.1815  0.1735 -0.0261
  150MOL    H1718195   5.627   7.775   2.910 -2.3227  1.9952  1.4468
  150MOL    H1818196   5.622   7.718   2.750 -0.8688 -0.3265 -0.9207
  150MOL    H1918197   5.372   7.620   2.834  0.5406 -1.5841  0.5256
  150MOL    C2018198   5.540   7.523   2.933  0.5026  0.0588  0.5852
  150MOL    C2118199   5.575   7.438   2.809  0.7238 -0.2021  0.0113
  150MOL   Cl2218200   5.420   7.378   2.743 -0.1696 -0.0665 -0.0305
  150MOL    H2318201   5.490   7.472   3.016  2.2930 -0.6762  1.2439
  150MOL    H2418202   5.637   7.547   2.976  0.9969 -1.2155  0.2243
  150MOL    H2518203   5.613   7.507   2.734  1.4103  1.7813  2.1021
  150MOL    C2618204   5.664   7.322   2.833 -0.4499 -0.3643 -0.3911
  150MOL    C2718205   5.794   7.354   2.903 -0.6239 -0.9273 -0.0437
  150MOL   Cl2818206   5.881   7.496   2.833 -0.5448 -0.1155  0.1959
  150MOL    H2918207   5.684   7.266   2.741  0.9877 -1.5690  0.6332
  150MOL    H3018208   5.619   7.254   2.905 -1.5492  1.9321  1.1560
  150MOL    H3118209   5.774   7.384   3.006  1.4222  0.9901 -0.1518
  150MOL    C3218210   5.892   7.239   2.903 -0.3641  0.4279 -0.5395
  150MOL    C3318211   5.872   7.131   3.007 -0.1258  0.6978  0.8484
  150MOL   Cl3418212   5.911   7.193   3.169  0.1981 -0.0368  0.0015
  150MOL    H3518213   5.986   7.287   2.930  0.9046 -2.6033  0.6866
  150MOL    H3618214   5.898   7.195   2.803  2.0682 -0.1902 -0.1561
  150MOL    H3718215   5.768   7.101   3.013  0.5235 -1.6132  1.2470
  150MOL    C3818216   5.948   7.002   2.979 -0.5887 -0.0508  0.1612
  150MOL    C3918217   5.883   6.899   2.885  0.1610  0.1938 -0.5327
  150MOL   Cl4018218   5.752   6.833   2.979  0.0800 -0.0423 -0.3832
  150MOL    H4118219   5.958   6.953   3.076 -0.0222  2.1521  1.2528
  150MOL    H4218220   6.047   7.023   2.939 -1.8152  2.0432 -1.8645
  150MOL    H4318221   5.847   6.936   2.789  1.0576 -1.0819 -1.4010
  150MOL    C4418222   5.966   6.770   2.858 -0.5885 -0.6217 -0.7930
  150MOL    C4518223   6.096   6.777   2.777  0.0275  0.5874 -0.9423
  150MOL   Cl4618224   6.055   6.838   2.614 -0.0773  0.2776  0.1394
  150MOL    H4718225   5.897   6.704   2.805 -0.2698 -1.4080 -0.2486
  150MOL    H4818226   5.991   6.733   2.958  1.3779  0.3174 -0.9263
  150MOL    H4918227   6.165   6.849   2.820 -2.0311  1.3904  1.1005
  150MOL    C5018228   6.160   6.635   2.777 -0.5678  0.2685 -0.3599
  150MOL    C5118229   6.315   6.628   2.746  0.2273  0.3385  0.0528
  150MOL   Cl5218230   6.359   6.459   2.721 -0.3109  0.1703  0.1754
  150MOL    H5318231   6.107   6.573   2.704 -0.1274 -0.1319 -0.3443
  150MOL    H5418232   6.149   6.576   2.869  0.9326 -0.4589 -0.6214
  150MOL    H5518233   6.331   6.689   2.657  2.7427  0.2727  0.4343
  150MOL    C5618234   6.395   6.676   2.870 -0.5314  0.1324 -0.1644
  150MOL    C5718235   6.543   6.696   2.840  0.4359  0.2799 -0.1638
  150MOL   Cl5818236   6.633   6.681   2.990 -0.1052  0.0037 -0.3338
  150MOL    H5918237   6.377   6.601   2.947  1.5860  0.0024  0.2310
  150MOL    H6018238   6.359   6.767   2.917  2.1668  1.0879  0.1476
  150MOL    H6118239   6.575   6.606   2.787  2.6972  0.1913  1.2972
  150MOL    C6218240   6.580   6.822   2.759  0.6027  0.5636 -0.4373
  150MOL    C6318241   6.575   6.818   2.604 -0.1349  0.7086  0.1793
  150MOL   Cl6418242   6.648   6.686   2.528  0.2009  0.1197  0.0219
  150MOL    H6518243   6.686   6.836   2.782  1.0343  0.1541 -2.0807
  150MOL    H6618244   6.534   6.909   2.805  0.6906  0.0071  0.7234
  150MOL    H6718245   6.471   6.815   2.570  0.4513 -1.8731 -1.5160
  150MOL    C6818246   6.640   6.946   2.543 -0.4789  0.0706 -0.2079
  150MOL    C6918247   6.584   7.012   2.413 -0.2046 -0.1988  0.2041
  150MOL   Cl7018248   6.720   7.108   2.341  0.1467  0.1606 -0.0190
  150MOL    H7118249   6.744   6.929   2.516 -0.6009  0.7487 -1.1276
  150MOL    H7218250   6.633   7.027   2.616  1.1531  0.7546 -0.7749
  150MOL    H7318251   6.572   6.939   2.333 -1.8715  1.8332 -1.4644
  150MOL    C7418252   6.462   7.098   2.428 -0.0327 -0.6662 -0.0576
  150MOL    C7518253   6.327   7.031   2.451 -0.6081 -0.6002  0.0213
  150MOL   Cl7618254   6.311   6.908   2.317 -0.0175 -0.2533 -0.0688
  150MOL    H7718255   6.456   7.146   2.330 -1.8477 -0.8841 -0.0635
  150MOL    H7818256   6.482   7.182   2.495  0.6773  0.3574 -1.5284
  150MOL    H7918257   6.334   6.978   2.546 -0.0102 -1.1805 -0.3468
  150MOL    C8018258   6.206   7.118   2.440 -0.0318 -0.2862 -0.3877
  150MOL    C8118259   6.190   7.217   2.559  0.0443 -0.4485  0.6055
  150MOL   Cl8218260   6.200   7.129   2.712 -0.0628 -0.1367  0.1388
  150MOL    H8318261   6.112   7.064   2.426  0.5457 -1.6128  0.7544
  150MOL    H8418262   6.219   7.167   2.343  1.1725  0.8609  0.3369
  150MOL    H8518263   6.269   7.291   2.549 -0.2073 -0.5308 -2.4034
  150MOL    C8618264   6.049   7.287   2.566  0.0056  0.3527 -0.4847
  150MOL    C8718265   6.012   7.367   2.437  0.2298 -0.5577  0.2499
  150MOL   Cl8818266   6.133   7.498   2.405  0.2698 -0.0236  0.1139
  150MOL    H8918267   6.055   7.352   2.652  0.3526 -0.8753  0.4321
  150MOL    H9018268   5.975   7.208   2.578  0.7550 -0.3161 -0.1974
  150MOL    H9118269   6.015   7.293   2.357 -0.0310 -0.2445 -0.0481
  150MOL    C9218270   5.872   7.427   2.448 -0.2132 -0.3575  0.2492
  150MOL    C9318271   5.810   7.493   2.319  0.2326  0.2366  0.8389
  150MOL   Cl9418272   5.875   7.653   2.296  0.1453  0.1647  0.0806
  150MOL    H9518273   5.856   7.488   2.537  0.9368 -0.1637  0.3290
  150MOL    H9618274   5.812   7.338   2.469  0.5041 -0.4044  2.1955
  150MOL    H9718275   5.838   7.436   2.231  0.2150  0.0079  0.9791
  150MOL    C9818276   5.656   7.501   2.330  0.5223 -0.0025 -0.4106
  150MOL    C9918277   5.591   7.519   2.192 -0.6723  0.3075 -0.0003
  150MOL  Cl10018278   5.435   7.587   2.227 -0.2362  0.1197  0.0541
  150MOL   H10118279   5.632   7.583   2.397  0.8714 -1.3717  1.4072
  150MOL   H10218280   5.611   7.413   2.376 -1.0902  0.7903 -0.4407
  150MOL   H10318281   5.656   7.590   2.141 -2.1001  0.9983 -0.8586
  150MOL   C10418282   5.572   7.386   2.109 -0.3323 -0.8498 -0.6507
  150MOL   C10518283   5.487   7.402   1.978  0.5557  0.3096 -0.0962
  150MOL  Cl10618284   5.421   7.251   1.912  0.1205  0.0219 -0.1144
  150MOL   H10718285   5.517   7.314   2.170  2.2537 -0.5639  2.1046
  150MOL   H10818286   5.667   7.333   2.107 -0.0518 -0.4766  1.7670
  150MOL   H10918287   5.400   7.466   1.998 -0.3759 -0.4751 -1.5593
  150MOL   C11018288   5.556   7.463   1.855 -0.0161  0.5403 -0.3461
  150MOL   C11118289   5.475   7.516   1.736 -0.4760 -0.1072  0.1789
  150MOL  Cl11218290   5.592   7.551   1.599 -0.1034 -0.5656  0.2618
  150MOL   H11318291   5.620   7.386   1.810 -1.9772 -0.4143 -1.5687
  150MOL   H11418292   5.619   7.548   1.881 -0.7142  0.6560  0.9925
  150MOL   H11518293   5.400   7.448   1.695  1.4798 -2.1152 -0.1391
  150MOL   C11618294   5.392   7.638   1.776  0.1450  0.6961 -0.4625
  150MOL   C11718295   5.311   7.689   1.658 -0.7590 -0.4823 -0.4465
  150MOL  Cl11818296   5.218   7.558   1.576  0.3939  0.3557 -0.1425
  150MOL   H11918297   5.449   7.718   1.823 -1.3602 -0.3535  3.3373
  150MOL   H12018298   5.319   7.610   1.852 -0.9634 -0.5850 -1.9729
  150MOL   H12118299   5.238   7.768   1.678  0.3736  0.2610  0.8534
  150MOL   H12218300   5.383   7.729   1.586 -2.9174  1.5284 -1.5746
  151MOL     C118301   3.508   6.087   0.211  0.2122  0.0201  0.3002
  151MOL     C218302   3.619   6.155   0.292  0.0232  0.5041  0.3096
  151MOL    Cl318303   3.562   6.315   0.317 -0.0353 -0.0747  0.0739
  151MOL     H418304   3.408   6.089   0.255 -0.3074 -0.9398 -0.8215
  151MOL     H518305   3.492   6.130   0.112  2.2513  0.7935  0.2712
  151MOL     H618306   3.624   6.104   0.388 -1.7899  0.0665  0.1772
  151MOL     H718307   3.536   5.985   0.185 -0.0791  0.5501 -2.2168
  151MOL     C818308   3.752   6.146   0.231  0.1105 -0.4982  0.2479
  151MOL     C918309   3.812   6.009   0.224 -0.3306  0.8995  0.3517
  151MOL   Cl1018310   3.892   5.991   0.380  0.3606  0.4761  0.2819
  151MOL    H1118311   3.823   6.202   0.293  0.4220  0.0151 -0.5620
  151MOL    H1218312   3.753   6.205   0.139  1.8399  2.2079  1.9325
  151MOL    H1318313   3.735   5.932   0.221  0.3388  0.1732  1.4312
  151MOL    C1418314   3.915   5.993   0.109 -0.0511 -0.4030  0.2280
  151MOL    C1518315   3.983   5.851   0.087  0.3067  0.4544 -0.7854
  151MOL   Cl1618316   3.853   5.728   0.118  0.3296 -0.1705  0.1656
  151MOL    H1718317   3.993   6.068   0.120 -0.4747 -0.0888  1.0934
  151MOL    H1818318   3.866   6.021   0.016 -0.7301  1.4033  1.1077
  151MOL    H1918319   4.017   5.845   8.509  0.1854  2.0088 -0.9336
  151MOL    C2018320   4.109   5.836   0.183  1.0227 -0.0635  0.5798
  151MOL    C2118321   4.216   5.723   0.159 -0.4010 -0.3852 -0.2926
  151MOL   Cl2218322   4.258   5.724   8.512 -0.2397  0.0436 -0.2025
  151MOL    H2318323   4.084   5.833   0.289 -0.3045 -0.5795  0.2544
  151MOL    H2418324   4.172   5.922   0.160  0.3034  0.4658  0.5727
  151MOL    H2518325   4.305   5.757   0.213 -1.1493  0.9790  0.1065
  151MOL    C2618326   4.177   5.580   0.213  0.5993 -0.6770 -0.2100
  151MOL    C2718327   4.281   5.464   0.174 -0.2358 -1.0195  0.3883
  151MOL   Cl2818328   4.204   5.314   0.222 -0.2829  0.0787  0.0559
  151MOL    H2918329   4.080   5.557   0.169  0.0453 -0.5781  0.9206
  151MOL    H3018330   4.159   5.592   0.320  0.0194  0.2237 -0.4057
  151MOL    H3118331   4.287   5.452   0.066  0.9874  0.8282  0.2231
  151MOL    C3218332   4.417   5.487   0.245  0.1371 -0.3985  0.0380
  151MOL    C3318333   4.541   5.493   0.151  0.1686  0.8081  0.3704
  151MOL   Cl3418334   4.514   5.348   0.049  0.1336  0.2352  0.2750
  151MOL    H3518335   4.438   5.409   0.319 -2.7574 -1.6191 -0.3687
  151MOL    H3618336   4.410   5.581   0.300  0.0175 -1.5151  1.9818
  151MOL    H3718337   4.542   5.580   0.086 -0.1023  1.3160  1.0454
  151MOL    C3818338   4.673   5.475   0.233 -0.3080 -0.0027  0.2821
  151MOL    C3918339   4.802   5.501   0.160 -0.6905  0.3334  0.7989
  151MOL   Cl4018340   4.812   5.673   0.110  0.2081 -0.4976  0.0396
  151MOL    H4118341   4.677   5.379   0.284 -1.3116 -0.4413 -0.4524
  151MOL    H4218342   4.679   5.544   0.317  0.2757  0.7114 -0.3328
  151MOL    H4318343   4.886   5.491   0.229  1.8217  2.1447 -1.8392
  151MOL    C4418344   4.822   5.412   0.035 -0.8111 -0.1413 -0.2533
  151MOL    C4518345   4.968   5.415   8.487 -0.2816  0.1800 -0.1441
  151MOL   Cl4618346   5.094   5.360   0.065 -0.2494 -0.5212 -0.0800
  151MOL    H4718347   4.742   5.446   8.494 -1.1173  1.6978  1.0223
  151MOL    H4818348   4.796   5.309   0.060 -0.6079 -0.2856 -0.6367
  151MOL    H4918349   4.959   5.342   8.407 -2.9476  0.5581 -0.2395
  151MOL    C5018350   5.012   5.544   8.424 -1.1690  0.3635 -0.2114
  151MOL    C5118351   4.926   5.588   8.313 -0.2703 -0.4226 -0.0731
  151MOL   Cl5218352   4.927   5.463   8.187  0.1189  0.0854 -0.0178
  151MOL    H5318353   5.113   5.534   8.386 -0.6070  1.5471  0.9262
  151MOL    H5418354   5.022   5.624   8.498  0.5096 -1.6093  1.7888
  151MOL    H5518355   4.827   5.589   8.360  0.0632 -0.3255  0.6348
  151MOL    C5618356   4.947   5.722   8.238  0.3578 -0.0658 -0.3314
  151MOL    C5718357   4.821   5.801   8.199  0.0753 -0.7489  0.1849
  151MOL   Cl5818358   4.873   5.969   8.140  0.1198  0.1702  0.3353
  151MOL    H5918359   5.006   5.726   8.147 -0.1999  0.9176 -0.6533
  151MOL    H6018360   5.011   5.796   8.287 -0.1464 -0.6161  1.1918
  151MOL    H6118361   4.762   5.758   8.118  0.6633  1.9847 -1.7706
  151MOL    C6218362   4.740   5.842   8.332 -0.2863  0.2631  0.9080
  151MOL    C6318363   4.620   5.932   8.317  0.0927  0.0649 -0.0682
  151MOL   Cl6418364   4.543   5.943   8.480  0.2175 -0.3485 -0.1486
  151MOL    H6518365   4.809   5.883   8.405 -2.1884  1.2016  2.2154
  151MOL    H6618366   4.692   5.752   8.372 -0.9126  0.0735 -0.2403
  151MOL    H6718367   4.650   6.030   8.278  0.7439  0.0847  0.4810
  151MOL    C6818368   4.515   5.865   8.232  0.2915 -0.2181  0.3870
  151MOL    C6918369   4.381   5.929   8.208  1.2737 -0.0865  0.7651
  151MOL   Cl7018370   4.280   5.831   8.099  0.2589  0.5309 -0.2315
  151MOL    H7118371   4.481   5.772   8.278 -0.6131 -1.3453 -2.4553
  151MOL    H7218372   4.542   5.851   8.128  2.9396 -1.9201  1.2577
  151MOL    H7318373   4.329   5.941   8.303  3.5664  0.1419  2.0101
  151MOL    C7418374   4.411   6.070   8.148  0.0337 -0.3428 -0.3500
  151MOL    C7518375   4.286   6.163   8.137 -0.0312  0.3933 -0.4009
  151MOL   Cl7618376   4.331   6.325   8.069  0.2855  0.1662 -0.0743
  151MOL    H7718377   4.462   6.058   8.052 -1.0828 -2.5070 -0.7214
  151MOL    H7818378   4.476   6.127   8.213  1.3106  0.1964 -2.0546
  151MOL    H7918379   4.233   6.105   8.062  1.2351 -0.2331 -0.8179
  151MOL    C8018380   4.206   6.185   8.271  0.6715  0.0836  0.3687
  151MOL    C8118381   4.095   6.296   8.275 -1.0949  1.2970  0.1655
  151MOL   Cl8218382   4.050   6.313   8.445  0.1565  0.0300  0.1194
  151MOL    H8318383   4.282   6.219   8.341 -1.4478  1.0436  2.2534
  151MOL    H8418384   4.172   6.095   8.322 -1.0817  0.5239 -0.0007
  151MOL    H8518385   4.148   6.389   8.256  0.0911  1.2852  3.0375
  151MOL    C8618386   3.976   6.277   8.187  1.0669 -0.2998  0.5505
  151MOL    C8718387   3.892   6.145   8.219 -0.6189 -0.4516  0.6415
  151MOL   Cl8818388   3.982   6.012   8.142  0.4553  0.0879  0.3672
  151MOL    H8918389   3.997   6.285   8.080  0.3402 -0.3424  0.4049
  151MOL    H9018390   3.907   6.359   8.206  0.8866 -0.5135  0.8172
  151MOL    H9118391   3.896   6.138   8.327  0.9768  2.2553  0.8126
  151MOL    C9218392   3.750   6.150   8.164  0.1633  0.3802  0.1906
  151MOL    C9318393   3.656   6.236   8.242  0.3167 -0.0500 -0.1995
  151MOL   Cl9418394   3.648   6.163   8.410 -0.2724  0.4464 -0.0618
  151MOL    H9518395   3.706   6.051   8.156 -0.7400  0.6789  1.3484
  151MOL    H9618396   3.757   6.187   8.062 -1.1461  0.9008  0.2783
  151MOL    H9718397   3.703   6.334   8.255  1.0086 -0.3428 -0.5143
  151MOL    C9818398   3.515   6.245   8.176  0.0614  0.0123  0.2335
  151MOL    C9918399   3.427   6.372   8.224  0.0547 -0.1860 -0.0123
  151MOL  Cl10018400   3.516   6.512   8.183 -0.1982  0.1065  0.3135
  151MOL   H10118401   3.455   6.154   8.174 -0.8666  0.6268 -1.8630
  151MOL   H10218402   3.538   6.267   8.071  1.8737  2.2129  1.0451
  151MOL   H10318403   3.332   6.379   8.170 -0.4054 -1.7766  0.5656
  151MOL   C10418404   3.389   6.367   8.374  0.1129  0.3998 -0.7752
  151MOL   C10518405   3.290   6.478   8.426  0.0525 -0.2871  0.6554
  151MOL  Cl10618406   3.282   6.477   0.073 -0.1946  0.4300 -0.0537
  151MOL   H10718407   3.479   6.380   8.434 -0.0079  1.4970 -0.8250
  151MOL   H10818408   3.351   6.265   8.385  0.8097  0.2324  0.0733
  151MOL   H10918409   3.325   6.580   8.410 -3.0836  0.8296  0.7032
  151MOL   C11018410   3.142   6.480   8.378 -0.4355  0.5011 -0.0117
  151MOL   C11118411   3.068   6.345   8.381 -0.0026  0.2379 -0.5274
  151MOL  Cl11218412   3.131   6.249   8.245  0.0378  0.4284 -0.0135
  151MOL   H11318413   3.162   6.520   8.278  1.0195  0.2630  0.1646
  151MOL   H11418414   3.083   6.555   8.429 -0.8424  1.2806 -1.5719
  151MOL   H11518415   3.098   6.284   8.466  0.7029 -0.7968 -1.5008
  151MOL   C11618416   2.916   6.364   8.359 -0.1547 -0.7314  1.0044
  151MOL   C11718417   2.837   6.239   8.341  0.3359 -0.5555 -0.8917
  151MOL  Cl11818418   2.657   6.270   8.324  0.0284  0.2688  0.6184
  151MOL   H11918419   2.901   6.414   8.263  2.1979  0.8213  1.3998
  151MOL   H12018420   2.871   6.423   8.439  0.2365  0.0180  0.6854
  151MOL   H12118421   2.868   6.158   8.275 -0.3887 -2.3695  0.9456
  151MOL   H12218422   2.856   6.184   8.433 -1.6347 -1.4790 -1.0136
  152MOL     C118423   0.704   4.420   5.293  0.6576 -0.4441 -0.6210
  152MOL     C218424   0.579   4.418   5.378  0.1539 -0.2284  0.3154
  152MOL    Cl318425   0.466   4.294   5.303  0.3420 -0.0515 -0.0107
  152MOL     H418426   0.773   4.501   5.317 -0.6025  0.5920 -0.4258
  152MOL     H518427   0.748   4.321   5.306  2.3876  0.5087  0.9797
  152MOL     H618428   0.607   4.386   5.478 -0.5779  0.5882  0.7942
  152MOL     H718429   0.664   4.442   5.194 -4.9298  3.2468  2.1722
  152MOL     C818430   0.502   4.544   5.402  0.1808 -0.5902 -0.1024
  152MOL     C918431   0.458   4.624   5.278  0.8582 -0.1348  0.0432
  152MOL   Cl1018432   0.392   4.775   5.360 -0.2347 -0.3495 -0.0970
  152MOL    H1118433   0.550   4.612   5.473  0.2717  0.9684 -1.6130
  152MOL    H1218434   0.412   4.513   5.454  1.0154 -1.7499  0.6809
  152MOL    H1318435   0.535   4.669   5.216  0.0156 -0.7102 -1.4431
  152MOL    C1418436   0.348   4.557   5.187 -0.3583  0.2628 -0.1669
  152MOL    C1518437   0.277   4.641   5.081  0.0011  0.0135 -0.2048
  152MOL   Cl1618438   0.122   4.707   5.142  0.1868 -0.0650 -0.4556
  152MOL    H1718439   0.278   4.520   5.262  0.5097 -0.2867  0.3838
  152MOL    H1818440   0.393   4.474   5.132  0.6071  1.6387 -1.4697
  152MOL    H1918441   0.337   4.728   5.055 -2.3365  1.4318 -1.0181
  152MOL    C2018442   0.249   4.553   4.963 -0.7627  0.0516 -0.0740
  152MOL    C2118443   0.153   4.617   4.859  0.1298 -0.7841 -0.2765
  152MOL   Cl2218444   0.158   4.502   4.716 -0.2830 -0.4726 -0.3258
  152MOL    H2318445   0.211   4.456   4.993 -1.3475  0.7257  1.4085
  152MOL    H2418446   0.345   4.543   4.913 -0.6529  0.2045  0.1087
  152MOL    H2518447   0.052   4.613   4.899 -0.2478 -2.4944 -1.3453
  152MOL    C2618448   0.191   4.760   4.819  0.1821 -0.1271 -0.1872
  152MOL    C2718449   0.072   4.838   4.742 -0.6194 -0.1178  0.6408
  152MOL   Cl2818450   0.139   5.007   4.709 -0.0205 -0.1072  0.5764
  152MOL    H2918451   0.288   4.755   4.768  0.6525  0.9450  0.5845
  152MOL    H3018452   0.202   4.818   4.910 -1.1586 -2.1208  1.2791
  152MOL    H3118453   0.071   4.787   4.646 -3.0892 -1.4375  1.3343
  152MOL    C3218454   8.454   4.839   4.805  0.0229  0.8816  0.4182
  152MOL    C3318455   8.365   4.719   4.759 -0.2473  0.1298  0.4233
  152MOL   Cl3418456   8.310   4.754   4.601  0.1570 -0.2129  0.4449
  152MOL    H3518457   8.402   4.932   4.782  2.1874  1.8609 -0.7123
  152MOL    H3618458   8.470   4.830   4.913  0.7875 -2.1305  0.0976
  152MOL    H3718459   8.418   4.625   4.743  1.2263  1.2422 -1.3713
  152MOL    C3818460   8.244   4.700   4.851 -0.0925 -0.4158 -0.5466
  152MOL    C3918461   8.142   4.583   4.821 -0.0134 -0.3726  1.0613
  152MOL   Cl4018462   7.997   4.587   4.921 -0.5175 -0.1196  0.0576
  152MOL    H4118463   8.184   4.790   4.861 -0.3647 -0.7185  0.5915
  152MOL    H4218464   8.265   4.680   4.956  0.8715 -0.0859 -0.6780
  152MOL    H4318465   8.103   4.612   4.723 -0.3147 -1.0452  0.9777
  152MOL    C4418466   8.211   4.443   4.815  0.4211  0.0331  0.9724
  152MOL    C4518467   8.155   4.345   4.711  0.3999  0.0144 -0.4747
  152MOL   Cl4618468   8.154   4.418   4.552  0.1287  0.2867 -0.1482
  152MOL    H4718469   8.213   4.398   4.914  2.2882 -0.6606  0.6346
  152MOL    H4818470   8.317   4.443   4.790  0.1120 -2.0167 -0.4296
  152MOL    H4918471   8.225   4.262   4.703  0.5614 -0.0015  0.9927
  152MOL    C5018472   8.011   4.300   4.749 -0.3814 -0.3117  0.3150
  152MOL    C5118473   7.937   4.209   4.651  0.6320 -0.1735 -0.5620
  152MOL   Cl5218474   7.773   4.172   4.698 -0.1216  0.1749  0.0845
  152MOL    H5318475   7.943   4.385   4.751 -0.6305 -0.5103  0.3191
  152MOL    H5418476   8.006   4.253   4.847  0.9080 -0.7323  0.1913
  152MOL    H5518477   7.940   4.256   4.552  0.5310 -1.4125 -1.1666
  152MOL    C5618478   8.009   4.075   4.620  0.3899  1.0880  0.2895
  152MOL    C5718479   7.958   3.995   4.498  0.4451 -0.0696 -0.0844
  152MOL   Cl5818480   7.991   3.819   4.522 -0.0669 -0.2750  0.4391
  152MOL    H5918481   7.994   4.007   4.703  0.9451  0.7891  0.1465
  152MOL    H6018482   8.116   4.090   4.610  0.4043  0.4304 -0.6400
  152MOL    H6118483   7.849   4.002   4.494  0.5373  1.6311  0.0568
  152MOL    C6218484   8.011   4.042   4.362  0.2333  0.4278  0.2769
  152MOL    C6318485   7.934   3.984   4.234 -0.0984  0.0998  0.6303
  152MOL   Cl6418486   8.031   3.854   4.162  0.3987 -0.0198  0.2638
  152MOL    H6518487   8.119   4.026   4.352 -0.0518 -0.7342 -1.0789
  152MOL    H6618488   8.000   4.151   4.363  3.0034  0.7749 -0.8629
  152MOL    H6718489   7.833   3.947   4.253  0.3021  0.2283  3.1322
  152MOL    C6818490   7.934   4.094   4.128  0.0934  0.3871 -0.1854
  152MOL    C6918491   7.842   4.082   4.006  0.2398 -0.2013 -0.1611
  152MOL   Cl7018492   7.897   4.208   3.896 -0.2772  0.4211  0.1155
  152MOL    H7118493   8.036   4.105   4.090  0.5558 -1.9960  0.3112
  152MOL    H7218494   7.904   4.182   4.186 -1.2289 -0.2948  0.1685
  152MOL    H7318495   7.865   3.997   3.942  0.8348 -0.2472  0.1047
  152MOL    C7418496   7.697   4.101   4.049  0.6583 -0.4281  0.2809
  152MOL    C7518497   7.619   3.972   4.058 -0.5709 -0.6369 -0.0882
  152MOL   Cl7618498   7.618   3.925   3.884 -0.4301  0.3303 -0.6156
  152MOL    H7718499   7.653   4.153   3.964 -2.1079  0.2365  2.0552
  152MOL    H7818500   7.673   4.170   4.131 -0.6573  0.7131 -1.0371
  152MOL    H7918501   7.676   3.888   4.096  0.8185  0.0360 -0.6341
  152MOL    C8018502   7.476   3.994   4.110 -0.1589 -0.5921 -0.2039
  152MOL    C8118503   7.451   3.975   4.264 -0.3108  0.9791 -0.2660
  152MOL   Cl8218504   7.514   4.111   4.353 -0.1920  0.0167  0.0582
  152MOL    H8318505   7.406   3.931   4.055 -1.6508  1.0557 -0.2316
  152MOL    H8418506   7.454   4.095   4.076 -0.8404 -0.9659 -0.8979
  152MOL    H8518507   7.344   3.977   4.287  0.4093  2.2609  3.2476
  152MOL    C8618508   7.500   3.846   4.328  0.6761  0.2293 -0.1082
  152MOL    C8718509   7.500   3.845   4.481 -0.3173  0.4982 -0.4464
  152MOL   Cl8818510   7.610   3.723   4.528  0.4438  0.0062 -0.0839
  152MOL    H8918511   7.598   3.816   4.291  0.4905 -0.7116  0.1504
  152MOL    H9018512   7.434   3.773   4.279  1.6108  0.9673 -2.5361
  152MOL    H9118513   7.535   3.933   4.535 -0.1971  0.7983 -1.0135
  152MOL    C9218514   7.371   3.800   4.542  0.4461 -0.7619  0.1632
  152MOL    C9318515   7.351   3.825   4.693 -0.9125  0.0046 -0.1759
  152MOL   Cl9418516   7.359   4.006   4.722  0.4430 -0.2718  0.0651
  152MOL    H9518517   7.336   3.698   4.529 -1.4701 -0.2236  0.8748
  152MOL    H9618518   7.290   3.857   4.496 -0.7294 -0.6596  2.2588
  152MOL    H9718519   7.248   3.806   4.720 -1.7030 -0.5318 -3.3407
  152MOL    C9818520   7.444   3.762   4.795  1.1205  0.5181  0.2098
  152MOL    C9918521   7.422   3.615   4.803  1.1328  0.0076  0.5664
  152MOL  Cl10018522   7.252   3.588   4.864 -0.0682 -0.3594 -0.3014
  152MOL   H10118523   7.419   3.808   4.890 -1.4281 -2.8290  1.2718
  152MOL   H10218524   7.547   3.792   4.777  1.6197 -0.7498  0.8882
  152MOL   H10318525   7.416   3.575   4.702 -2.0054 -0.5021  0.9335
  152MOL   C10418526   7.519   3.528   4.882 -0.1417  0.1817  0.2642
  152MOL   C10518527   7.658   3.508   4.823 -0.4899 -0.1576 -0.5931
  152MOL  Cl10618528   7.644   3.397   4.690  0.1781  0.0698  0.4462
  152MOL   H10718529   7.471   3.433   4.908  0.5437  1.0758  5.3973
  152MOL   H10818530   7.528   3.581   4.977 -1.1653 -0.5274  0.7665
  152MOL   H10918531   7.676   3.608   4.783 -0.6909 -0.2835 -1.0007
  152MOL   C11018532   7.767   3.455   4.913 -0.2631  0.0828 -0.5718
  152MOL   C11118533   7.909   3.460   4.857  0.1393  0.3562  0.2210
  152MOL  Cl11218534   7.989   3.369   4.991 -0.0081  0.0925 -0.1809
  152MOL   H11318535   7.733   3.354   4.931  1.4528 -0.3097  0.6336
  152MOL   H11418536   7.764   3.504   5.010  2.2379 -1.2846  0.2454
  152MOL   H11518537   7.909   3.386   4.776 -0.6575  1.7773 -1.0922
  152MOL   C11618538   7.970   3.601   4.827 -0.2245 -0.4180  0.3262
  152MOL   C11718539   7.981   3.689   4.956 -0.3103 -0.1311  0.2351
  152MOL  Cl11818540   8.045   3.849   4.906 -0.2311 -0.1563  0.3209
  152MOL   H11918541   7.904   3.660   4.762  0.8800 -0.8537 -1.1975
  152MOL   H12018542   8.063   3.592   4.771  0.2202 -2.4084  1.3775
  152MOL   H12118543   7.888   3.706   5.010  0.4434  0.2745  1.4231
  152MOL   H12218544   8.042   3.654   5.040  1.7561 -2.3474 -2.0972
  153MOL     C118545   4.927   5.096   6.238 -0.1460  0.0084  0.3728
  153MOL     C218546   4.908   4.997   6.350  0.1139 -0.3006  0.4735
  153MOL    Cl318547   4.942   4.840   6.289 -0.1355 -0.1484  0.0966
  153MOL     H418548   4.971   5.185   6.283  1.2215 -1.2596  1.6034
  153MOL     H518549   5.007   5.056   6.176  0.5003  0.6242  0.8069
  153MOL     H618550   4.977   5.021   6.431  0.8345  0.3519 -0.3247
  153MOL     H718551   4.843   5.122   6.174  1.6941 -1.3630 -2.6693
  153MOL     C818552   4.760   4.997   6.402  0.3323  0.0796  0.4950
  153MOL     C918553   4.713   5.129   6.473  0.1055  0.3234 -0.0342
  153MOL   Cl1018554   4.831   5.174   6.601 -0.0725  0.0935 -0.2112
  153MOL    H1118555   4.751   4.914   6.473 -0.5137  0.2403  0.5903
  153MOL    H1218556   4.694   4.961   6.323  0.6598  1.3033 -0.3329
  153MOL    H1318557   4.714   5.204   6.394 -1.7011  0.8473  0.3958
  153MOL    C1418558   4.572   5.129   6.531  0.6271 -0.0711  0.1301
  153MOL    C1518559   4.451   5.075   6.446 -0.4978  0.1527 -0.2132
  153MOL   Cl1618560   4.450   5.171   6.299 -0.0291 -0.2871  0.5433
  153MOL    H1718561   4.552   5.233   6.553 -0.4610 -0.3573  0.5538
  153MOL    H1818562   4.565   5.077   6.627 -2.5911 -2.3875 -1.2343
  153MOL    H1918563   4.467   4.972   6.414  1.6468  0.0399  1.1084
  153MOL    C2018564   4.310   5.101   6.509  0.2206 -0.3529  0.0816
  153MOL    C2118565   4.286   5.068   6.654 -0.9040 -0.2100  0.0300
  153MOL   Cl2218566   4.340   4.900   6.680  0.3616 -0.2960  0.0172
  153MOL    H2318567   4.225   5.063   6.453  0.7887  0.5754 -1.4381
  153MOL    H2418568   4.301   5.209   6.500 -1.0839 -0.4070  0.6381
  153MOL    H2518569   4.356   5.117   6.722  0.2941 -0.6468 -0.8820
  153MOL    C2618570   4.153   5.111   6.712  0.2631 -0.3235 -0.2014
  153MOL    C2718571   4.142   5.086   6.866  0.2079 -0.0169 -0.8090
  153MOL   Cl2818572   3.969   5.079   6.901 -0.0119  0.5130  0.2355
  153MOL    H2918573   4.072   5.060   6.660 -0.8748  2.5736 -1.3536
  153MOL    H3018574   4.140   5.216   6.688  0.9000 -0.2108 -0.0603
  153MOL    H3118575   4.185   4.990   6.897  0.8665  0.0585 -1.4556
  153MOL    C3218576   4.206   5.188   6.958 -0.0783 -0.1703 -0.1085
  153MOL    C3318577   4.136   5.336   6.946 -0.0322 -0.0867 -0.1277
  153MOL   Cl3418578   4.243   5.415   6.834 -0.1153  0.7757 -0.5152
  153MOL    H3518579   4.311   5.201   6.932  0.7237 -1.8687  2.1376
  153MOL    H3618580   4.211   5.149   7.060  3.0855  0.2496 -0.0478
  153MOL    H3718581   4.039   5.345   6.898 -0.3999  2.0141  0.9648
  153MOL    C3818582   4.132   5.417   7.079  0.1199 -0.0454  1.1978
  153MOL    C3918583   4.028   5.358   7.186 -0.6240 -0.0466 -0.7928
  153MOL   Cl4018584   3.864   5.351   7.104 -0.2065 -0.1471  0.2090
  153MOL    H4118585   4.104   5.519   7.054 -0.4629 -1.0772 -2.6780
  153MOL    H4218586   4.234   5.425   7.117 -0.2694  0.9189  2.0490
  153MOL    H4318587   4.055   5.254   7.206  0.0807  0.6537  2.1580
  153MOL    C4418588   4.028   5.445   7.313  0.0002 -0.3742  0.1951
  153MOL    C4518589   4.079   5.376   7.442 -0.1215  0.0309 -0.0644
  153MOL   Cl4618590   3.979   5.229   7.479  0.0777 -0.3322 -0.1027
  153MOL    H4718591   3.934   5.500   7.329 -0.7017 -1.2210 -0.8871
  153MOL    H4818592   4.099   5.526   7.295  0.9716 -1.7325 -2.4379
  153MOL    H4918593   4.181   5.341   7.430  0.0373 -0.1836  1.7410
  153MOL    C5018594   4.059   5.473   7.555  0.5714 -0.2092 -0.3801
  153MOL    C5118595   4.120   5.434   7.686  0.4412 -0.0800 -0.0023
  153MOL   Cl5218596   4.079   5.561   7.802 -0.0332  0.2002  0.0448
  153MOL    H5318597   3.952   5.489   7.558  0.3313 -1.8997  1.2037
  153MOL    H5418598   4.094   5.574   7.534 -2.7483  0.7237 -1.6379
  153MOL    H5518599   4.081   5.340   7.724 -0.8734  0.9082  1.1258
  153MOL    C5618600   4.277   5.434   7.672  0.3991 -0.4059 -0.7387
  153MOL    C5718601   4.363   5.410   7.799  0.7917  0.7217  0.3660
  153MOL   Cl5818602   4.528   5.445   7.746 -0.0541 -0.4946 -0.0109
  153MOL    H5918603   4.309   5.526   7.622 -1.7040  0.9101  0.2691
  153MOL    H6018604   4.300   5.351   7.605 -1.8124 -1.4311 -0.2972
  153MOL    H6118605   4.336   5.475   7.882  0.0146  1.2411 -0.2874
  153MOL    C6218606   4.348   5.267   7.843  0.4701  0.1941 -0.1465
  153MOL    C6318607   4.437   5.226   7.958  0.0761 -0.2613 -0.4656
  153MOL   Cl6418608   4.495   5.067   7.910 -0.1116  0.1666 -0.3151
  153MOL    H6518609   4.368   5.198   7.761 -0.1249 -0.2588  0.0869
  153MOL    H6618610   4.244   5.239   7.858  0.0459  1.4092 -0.7298
  153MOL    H6718611   4.519   5.297   7.969  0.6607 -0.8233 -1.1717
  153MOL    C6818612   4.358   5.219   8.096 -0.2054  0.0171 -0.2379
  153MOL    C6918613   4.300   5.350   8.154  0.2486  0.2507 -0.2064
  153MOL   Cl7018614   4.424   5.450   8.221  0.0556 -0.1176 -0.3067
  153MOL    H7118615   4.419   5.174   8.174  1.4827  2.0832 -0.3129
  153MOL    H7218616   4.277   5.151   8.070  0.1664 -0.7597  0.6107
  153MOL    H7318617   4.253   5.415   8.080 -0.0721 -0.2879 -0.4869
  153MOL    C7418618   4.202   5.317   8.266  0.0607 -0.4735 -0.2205
  153MOL    C7518619   4.082   5.416   8.280 -0.0735 -0.4065 -0.1440
  153MOL   Cl7618620   4.041   5.443   8.455  0.0015 -0.0036  0.1044
  153MOL    H7718621   4.262   5.307   8.357 -0.3561  0.4915  0.1782
  153MOL    H7818622   4.165   5.216   8.252  1.5117 -0.7691 -2.1374
  153MOL    H7918623   4.101   5.514   8.237 -0.4966 -0.8705 -1.4115
  153MOL    C8018624   3.958   5.349   8.214  0.6052 -0.7437 -0.0154
  153MOL    C8118625   3.827   5.429   8.221  0.4976  0.8060 -0.0222
  153MOL   Cl8218626   3.676   5.329   8.188  0.0344 -0.0570  0.3642
  153MOL    H8318627   3.930   5.255   8.261 -0.2343 -1.1228 -1.2649
  153MOL    H8418628   3.986   5.327   8.111  0.6370  1.4085 -0.4918
  153MOL    H8518629   3.817   5.462   8.324  2.4863  0.5703  0.2721
  153MOL    C8618630   3.820   5.557   8.128  0.2076 -0.0760 -0.0084
  153MOL    C8718631   3.697   5.639   8.157  0.6591  0.1093  0.1652
  153MOL   Cl8818632   3.718   5.784   8.062  0.2890  0.1210  0.4127
  153MOL    H8918633   3.845   5.526   8.027  0.6305  2.4860 -0.7332
  153MOL    H9018634   3.896   5.629   8.160 -1.4596  1.7612 -0.0653
  153MOL    H9118635   3.609   5.586   8.119 -1.2920  2.0862  1.7500
  153MOL    C9218636   3.677   5.692   8.300 -0.3195  0.5051 -0.4464
  153MOL    C9318637   3.557   5.789   8.325 -0.2743  0.2551  0.2582
  153MOL   Cl9418638   3.566   5.828   8.494  0.5143 -0.1544  0.1962
  153MOL    H9518639   3.768   5.730   8.347  0.1088 -1.3848  0.2703
  153MOL    H9618640   3.648   5.608   8.363  3.1369 -0.6247 -0.2770
  153MOL    H9718641   3.562   5.881   8.267 -1.2817  0.0480 -0.1600
  153MOL    C9818642   3.418   5.726   8.287  0.2010 -0.4478 -0.7245
  153MOL    C9918643   3.299   5.820   8.264  0.4119 -0.1031 -0.9167
  153MOL  Cl10018644   3.313   5.922   8.122 -0.0394  0.1936  0.2919
  153MOL   H10118645   3.392   5.650   8.360  2.6305  0.8360  1.5650
  153MOL   H10218646   3.426   5.682   8.188  2.5233  2.6035 -1.9894
  153MOL   H10318647   3.217   5.752   8.241  0.3337 -1.1158  2.1277
  153MOL   C10418648   3.253   5.909   8.382 -0.1302  0.2014 -0.3787
  153MOL   C10518649   3.198   5.828   8.498  0.0005  0.2369 -0.6305
  153MOL  Cl10618650   3.058   5.724   8.454  0.0054  0.2398 -0.2081
  153MOL   H10718651   3.171   5.971   8.345  0.0865  0.9084  0.2979
  153MOL   H10818652   3.336   5.973   8.413 -0.0378 -0.1092  0.0205
  153MOL   H10918653   3.282   5.767   0.005  0.7840  1.2189 -0.8108
  153MOL   C11018654   3.161   5.903   0.103 -0.9041  0.5444  0.7002
  153MOL   C11118655   3.129   5.816   0.230 -0.8247 -0.0611 -0.2765
  153MOL  Cl11218656   2.950   5.767   0.223  0.1962  0.1982 -0.1225
  153MOL   H11318657   3.080   5.970   0.074  0.0137  0.5210 -2.0800
  153MOL   H11418658   3.239   5.977   0.118  0.9878 -1.1540 -0.4823
  153MOL   H11518659   3.180   5.720   0.217 -0.8030  0.2034 -2.2909
  153MOL   C11618660   3.142   5.887   0.367 -0.5842  0.7354 -0.7762
  153MOL   C11718661   3.100   5.790   0.488 -0.5324 -0.5570  0.6924
  153MOL  Cl11818662   3.105   5.879   0.640  0.1750 -0.0489 -0.1107
  153MOL   H11918663   3.099   5.987   0.378 -1.1771  0.1644  2.6479
  153MOL   H12018664   3.246   5.909   0.393 -0.6047 -0.2930  0.2135
  153MOL   H12118665   3.001   5.750   0.468 -0.1544 -0.9395 -0.4951
  153MOL   H12218666   3.169   5.706   0.498 -0.2378 -0.3730  0.2153
  154MOL     C118667   3.564   3.493   6.702  0.8220 -0.1819 -0.5573
  154MOL     C218668   3.618   3.357   6.733 -0.2555 -0.3047  0.2296
  154MOL    Cl318669   3.504   3.239   6.660 -0.0093  0.5604  0.7254
  154MOL     H418670   3.459   3.502   6.730  0.9473 -1.4870  0.3604
  154MOL     H518671   3.623   3.569   6.754  0.1947 -0.3340  0.3892
  154MOL     H618672   3.709   3.344   6.676  0.2756 -0.8485  1.1939
  154MOL     H718673   3.567   3.509   6.595 -0.0954  0.4104 -0.4968
  154MOL     C818674   3.627   3.326   6.884  0.2706  0.4773 -0.5439
  154MOL     C918675   3.716   3.207   6.912 -0.3058  0.3437 -0.1858
  154MOL   Cl1018676   3.696   3.158   7.085 -0.2541 -0.5105 -0.1126
  154MOL    H1118677   3.524   3.324   6.919 -0.0272 -1.2956 -1.4638
  154MOL    H1218678   3.672   3.414   6.929  1.7938 -1.6674  2.3044
  154MOL    H1318679   3.685   3.125   6.847 -0.7004 -0.3782  0.9058
  154MOL    C1418680   3.869   3.223   6.880  0.5871 -0.2941 -0.2151
  154MOL    C1518681   3.957   3.098   6.903  0.4231 -0.4906  0.1534
  154MOL   Cl1618682   4.126   3.136   6.863  0.0383  0.4057 -0.4715
  154MOL    H1718683   3.895   3.310   6.941 -0.4040 -0.4091  0.3859
  154MOL    H1818684   3.885   3.257   6.778 -0.0393 -1.0726 -0.5746
  154MOL    H1918685   3.966   3.086   7.011 -0.1904  0.1340  0.2763
  154MOL    C2018686   3.906   2.964   6.842 -0.0341 -0.0519  1.0610
  154MOL    C2118687   4.008   2.860   6.820 -1.5798 -0.0949  0.8440
  154MOL   Cl2218688   3.937   2.736   6.706 -0.0851  0.1203 -0.3677
  154MOL    H2318689   3.869   2.979   6.740  0.6933  0.8930  0.9297
  154MOL    H2418690   3.822   2.927   6.901 -0.7285  3.9869  2.7804
  154MOL    H2518691   4.092   2.900   6.763 -1.1844  0.6980  1.9698
  154MOL    C2618692   4.066   2.794   6.951 -0.0640 -0.0445 -0.2570
  154MOL    C2718693   3.990   2.676   7.019  0.1811 -1.0867  0.4300
  154MOL   Cl2818694   3.869   2.760   7.109  0.1582 -0.2663  0.0251
  154MOL    H2918695   4.096   2.873   7.020  2.7596  0.2782 -1.7661
  154MOL    H3018696   4.160   2.749   6.917  1.1259  3.1047 -1.3295
  154MOL    H3118697   3.950   2.607   6.945 -2.7004  0.0463  0.8830
  154MOL    C3218698   4.082   2.612   7.126 -0.4609  0.8998 -0.4424
  154MOL    C3318699   4.051   2.465   7.155  0.2424  0.0413  0.3783
  154MOL   Cl3418700   3.882   2.448   7.225 -0.3461 -0.2265  0.0265
  154MOL    H3518701   4.073   2.665   7.220 -2.3765  1.9894 -1.2124
  154MOL    H3618702   4.184   2.616   7.087 -0.6110  1.8172 -0.7545
  154MOL    H3718703   4.064   2.402   7.067  0.0461 -0.2696  0.5714
  154MOL    C3818704   4.141   2.407   7.256  0.2940 -0.4577 -0.8674
  154MOL    C3918705   4.280   2.369   7.198 -0.5647 -0.1764 -0.3556
  154MOL   Cl4018706   4.261   2.227   7.088 -0.1404 -0.0309  0.1056
  154MOL    H4118707   4.102   2.309   7.286 -1.1962 -0.1207 -1.6503
  154MOL    H4218708   4.145   2.468   7.346 -1.4836 -0.3351 -0.8430
  154MOL    H4318709   4.317   2.457   7.145  0.3782 -0.6988 -0.5713
  154MOL    C4418710   4.372   2.328   7.310  0.0097 -0.1204 -0.5721
  154MOL    C4518711   4.509   2.287   7.271 -0.3634 -0.8883 -0.2875
  154MOL   Cl4618712   4.589   2.198   7.396  0.1606  0.1336  0.2303
  154MOL    H4718713   4.327   2.249   7.371 -1.6077  2.0452  1.1028
  154MOL    H4818714   4.371   2.399   7.392 -0.1015 -2.4127  1.4668
  154MOL    H4918715   4.506   2.226   7.180  1.3137  1.3678 -1.9024
  154MOL    C5018716   4.600   2.407   7.232  0.2836 -0.2312 -0.5012
  154MOL    C5118717   4.612   2.532   7.331 -0.6698  0.2670  0.8947
  154MOL   Cl5218718   4.460   2.634   7.300 -0.2152  0.1332  0.0270
  154MOL    H5318719   4.571   2.450   7.136 -0.2334  0.3253 -0.0991
  154MOL    H5418720   4.704   2.375   7.230  0.0349 -1.1453  0.6007
  154MOL    H5518721   4.632   2.512   7.436 -2.2285 -2.3734  0.7244
  154MOL    C5618722   4.732   2.620   7.293  0.4516 -0.3395  0.5076
  154MOL    C5718723   4.756   2.731   7.394 -0.7277  0.2067 -0.3794
  154MOL   Cl5818724   4.800   2.657   7.554 -0.0227 -0.2781 -0.5822
  154MOL    H5918725   4.709   2.659   7.193 -0.8571  0.2890  1.0459
  154MOL    H6018726   4.819   2.556   7.282  1.9536  2.0747 -2.6184
  154MOL    H6118727   4.850   2.776   7.361 -0.7435  1.0406  0.6971
  154MOL    C6218728   4.654   2.846   7.419 -0.3739  0.2426 -0.3196
  154MOL    C6318729   4.608   2.930   7.299 -0.6799 -0.7531 -0.8050
  154MOL   Cl6418730   4.747   3.014   7.219  0.0265  0.0196  0.1495
  154MOL    H6518731   4.711   2.903   7.492 -0.4806  0.9428 -0.7834
  154MOL    H6618732   4.565   2.810   7.472 -0.2990  0.1130 -0.2808
  154MOL    H6718733   4.569   2.861   7.225  1.7837 -0.8433 -2.0704
  154MOL    C6818734   4.505   3.040   7.322  0.0195  0.0833  0.8642
  154MOL    C6918735   4.373   3.012   7.384  0.0631  0.3806  0.4243
  154MOL   Cl7018736   4.286   2.897   7.277 -0.0845 -0.1015  0.0681
  154MOL    H7118737   4.474   3.081   7.225  0.0715  0.4602  1.0079
  154MOL    H7218738   4.546   3.131   7.365  2.0412  0.8078 -2.4236
  154MOL    H7318739   4.395   2.963   7.479  0.2185 -1.4213 -0.5272
  154MOL    C7418740   4.291   3.144   7.403 -0.2911 -0.6529  0.1712
  154MOL    C7518741   4.325   3.235   7.521  0.1819  0.3949 -0.3090
  154MOL   Cl7618742   4.297   3.130   7.666  0.0526 -0.3651 -0.0567
  154MOL    H7718743   4.188   3.113   7.424  0.0117 -1.6989  0.1456
  154MOL    H7818744   4.280   3.201   7.311  2.8007 -0.0397  0.1324
  154MOL    H7918745   4.427   3.271   7.533  0.3736 -0.3207  0.2502
  154MOL    C8018746   4.232   3.354   7.537 -0.5150 -0.6061  0.7057
  154MOL    C8118747   4.249   3.445   7.666  0.4095  0.1436 -0.1916
  154MOL   Cl8218748   4.138   3.375   7.784  0.2684  0.1789  0.0823
  154MOL    H8318749   4.126   3.328   7.529 -0.7062  0.0333  1.1214
  154MOL    H8418750   4.252   3.406   7.443  3.0161  0.2728  1.8868
  154MOL    H8518751   4.350   3.441   7.706  0.0571  1.2192  0.8436
  154MOL    C8618752   4.204   3.591   7.635 -0.4150  0.5950 -0.5793
  154MOL    C8718753   4.307   3.691   7.580 -0.1899  0.5822 -0.1166
  154MOL   Cl8818754   4.225   3.841   7.534 -0.7565  0.3212  0.1292
  154MOL    H8918755   4.173   3.631   7.731 -1.6932  0.0909 -0.7798
  154MOL    H9018756   4.123   3.578   7.563 -1.5377  3.8848 -0.0004
  154MOL    H9118757   4.363   3.721   7.669 -0.8269 -3.5423  1.8065
  154MOL    C9218758   4.394   3.656   7.456 -0.2897 -0.1000  0.5556
  154MOL    C9318759   4.518   3.744   7.423  0.5817  0.9155  0.5031
  154MOL   Cl9418760   4.576   3.734   7.254 -0.2857  0.0914  0.4089
  154MOL    H9518761   4.323   3.667   7.374 -1.0597  1.3015  1.4004
  154MOL    H9618762   4.427   3.552   7.461 -0.3748 -0.1848 -0.4693
  154MOL    H9718763   4.484   3.847   7.431 -2.6675 -0.1076  0.8473
  154MOL    C9818764   4.635   3.721   7.525  1.0929  0.2356 -0.6336
  154MOL    C9918765   4.716   3.589   7.508 -0.6967 -0.6688 -1.2939
  154MOL  Cl10018766   4.617   3.456   7.581 -0.2494 -0.3827 -0.1077
  154MOL   H10118767   4.588   3.737   7.622  0.5916  0.4918 -0.9120
  154MOL   H10218768   4.699   3.808   7.513 -0.5216  1.2003 -2.6567
  154MOL   H10318769   4.730   3.561   7.404  0.1132 -1.2152 -1.0394
  154MOL   C10418770   4.853   3.586   7.558 -0.3877  0.5276 -0.4362
  154MOL   C10518771   4.959   3.677   7.487 -0.4396 -0.4444  1.2004
  154MOL  Cl10618772   4.948   3.689   7.306 -0.4204 -0.0417 -0.4955
  154MOL   H10718773   4.889   3.483   7.554  0.6345  0.8367  0.7508
  154MOL   H10818774   4.847   3.608   7.664  0.5681 -0.2288 -0.2220
  154MOL   H10918775   4.942   3.780   7.517 -1.2352 -0.6247  1.3677
  154MOL   C11018776   5.101   3.641   7.531 -0.8111  0.6086 -0.3918
  154MOL   C11118777   5.129   3.642   7.681 -0.2035  0.7656  1.1098
  154MOL  Cl11218778   5.077   3.799   7.754 -0.0813 -0.4307  0.1010
  154MOL   H11318779   5.174   3.706   7.481  1.1767  0.1884  1.8486
  154MOL   H11418780   5.137   3.544   7.497 -0.0629  0.2454  1.4060
  154MOL   H11518781   5.066   3.567   7.730  0.5375 -1.5074 -1.3322
  154MOL   C11618782   5.279   3.614   7.719 -0.2922 -0.5209 -0.1615
  154MOL   C11718783   5.330   3.474   7.674 -0.0505 -0.5588  0.6097
  154MOL  Cl11818784   5.231   3.332   7.725  0.2461  0.1557  0.3549
  154MOL   H11918785   5.284   3.624   7.827  1.3382 -1.7389 -0.1042
  154MOL   H12018786   5.348   3.686   7.675 -0.5805  0.2640  0.6632
  154MOL   H12118787   5.333   3.461   7.566 -2.4164  1.1739  0.2886
  154MOL   H12218788   5.428   3.450   7.717 -0.1849 -3.1638 -0.4843
  155MOL     C118789   8.196   3.997   7.374 -0.0950 -0.1095  0.1065
  155MOL     C218790   8.104   4.026   7.496  0.2810 -0.3304 -0.1872
  155MOL    Cl318791   7.937   4.058   7.432 -0.5396 -0.6462 -0.0826
  155MOL     H418792   8.297   3.976   7.410 -0.5659 -0.9375  0.9401
  155MOL     H518793   8.180   3.899   7.329  1.9740  0.1355 -1.2710
  155MOL     H618794   8.099   3.930   7.548  0.1927 -0.6125 -0.7036
  155MOL     H718795   8.186   4.082   7.306 -2.7038 -2.1022 -2.0718
  155MOL     C818796   8.149   4.142   7.591  0.2230  0.0524 -0.7173
  155MOL     C918797   8.081   4.126   7.732  0.2065 -0.5204 -0.1755
  155MOL   Cl1018798   8.068   4.290   7.805 -0.0447 -0.2557 -0.0838
  155MOL    H1118799   8.123   4.235   7.541  0.2381  0.8095  0.6604
  155MOL    H1218800   8.256   4.152   7.607  0.1723  0.5957 -0.7159
  155MOL    H1318801   7.980   4.091   7.709  0.5960 -1.5119 -0.3975
  155MOL    C1418802   8.170   4.034   7.823  0.2444  0.8622 -0.6697
  155MOL    C1518803   8.109   3.995   7.958 -0.3388  0.0816 -0.8606
  155MOL   Cl1618804   8.128   4.135   8.064  0.0921 -0.0450  0.1257
  155MOL    H1718805   8.263   4.086   7.847  0.7741  0.8441 -2.5853
  155MOL    H1818806   8.181   3.944   7.763 -1.6427 -0.2792  0.6756
  155MOL    H1918807   8.001   3.985   7.952 -0.6666  2.7528 -0.2201
  155MOL    C2018808   8.173   3.876   8.027 -0.0668 -0.1851  0.2666
  155MOL    C2118809   8.094   3.808   8.127 -0.1637  0.1685 -0.7366
  155MOL   Cl2218810   8.197   3.687   8.205 -0.0813 -0.0292 -0.1909
  155MOL    H2318811   8.267   3.903   8.075 -1.3926  0.6190  2.4878
  155MOL    H2418812   8.196   3.798   7.956 -1.6588  0.1100 -0.5989
  155MOL    H2518813   8.067   3.877   8.207  0.6465 -0.0123 -0.3066
  155MOL    C2618814   7.967   3.732   8.083  0.0419 -0.1156 -0.3653
  155MOL    C2718815   7.977   3.651   7.952 -0.6979  0.1683 -0.2468
  155MOL   Cl2818816   7.966   3.758   7.808 -0.0973 -0.3605  0.0782
  155MOL    H2918817   7.884   3.802   8.073  1.3485  1.6699  0.9587
  155MOL    H3018818   7.923   3.673   8.163  0.2410  0.7844  0.4230
  155MOL    H3118819   8.074   3.602   7.947 -0.7458 -0.0305  0.7448
  155MOL    C3218820   7.876   3.536   7.943  0.8427 -0.5172 -0.2979
  155MOL    C3318821   7.903   3.405   8.026 -0.4416  0.5206  0.8528
  155MOL   Cl3418822   8.040   3.320   7.945 -0.1913  0.0460  0.1901
  155MOL    H3518823   7.874   3.496   7.841  2.3488 -0.3964 -0.3865
  155MOL    H3618824   7.780   3.581   7.968  1.0784 -0.0742 -0.1847
  155MOL    H3718825   7.937   3.433   8.126 -3.6384 -0.3682  2.2455
  155MOL    C3818826   7.774   3.318   8.037 -0.0767 -0.4616 -0.0672
  155MOL    C3918827   7.797   3.186   8.107  0.2647  0.4007 -0.1710
  155MOL   Cl4018828   7.674   3.069   8.063  0.1810  0.1035  0.1978
  155MOL    H4118829   7.740   3.300   7.935  3.0831  0.5855 -1.3599
  155MOL    H4218830   7.700   3.386   8.081  2.6831  2.7958 -0.2971
  155MOL    H4318831   7.889   3.145   8.065  0.5569  0.9999 -0.1234
  155MOL    C4418832   7.807   3.202   8.260 -0.5966  0.2594  0.2816
  155MOL    C4518833   7.843   3.072   8.345 -0.4081 -0.0115  0.5238
  155MOL   Cl4618834   7.960   2.990   8.240  0.0937 -0.1025  0.2135
  155MOL    H4718835   7.711   3.246   8.287 -0.8357 -0.7376  1.0639
  155MOL    H4818836   7.880   3.281   8.277 -2.7899  1.9025  2.2468
  155MOL    H4918837   7.895   3.093   8.438  1.7864  0.4643 -0.7715
  155MOL    C5018838   7.727   2.981   8.394  0.1755 -0.1363 -0.4916
  155MOL    C5118839   7.608   3.047   8.469 -0.2183  0.2242 -0.0031
  155MOL   Cl5218840   7.676   3.130   0.079  0.0909 -0.2677  0.2088
  155MOL    H5318841   7.765   2.900   8.456 -1.0100  0.7124  1.3538
  155MOL    H5418842   7.693   2.942   8.298 -0.0753  1.2330 -0.9691
  155MOL    H5518843   7.568   3.120   8.399  2.9682 -0.3678 -2.5718
  155MOL    C5618844   7.494   2.952   8.509  1.1687 -0.0720  0.4541
  155MOL    C5718845   7.416   2.904   8.383 -0.1915  0.1139 -0.5265
  155MOL   Cl5818846   7.350   3.049   8.295  0.4465  0.2760 -0.3139
  155MOL    H5918847   7.431   3.013   0.049 -0.1503 -1.2026  0.2596
  155MOL    H6018848   7.540   2.874   0.045  2.5851  1.1301  0.9539
  155MOL    H6118849   7.489   2.854   8.320  2.9035  0.3516  2.6882
  155MOL    C6218850   7.308   2.800   8.428  0.2881 -0.1796  0.1485
  155MOL    C6318851   7.365   2.659   8.464 -0.7232  0.0016 -0.5064
  155MOL   Cl6418852   7.397   2.574   8.316 -0.1326  0.0767  0.2017
  155MOL    H6518853   7.222   2.793   8.362  0.1567  1.3670  0.1358
  155MOL    H6618854   7.268   2.833   8.523 -0.2440  0.7864 -0.4051
  155MOL    H6718855   7.460   2.687   8.509 -1.1894 -0.2445  0.6514
  155MOL    C6818856   7.283   2.566   0.031  0.1137  0.4129  0.4880
  155MOL    C6918857   7.301   2.613   0.182 -0.1396 -0.3361  0.6762
  155MOL   Cl7018858   7.453   2.545   0.242 -0.1658 -0.0141  0.0496
  155MOL    H7118859   7.305   2.462   0.009 -2.2802  0.4969 -2.7277
  155MOL    H7218860   7.178   2.581   0.005 -1.0401 -0.8688  4.0777
  155MOL    H7318861   7.303   2.721   0.190 -2.1973 -0.0986 -1.3563
  155MOL    C7418862   7.185   2.548   0.268 -0.1157  0.7898 -0.0761
  155MOL    C7518863   7.092   2.646   0.352 -0.7394  0.5200  1.1154
  155MOL   Cl7618864   7.024   2.757   0.237  0.0547  0.2744 -0.3244
  155MOL    H7718865   7.226   2.478   0.341  0.6880  0.3814 -0.8983
  155MOL    H7818866   7.124   2.486   0.202 -1.3751  2.1241 -0.1873
  155MOL    H7918867   7.007   2.598   0.402 -0.9593  0.3091  0.5427
  155MOL    C8018868   7.172   2.731   0.458 -0.1946 -0.1127 -0.6042
  155MOL    C8118869   7.288   2.668   0.547 -0.6112  0.3599 -0.0068
  155MOL   Cl8218870   7.224   2.542   0.663  0.0368  0.0543  0.3065
  155MOL    H8318871   7.097   2.782   0.519  0.6385 -1.4271  1.6061
  155MOL    H8418872   7.231   2.808   0.407  1.1382  0.2081  1.3531
  155MOL    H8518873   7.359   2.630   0.474  0.4383 -0.1294  1.2308
  155MOL    C8618874   7.364   2.775   0.628  0.1647  0.1895 -0.0428
  155MOL    C8718875   7.512   2.753   0.657 -0.0525 -0.9837 -0.6115
  155MOL   Cl8818876   7.565   2.880   0.773 -0.0996  0.1594 -0.3085
  155MOL    H8918877   7.305   2.791   0.718 -1.2204  0.3732 -0.9684
  155MOL    H9018878   7.354   2.874   0.582  3.0912  0.7801  0.4575
  155MOL    H9118879   7.519   2.665   0.721 -0.3456 -0.6098 -0.0622
  155MOL    C9218880   7.620   2.722   0.550  0.4007  0.3703  0.5018
  155MOL    C9318881   7.670   2.845   0.468  0.1804 -0.3503 -0.9278
  155MOL   Cl9418882   7.541   2.880   0.347  0.4883  0.0107 -0.4641
  155MOL    H9518883   7.579   2.651   0.478 -0.3880  1.3095  0.0216
  155MOL    H9618884   7.705   2.669   0.594  1.0957  0.9917 -0.0811
  155MOL    H9718885   7.687   2.934   0.530  0.6584 -0.3289 -1.0860
  155MOL    C9818886   7.788   2.832   0.369 -0.7486  0.3854 -0.2642
  155MOL    C9918887   7.930   2.816   0.439 -1.0516  0.8768  1.2045
  155MOL  Cl10018888   7.985   2.966   0.525  0.1141 -0.0269  0.2825
  155MOL   H10118889   7.788   2.931   0.322  0.6577  1.6899  2.3771
  155MOL   H10218890   7.768   2.762   0.288  1.5894  1.1132 -1.5158
  155MOL   H10318891   7.923   2.737   0.514 -0.1812  0.3147  0.7016
  155MOL   C10418892   8.046   2.757   0.338 -0.3241 -0.2078  0.4178
  155MOL   C10518893   8.142   2.662   0.417  0.5253 -0.3121 -0.2095
  155MOL  Cl10618894   8.055   2.516   0.473 -0.5254  0.1609 -0.2516
  155MOL   H10718895   8.090   2.846   0.292  1.1458 -0.3737  1.4889
  155MOL   H10818896   8.001   2.692   0.263  1.0275  0.1195 -0.6967
  155MOL   H10918897   8.219   2.626   0.350  2.1432  1.7664  0.4999
  155MOL   C11018898   8.213   2.727   0.528  1.4963  1.1559  0.5611
  155MOL   C11118899   8.351   2.670   0.571 -0.1298  0.0574 -0.0501
  155MOL  Cl11218900   8.392   2.734   0.731 -0.2086 -0.3108  0.3599
  155MOL   H11318901   8.152   2.735   0.618 -1.0714  0.7364 -1.0799
  155MOL   H11418902   8.227   2.830   0.495 -0.4167  1.8866  1.9018
  155MOL   H11518903   8.334   2.563   0.584  0.1701  0.1256  0.9506
  155MOL   C11618904   8.460   2.701   0.468  0.2698 -1.0541 -0.5777
  155MOL   C11718905   0.054   2.610   0.486  0.2778 -0.3346 -0.3148
  155MOL  Cl11818906   0.174   2.652   0.361 -0.1642  0.1246 -0.0448
  155MOL   H11918907   8.481   2.808   0.468 -0.6259 -0.8742 -0.3509
  155MOL   H12018908   8.419   2.689   0.368  0.2319 -0.3656 -0.6488
  155MOL   H12118909   0.102   2.607   0.583  2.0477 -1.1702 -1.1927
  155MOL   H12218910   0.019   2.509   0.463 -0.7132  0.3434 -1.9089
  156MOL     C118911   1.877   7.898   7.178  0.5399 -0.2513 -0.2378
  156MOL     C218912   2.003   7.845   7.117 -0.6152 -0.7412  0.0847
  156MOL    Cl318913   2.139   7.874   7.229 -0.2256 -0.1655  0.1227
  156MOL     H418914   1.785   7.877   7.122 -1.2482  2.4108  1.6311
  156MOL     H518915   1.847   7.841   7.266 -1.9095  0.9714 -0.2356
  156MOL     H618916   1.989   7.737   7.118  0.7304 -0.9253 -0.2167
  156MOL     H718917   1.890   8.000   7.210  0.7263 -0.3266 -0.0794
  156MOL     C818918   2.042   7.901   6.976 -0.0205  0.1062  0.0514
  156MOL     C918919   1.943   7.893   6.856 -0.0955  0.0587 -0.5868
  156MOL   Cl1018920   1.844   7.747   6.862 -0.2152 -0.2629 -0.1726
  156MOL    H1118921   2.131   7.845   6.948  0.4022  1.4368 -1.3207
  156MOL    H1218922   2.076   8.004   6.977 -1.9387  0.8457 -3.0984
  156MOL    H1318923   1.872   7.972   6.879 -0.0656 -0.1271  0.1376
  156MOL    C1418924   2.002   7.913   6.719  0.0795  0.4650 -0.5541
  156MOL    C1518925   2.051   8.058   6.685  0.4570 -0.4211  0.0740
  156MOL   Cl1618926   1.913   8.173   6.705  0.0977 -0.0611  0.1891
  156MOL    H1718927   1.923   7.888   6.648 -0.0653  2.8064 -1.2470
  156MOL    H1818928   2.067   7.826   6.705 -1.4727 -0.6103 -1.2990
  156MOL    H1918929   2.119   8.097   6.761  0.2073 -0.5086  0.3406
  156MOL    C2018930   2.118   8.085   6.557 -0.7531 -0.0047  0.2609
  156MOL    C2118931   2.242   8.004   6.524 -0.1510 -0.2386 -0.6857
  156MOL   Cl2218932   2.380   8.083   6.599 -0.3576 -0.3212 -0.0999
  156MOL    H2318933   2.143   8.190   6.541  1.6240 -0.5675  0.0797
  156MOL    H2418934   2.039   8.067   6.484 -0.0117  1.2412 -0.8793
  156MOL    H2518935   2.238   7.901   6.557 -0.2771  0.5475  1.8874
  156MOL    C2618936   2.264   8.003   6.372  0.2039 -0.0530 -0.5770
  156MOL    C2718937   2.397   7.932   6.332 -0.1128  0.8243 -0.4384
  156MOL   Cl2818938   2.395   7.928   6.157 -0.1582  0.5251  0.3936
  156MOL    H2918939   2.272   8.101   6.325 -1.0135  0.7910  0.9341
  156MOL    H3018940   2.184   7.956   6.316 -0.9224  1.7443 -0.5274
  156MOL    H3118941   2.482   7.996   6.358 -0.3851  0.8111  0.5193
  156MOL    C3218942   2.431   7.786   6.379  0.2463  0.0404  0.6360
  156MOL    C3318943   2.328   7.672   6.355 -0.1768  0.1587 -0.1345
  156MOL   Cl3418944   2.219   7.652   6.498  0.1214 -0.4694 -0.1302
  156MOL    H3518945   2.457   7.796   6.485  2.9399 -0.8309  0.1145
  156MOL    H3618946   2.528   7.767   6.332 -0.1821  1.3456 -0.7851
  156MOL    H3718947   2.271   7.704   6.267 -0.9531 -2.1570 -0.4913
  156MOL    C3818948   2.379   7.531   6.319  0.5243  0.1452  0.0949
  156MOL    C3918949   2.439   7.527   6.175 -0.4118  1.3402 -0.5300
  156MOL   Cl4018950   2.320   7.577   6.056  0.2044 -0.1751 -0.1190
  156MOL    H4118951   2.305   7.451   6.327 -0.1942  0.9824  2.1363
  156MOL    H4218952   2.443   7.513   6.405 -1.8184  1.2648  2.1598
  156MOL    H4318953   2.525   7.594   6.173  0.5485  0.2006  1.1461
  156MOL    C4418954   2.482   7.381   6.153  0.0671  0.2838  0.1510
  156MOL    C4518955   2.564   7.353   6.020  0.3372 -0.0452 -0.1056
  156MOL   Cl4618956   2.597   7.181   6.020  0.1442  0.1064  0.2098
  156MOL    H4718957   2.395   7.316   6.148 -0.6958  1.2738  0.4070
  156MOL    H4818958   2.542   7.348   6.238 -0.1984 -1.1652 -0.2195
  156MOL    H4918959   2.509   7.374   5.929  1.7357 -1.0488 -1.2119
  156MOL    C5018960   2.691   7.438   6.017 -0.2053 -0.6364  0.3937
  156MOL    C5118961   2.805   7.410   6.123  0.6773  0.1567  0.0311
  156MOL   Cl5218962   2.768   7.525   6.253  0.2713 -0.2080  0.3395
  156MOL    H5318963   2.665   7.543   6.007 -0.1229 -0.4709  1.8101
  156MOL    H5418964   2.738   7.405   5.924 -0.7953 -0.2632 -0.0333
  156MOL    H5518965   2.794   7.311   6.167 -1.6551 -0.6087 -2.1576
  156MOL    C5618966   2.943   7.436   6.067  0.1104  0.4842  0.0135
  156MOL    C5718967   3.017   7.320   5.992  0.5343  0.6201  0.0891
  156MOL   Cl5818968   3.177   7.386   5.943  0.1315  0.6171  0.1135
  156MOL    H5918969   3.004   7.458   6.154  2.5430  0.9675 -1.7706
  156MOL    H6018970   2.940   7.522   6.000 -0.7716 -0.1801 -0.8287
  156MOL    H6118971   3.037   7.232   6.053 -0.5045  1.3655  1.5245
  156MOL    C6218972   2.938   7.267   5.869  0.1043 -0.0468 -0.1798
  156MOL    C6318973   3.002   7.142   5.793 -0.9759  0.1070  0.2976
  156MOL   Cl6418974   3.057   7.019   5.915 -0.0297  0.4311 -0.1333
  156MOL    H6518975   2.901   7.343   5.800  0.0550 -1.0830 -1.3217
  156MOL    H6618976   2.853   7.211   5.907  0.8350  0.1687  1.8509
  156MOL    H6718977   2.925   7.091   5.734 -1.1034  0.6916 -0.0504
  156MOL    C6818978   3.122   7.167   5.703  0.6644  0.8885  0.2366
  156MOL    C6918979   3.114   7.292   5.610 -1.0362 -0.6150  0.5446
  156MOL   Cl7018980   2.953   7.311   5.544  0.1540 -0.0575  0.4579
  156MOL    H7118981   3.134   7.092   5.624 -3.7897 -0.2183  0.4808
  156MOL    H7218982   3.216   7.169   5.759  1.0911  1.5388 -0.4857
  156MOL    H7318983   3.137   7.370   5.684  1.5017  0.6250 -1.4586
  156MOL    C7418984   3.217   7.301   5.494 -0.1004 -0.2349  0.5175
  156MOL    C7518985   3.239   7.439   5.441  0.0608 -0.8287  0.2027
  156MOL   Cl7618986   3.337   7.418   5.295 -0.1817  0.1863  0.3828
  156MOL    H7718987   3.176   7.238   5.415 -1.2952  2.3524 -1.0015
  156MOL    H7818988   3.319   7.273   5.520  0.7872  2.9733  0.7879
  156MOL    H7918989   3.141   7.479   5.413 -0.7712 -2.6175  0.5153
  156MOL    C8018990   3.300   7.548   5.529  0.6908  0.6087  0.3133
  156MOL    C8118991   3.299   7.686   5.460 -0.2144  0.1510 -0.0605
  156MOL   Cl8218992   3.408   7.779   5.556 -0.0890  0.0162 -0.0265
  156MOL    H8318993   3.397   7.506   5.554  1.3182  1.6257 -0.3605
  156MOL    H8418994   3.238   7.556   5.619  1.5877  0.3044  0.9634
  156MOL    H8518995   3.342   7.668   5.362  0.5689 -0.5912  0.4139
  156MOL    C8618996   3.153   7.751   5.451  0.6798 -0.2256 -0.2118
  156MOL    C8718997   3.069   7.767   5.583 -0.5222  0.7509  0.3712
  156MOL   Cl8818998   2.982   7.615   5.629 -0.0492  0.0788 -0.2747
  156MOL    H8918999   3.099   7.690   5.378  0.0930 -1.0719  0.9066
  156MOL    H9019000   3.174   7.849   5.408 -0.2627 -0.6510 -1.6953
  156MOL    H9119001   3.140   7.802   5.658 -0.6965  1.2758  0.2962
  156MOL    C9219002   2.961   7.874   5.565  0.1714  0.1874 -0.1365
  156MOL    C9319003   2.876   7.858   5.439  0.5820  0.1584 -0.3912
  156MOL   Cl9419004   2.961   7.931   5.298 -0.7274  0.0948 -0.0337
  156MOL    H9519005   3.009   7.970   5.550  0.2438  0.0252 -0.9565
  156MOL    H9619006   2.895   7.867   5.652  1.1943 -0.1386  0.6350
  156MOL    H9719007   2.862   7.754   5.410  0.0934  0.3191 -0.7390
  156MOL    C9819008   2.734   7.917   5.450  0.1996  0.0217  0.3048
  156MOL    C9919009   2.655   7.958   5.324  0.4845  0.1116 -0.9215
  156MOL  Cl10019010   2.497   8.031   5.383  0.1188 -0.1092 -0.2850
  156MOL   H10119011   2.756   8.006   5.508  2.8280  0.0654 -0.6639
  156MOL   H10219012   2.668   7.852   5.507 -0.3680  0.6586  0.3684
  156MOL   H10319013   2.721   8.032   5.279 -1.0661  1.2247 -1.4278
  156MOL   C10419014   2.635   7.849   5.223 -0.0528  0.2218  0.4607
  156MOL   C10519015   2.600   7.900   5.087  0.4848  0.8021  0.2766
  156MOL  Cl10619016   2.540   7.770   4.985 -0.3013  0.0696  0.3246
  156MOL   H10719017   2.551   7.782   5.244  0.4973 -1.2712 -1.8729
  156MOL   H10819018   2.709   7.768   5.214 -0.2212 -0.2215  2.6968
  156MOL   H10919019   2.518   7.968   5.109 -0.6916 -1.0959  1.9043
  156MOL   C11019020   2.718   7.959   5.020 -0.3172  0.4076  0.5210
  156MOL   C11119021   2.705   8.013   4.872  0.0838 -0.9308 -0.1907
  156MOL  Cl11219022   2.866   8.037   4.792  0.0653 -0.2275 -0.2361
  156MOL   H11319023   2.790   7.878   5.010 -0.4427  0.4354 -0.6951
  156MOL   H11419024   2.773   8.031   5.080 -0.9568  0.3302  1.2056
  156MOL   H11519025   2.660   7.942   4.802 -0.2944 -0.9685  0.0864
  156MOL   C11619026   2.621   8.151   4.861  0.4173  0.0926  0.5799
  156MOL   C11719027   2.613   8.215   4.727  0.4942 -0.1773 -0.3811
  156MOL  Cl11819028   2.509   8.358   4.749 -0.1082  0.2286 -0.1565
  156MOL   H11919029   2.649   8.214   4.946  0.9821 -0.7240  1.0119
  156MOL   H12019030   2.518   8.137   4.892  0.0892  0.2531 -0.4257
  156MOL   H12119031   2.713   8.248   4.698  1.5277 -0.3942  2.7764
  156MOL   H12219032   2.572   8.153   4.648  0.6553 -1.5501  0.5969
  157MOL     C119033   7.183   6.078   4.742  0.3470  0.0675 -0.3945
  157MOL     C219034   7.286   6.148   4.653 -0.1174  0.3498  0.6684
  157MOL    Cl319035   7.201   6.183   4.499  0.1394  0.1315  0.0649
  157MOL     H419036   7.227   6.049   4.838  0.7608 -0.8957 -0.8699
  157MOL     H519037   7.091   6.134   4.755  0.3107 -0.2063  0.5544
  157MOL     H619038   7.315   6.245   4.694 -0.7385  1.6993 -1.9451
  157MOL     H719039   7.155   5.980   4.703  2.5969 -1.5891  1.9778
  157MOL     C819040   7.423   6.077   4.620  0.6533  0.4758  0.1391
  157MOL     C919041   7.510   6.038   4.738  0.0286 -0.1160 -0.3992
  157MOL   Cl1019042   7.557   6.186   4.830 -0.6677 -0.0411  0.0216
  157MOL    H1119043   7.468   6.138   4.542 -0.3860  2.2021  0.8357
  157MOL    H1219044   7.401   5.978   4.582 -1.0321  0.7345  0.3911
  157MOL    H1319045   7.454   5.982   4.813 -1.6674  2.6451  0.4882
  157MOL    C1419046   7.640   5.959   4.701  0.5354  0.4490 -0.0969
  157MOL    C1519047   7.616   5.830   4.622  0.9396 -0.3055 -0.8141
  157MOL   Cl1619048   7.484   5.737   4.709  0.3670  0.2843  0.0874
  157MOL    H1719049   7.699   5.929   4.787  0.1408  0.4592  0.1758
  157MOL    H1819050   7.700   6.029   4.643 -1.5928  0.9894 -1.7495
  157MOL    H1919051   7.585   5.852   4.520  1.9729 -2.0190 -1.5196
  157MOL    C2019052   7.742   5.745   4.624  0.0047 -0.1646 -0.2683
  157MOL    C2119053   7.852   5.809   4.530  0.1568  0.6417 -0.6876
  157MOL   Cl2219054   7.948   5.683   4.436 -0.3186 -0.8766 -0.0074
  157MOL    H2319055   7.715   5.646   4.589  0.4847  0.1688 -1.6077
  157MOL    H2419056   7.785   5.727   4.722  0.6711 -2.7112 -1.0028
  157MOL    H2519057   7.813   5.880   4.458 -0.2583 -0.6530 -1.7513
  157MOL    C2619058   7.958   5.889   4.610  0.1814 -0.2458 -0.4672
  157MOL    C2719059   8.063   5.958   4.526  0.4001 -0.1832  0.4831
  157MOL   Cl2819060   8.159   6.056   4.635  0.3328 -0.4365 -0.0824
  157MOL    H2919061   7.999   5.832   4.693  0.8019  1.3358  0.3251
  157MOL    H3019062   7.906   5.974   4.655 -1.0103 -1.4441  0.4466
  157MOL    H3119063   8.140   5.890   4.490 -0.7593 -1.0880 -0.3149
  157MOL    C3219064   8.011   6.041   4.412 -0.2160 -0.0117  0.5790
  157MOL    C3319065   8.105   6.147   4.349 -0.7765  0.2297  0.2568
  157MOL   Cl3419066   8.027   6.245   4.223 -0.3483  0.0140 -0.0294
  157MOL    H3519067   7.925   6.094   4.454 -0.3338  1.3463 -1.3280
  157MOL    H3619068   7.962   5.969   4.346  0.9502 -2.3754  2.1957
  157MOL    H3719069   8.123   6.215   4.432 -1.0930 -1.4695  1.7745
  157MOL    C3819070   8.239   6.084   4.295  0.1094  0.6387  0.3374
  157MOL    C3919071   8.324   6.187   4.211  0.1005  0.1775  0.4869
  157MOL   Cl4019072   8.452   6.095   4.122  0.3003  0.4458  0.3089
  157MOL    H4119073   8.232   5.998   4.229 -1.3645  1.8543 -1.1138
  157MOL    H4219074   8.299   6.044   4.377  0.9356  1.3071  0.0634
  157MOL    H4319075   8.260   6.229   4.134 -0.5047 -0.3474  0.7013
  157MOL    C4419076   8.385   6.300   4.290  0.3198 -0.6953 -0.1891
  157MOL    C4519077   8.479   6.388   4.213 -0.9962  0.5588 -0.3462
  157MOL   Cl4619078   0.007   6.516   4.331  0.4532 -0.1601  0.3709
  157MOL    H4719079   8.421   6.254   4.382  1.7416  0.2106 -0.2746
  157MOL    H4819080   8.300   6.360   4.326 -0.3890 -1.0068 -1.3104
  157MOL    H4919081   0.039   6.325   4.190 -0.2992  1.4084 -0.1091
  157MOL    C5019082   8.429   6.458   4.087  0.5463 -0.0796  0.1125
  157MOL    C5119083   0.019   6.539   4.021  0.6003 -0.0237  0.1558
  157MOL   Cl5219084   8.469   6.614   3.877 -0.1123 -0.3416  0.3304
  157MOL    H5319085   8.340   6.516   4.113  0.6798  0.9465 -1.6575
  157MOL    H5419086   8.384   6.382   4.024 -1.6206 -0.0998  1.6438
  157MOL    H5519087   0.041   6.629   4.079 -2.0337  0.1866  0.8798
  157MOL    C5619088   0.148   6.469   3.976 -0.0793  0.0639 -0.6149
  157MOL    C5719089   0.281   6.549   3.993  0.6408 -0.3869  0.2857
  157MOL   Cl5819090   0.286   6.635   4.154 -0.2947 -0.2473  0.0345
  157MOL    H5919091   0.144   6.426   3.875  1.5794 -0.3261 -0.5246
  157MOL    H6019092   0.161   6.378   4.035  0.1349  0.2900 -0.3164
  157MOL    H6119093   0.370   6.486   3.984  0.7573 -0.4950  2.0181
  157MOL    C6219094   0.296   6.655   3.884 -0.1271 -0.5182 -0.2858
  157MOL    C6319095   0.310   6.597   3.741 -0.0493  0.2702  0.1339
  157MOL   Cl6419096   0.456   6.497   3.742 -0.0715  0.0682  0.4516
  157MOL    H6519097   0.377   6.728   3.896  0.4155 -0.6967 -2.5829
  157MOL    H6619098   0.212   6.724   3.892  0.2356 -0.1032 -0.0393
  157MOL    H6719099   0.234   6.524   3.712  0.1707  0.3535 -0.6555
  157MOL    C6819100   0.318   6.698   3.634  0.1338  0.3549  0.0923
  157MOL    C6919101   0.179   6.757   3.591  0.3590  0.7554  0.4499
  157MOL   Cl7019102   0.096   6.654   3.472 -0.1212  0.2142  0.0276
  157MOL    H7119103   0.369   6.651   3.550 -0.4714 -0.8000  0.3566
  157MOL    H7219104   0.383   6.778   3.668 -0.8948  2.6606 -3.0538
  157MOL    H7319105   0.114   6.774   3.677 -0.0200  0.0262  0.3118
  157MOL    C7419106   0.207   6.895   3.529  1.5265  0.1728 -0.2328
  157MOL    C7519107   0.089   6.975   3.468 -0.2937  0.0975 -0.3808
  157MOL   Cl7619108   0.163   7.127   3.413 -0.2837 -0.0663 -0.2358
  157MOL    H7719109   0.267   6.868   3.442  0.5629 -1.4629 -0.4030
  157MOL    H7819110   0.264   6.960   3.596  0.8391 -0.2475  0.7592
  157MOL    H7919111   0.067   6.930   3.371 -1.0562 -0.4241  0.0351
  157MOL    C8019112   8.488   6.999   3.557 -0.0576 -0.3253 -0.2995
  157MOL    C8119113   8.505   7.115   3.660  0.2268  0.4335  0.8689
  157MOL   Cl8219114   0.062   7.036   3.796  0.2859  0.1151  0.0613
  157MOL    H8319115   8.469   6.907   3.612  0.1401 -0.6233 -0.7293
  157MOL    H8419116   8.400   7.012   3.494 -1.0053 -1.9672  0.6380
  157MOL    H8519117   0.044   7.196   3.626  1.0653  0.3860  2.3050
  157MOL    C8619118   8.370   7.161   3.715 -0.1510 -0.1426 -0.2537
  157MOL    C8719119   8.302   7.260   3.630 -0.2456 -0.2919  0.8207
  157MOL   Cl8819120   8.376   7.414   3.649  0.1529  0.1989 -0.1653
  157MOL    H8919121   8.372   7.190   3.820 -0.8312 -1.9755  0.2902
  157MOL    H9019122   8.308   7.072   3.721 -0.4908  0.1723  1.2672
  157MOL    H9119123   8.316   7.231   3.526 -0.3057 -0.3582  0.8308
  157MOL    C9219124   8.145   7.270   3.663 -0.2718 -0.9883  0.4041
  157MOL    C9319125   8.053   7.143   3.630 -0.1921 -0.6244 -0.4341
  157MOL   Cl9419126   8.087   7.081   3.468 -0.1841 -0.2094  0.1304
  157MOL    H9519127   8.096   7.346   3.602  0.8071 -0.6913 -0.1096
  157MOL    H9619128   8.128   7.291   3.769  0.2883 -1.0503  0.5073
  157MOL    H9719129   8.084   7.063   3.697 -1.0474 -1.3450 -0.8964
  157MOL    C9819130   7.906   7.169   3.641  0.3567  0.5473 -0.1089
  157MOL    C9919131   7.867   7.209   3.792  0.0838 -0.1522  0.3205
  157MOL  Cl10019132   7.834   7.069   3.894  0.2091 -0.2698  0.1128
  157MOL   H10119133   7.857   7.075   3.617  3.2447 -1.4854  1.6710
  157MOL   H10219134   7.881   7.239   3.562 -0.5784  0.9190  0.5154
  157MOL   H10319135   7.950   7.264   3.838  1.7836 -0.7028 -1.9799
  157MOL   C10419136   7.744   7.297   3.783 -0.1339 -0.0895  0.5848
  157MOL   C10519137   7.676   7.339   3.916 -0.2598 -0.7934  0.7225
  157MOL  Cl10619138   7.525   7.414   3.867  0.2459  0.1800  0.1166
  157MOL   H10719139   7.670   7.246   3.721  0.5157 -1.6591  1.0820
  157MOL   H10819140   7.768   7.386   3.726  0.7196 -1.6186 -1.5109
  157MOL   H10919141   7.646   7.245   3.963  0.2282  0.6003  3.9129
  157MOL   C11019142   7.761   7.427   4.008 -0.1400 -0.0189 -0.1914
  157MOL   C11119143   7.701   7.447   4.147  0.0940  0.3119 -0.6483
  157MOL  Cl11219144   7.795   7.565   4.242 -0.0934  0.4159  0.1543
  157MOL   H11319145   7.787   7.517   3.951 -0.7766  0.9868  1.0821
  157MOL   H11419146   7.858   7.380   4.018 -0.5320 -0.6487  0.6383
  157MOL   H11519147   7.603   7.494   4.145  0.0024  0.1649  0.3224
  157MOL   C11619148   7.692   7.306   4.225  0.2223 -0.3626  0.1024
  157MOL   C11719149   7.620   7.314   4.361 -0.1898 -0.6602 -0.7508
  157MOL  Cl11819150   7.652   7.160   4.457 -0.2769 -0.6615 -0.5221
  157MOL   H11919151   7.784   7.247   4.229  0.5274 -0.0942 -2.2021
  157MOL   H12019152   7.630   7.239   4.167  2.5312 -0.4491 -2.3751
  157MOL   H12119153   7.645   7.401   4.423 -2.4240  0.2594 -1.0899
  157MOL   H12219154   7.512   7.323   4.353 -0.3682 -2.0398  0.0845
  158MOL     C119155   0.440   7.516   1.023 -0.3464 -0.5969  0.4729
  158MOL     C219156   0.314   7.514   0.938 -0.1006 -0.3380  0.2617
  158MOL    Cl319157   0.255   7.682   0.916  0.5011  0.2515  0.0283
  158MOL     H419158   0.463   7.412   1.046 -1.0557 -0.8588  0.0056
  158MOL     H519159   0.519   7.566   0.966  0.2632  0.4165  2.1609
  158MOL     H619160   0.343   7.464   0.846  0.7035  1.7522 -0.6663
  158MOL     H719161   0.420   7.572   1.114 -3.5830 -1.9475  0.6639
  158MOL     C819162   0.203   7.433   1.007 -0.1062 -0.4436 -0.6157
  158MOL     C919163   0.091   7.381   0.913 -0.6324  0.3760 -0.8329
  158MOL   Cl1019164   8.482   7.311   1.017 -0.0685 -0.0017  0.0571
  158MOL    H1119165   0.166   7.487   1.094 -2.2205 -2.4276 -0.2589
  158MOL    H1219166   0.243   7.338   1.041  0.4243  0.1081  0.3069
  158MOL    H1319167   0.039   7.461   0.860 -1.2021  0.5124 -0.0629
  158MOL    C1419168   0.133   7.272   0.821  0.0034  0.5271  0.7713
  158MOL    C1519169   0.027   7.208   0.736 -0.1091 -0.4131  0.2866
  158MOL   Cl1619170   0.079   7.056   0.666 -0.2085  0.4410  0.3261
  158MOL    H1719171   0.190   7.195   0.872  0.7011  0.2875 -0.3476
  158MOL    H1819172   0.202   7.303   0.742 -1.4882 -1.7069 -1.4774
  158MOL    H1919173   8.455   7.196   0.784 -2.5116 -0.8739 -4.4120
  158MOL    C2019174   8.495   7.302   0.619  0.3214 -0.6636  0.4107
  158MOL    C2119175   8.374   7.238   0.538 -0.4093 -0.6118 -0.7081
  158MOL   Cl2219176   8.335   7.337   0.391  0.3494  0.0739  0.0158
  158MOL    H2319177   0.055   7.321   0.554 -0.0440  1.2097  0.4567
  158MOL    H2419178   8.471   7.403   0.652  1.5574 -0.6836  1.4065
  158MOL    H2519179   8.424   7.148   0.502 -1.6209 -2.1536  1.3724
  158MOL    C2619180   8.260   7.190   0.619  0.0047  0.1343  0.3648
  158MOL    C2719181   8.167   7.303   0.670 -0.2643 -1.3286 -0.9988
  158MOL   Cl2819182   8.241   7.368   0.814  0.5039 -0.2871  0.2989
  158MOL    H2919183   8.293   7.121   0.696 -0.3487  0.5549  0.9031
  158MOL    H3019184   8.193   7.134   0.554  1.4560  0.7344 -1.7259
  158MOL    H3119185   8.162   7.381   0.594  4.2968 -0.9177 -0.9966
  158MOL    C3219186   8.028   7.251   0.705 -0.3695  0.4960  0.2866
  158MOL    C3319187   7.926   7.350   0.759 -0.0971 -0.5057 -0.4331
  158MOL   Cl3419188   7.775   7.267   0.789 -0.1144  0.1955 -0.1203
  158MOL    H3519189   8.044   7.166   0.772  0.6267  0.4246 -0.0449
  158MOL    H3619190   7.992   7.209   0.611  0.3953  0.6282 -0.0688
  158MOL    H3719191   7.964   7.387   0.855 -1.2246 -0.4439 -0.0064
  158MOL    C3819192   7.892   7.469   0.662  0.5962  0.3786  0.7633
  158MOL    C3919193   7.830   7.582   0.734  0.0997 -0.4864  0.6261
  158MOL   Cl4019194   7.778   7.689   0.602 -0.6195 -0.1438 -0.4612
  158MOL    H4119195   7.836   7.443   0.572  2.5232  3.6035 -1.4864
  158MOL    H4219196   7.987   7.506   0.623 -1.3131  2.7551 -1.8706
  158MOL    H4319197   7.743   7.547   0.789 -0.8213  0.4570 -0.2249
  158MOL    C4419198   7.916   7.660   0.827  0.1998  0.6523  0.4867
  158MOL    C4519199   7.859   7.795   0.878 -0.3555  0.1472 -0.3509
  158MOL   Cl4619200   8.005   7.894   0.912  0.1430  0.0327 -0.0735
  158MOL    H4719201   8.012   7.679   0.779 -1.1807  1.0622 -2.1849
  158MOL    H4819202   7.943   7.603   0.916  0.5777  0.6320  0.3563
  158MOL    H4919203   7.805   7.838   0.794  1.3717  0.4652 -1.3200
  158MOL    C5019204   7.771   7.771   1.008  1.5707  1.2724  0.0234
  158MOL    C5119205   7.662   7.871   1.020  0.6365 -0.1131  0.5261
  158MOL   Cl5219206   7.731   8.022   1.079 -0.0348 -0.0531  0.1188
  158MOL    H5319207   7.841   7.777   1.091  0.9702  0.4252  0.6052
  158MOL    H5419208   7.722   7.674   1.010  2.6059  0.7635  1.2852
  158MOL    H5519209   7.614   7.889   0.924  1.7591 -3.9419 -0.8561
  158MOL    C5619210   7.551   7.828   1.120 -0.1079 -0.9225 -0.1576
  158MOL    C5719211   7.443   7.933   1.128  0.4644  0.3962  0.7217
  158MOL   Cl5819212   7.320   7.865   1.242 -0.0886  0.1911  0.1973
  158MOL    H5919213   7.588   7.797   1.218 -0.5068  1.2350  0.7057
  158MOL    H6019214   7.504   7.738   1.080  0.2758 -0.2507 -2.1962
  158MOL    H6119215   7.475   8.030   1.167 -1.9390  0.8362  1.7169
  158MOL    C6219216   7.367   7.953   0.995 -0.4293 -0.6061 -0.3890
  158MOL    C6319217   7.253   8.054   1.000  0.5887 -0.1635  0.4941
  158MOL   Cl6419218   7.201   8.062   0.832  0.3451 -0.2433  0.0340
  158MOL    H6519219   7.324   7.856   0.969 -1.3449 -0.6975  1.3419
  158MOL    H6619220   7.430   7.994   0.917 -0.7686 -0.3527 -0.5327
  158MOL    H6719221   7.171   8.014   1.061 -0.3606 -0.2644 -0.8225
  158MOL    C6819222   7.296   8.195   1.046 -0.5910 -0.3222  0.2456
  158MOL    C6919223   7.207   8.315   1.011  0.3736 -0.2220  0.4646
  158MOL   Cl7019224   7.304   8.461   1.044 -0.0615 -0.2309  0.2115
  158MOL    H7119225   7.396   8.209   1.004 -1.5667 -1.1732 -2.5148
  158MOL    H7219226   7.311   8.203   1.154 -2.0759  0.3780  0.4045
  158MOL    H7319227   7.190   8.318   0.903 -2.1974 -0.0010  0.8332
  158MOL    C7419228   7.067   8.319   1.066 -0.7996 -0.0585  0.4373
  158MOL    C7519229   6.967   8.427   0.998 -0.0667 -0.7545 -0.0573
  158MOL   Cl7619230   6.824   8.431   1.104 -0.4382  0.0096 -0.0934
  158MOL    H7719231   7.075   8.352   1.169 -0.4122  0.3680  0.2697
  158MOL    H7819232   7.022   8.220   1.062  0.7901 -0.7296 -3.4968
  158MOL    H7919233   7.018   8.523   0.992  0.0025 -0.8799 -1.8045
  158MOL    C8019234   6.926   8.388   0.857 -0.7059 -0.0475  0.1463
  158MOL    C8119235   6.906   8.505   0.759  0.4732  0.6491  0.3945
  158MOL   Cl8219236   6.732   0.021   0.749  0.3609  0.1311 -0.1710
  158MOL    H8319237   6.839   8.322   0.861 -3.5546  3.4616 -1.7866
  158MOL    H8419238   6.993   8.313   0.813  0.2814  0.5384  0.6461
  158MOL    H8519239   6.955   0.071   0.795  0.6318  1.0098 -0.7144
  158MOL    C8619240   6.950   8.485   0.610 -0.4144 -0.0939  0.0693
  158MOL    C8719241   7.101   8.446   0.584  0.0895  0.0047  0.2609
  158MOL   Cl8819242   7.207   0.036   0.654 -0.2720  0.2979  0.3338
  158MOL    H8919243   6.938   0.047   0.547 -1.8516 -0.6470 -0.4454
  158MOL    H9019244   6.879   8.407   0.581  0.6561 -1.2585  0.4956
  158MOL    H9119245   7.120   8.350   0.631 -1.2899  0.1467  1.1276
  158MOL    C9219246   7.114   8.433   0.434 -0.2897  0.0074 -0.4908
  158MOL    C9319247   7.056   8.297   0.374  0.0141  0.3685 -0.5658
  158MOL   Cl9419248   7.127   8.141   0.439 -0.0408 -0.2820 -0.4353
  158MOL    H9519249   7.221   8.442   0.419 -0.2906  0.2228 -0.3703
  158MOL    H9619250   7.073   8.520   0.381 -2.0689 -0.1361  0.6263
  158MOL    H9719251   6.950   8.287   0.397 -0.0112  0.4125 -0.6612
  158MOL    C9819252   7.070   8.292   0.213 -0.3844 -0.4012  0.0304
  158MOL    C9919253   7.012   8.162   0.152  0.4938  0.7104  0.6408
  158MOL  Cl10019254   7.048   8.158   8.502  0.2330 -0.0194  0.0791
  158MOL   H10119255   7.178   8.282   0.201 -0.4972 -2.5152  0.4507
  158MOL   H10219256   7.035   8.383   0.166  1.0450  0.4212  0.5323
  158MOL   H10319257   7.061   8.078   0.202 -3.0415 -2.1299 -0.4884
  158MOL   C10419258   6.860   8.141   0.164  0.5177  0.0395 -0.2295
  158MOL   C10519259   6.807   8.002   0.104 -0.4368 -0.2296  0.0360
  158MOL  Cl10619260   6.628   8.006   0.084 -0.0552 -0.0563  0.0893
  158MOL   H10719261   6.803   8.217   0.109  0.2573  0.6105  0.8154
  158MOL   H10819262   6.829   8.150   0.268  1.9664 -1.3254  0.3325
  158MOL   H10919263   6.828   7.972   0.001 -2.4131 -1.2497 -0.1103
  158MOL   C11019264   6.840   7.891   0.210  0.0389  0.1513  0.1396
  158MOL   C11119265   6.791   7.746   0.175 -0.3420  0.0375 -0.0573
  158MOL  Cl11219266   6.800   7.652   0.325 -0.0776  0.1551  0.2876
  158MOL   H11319267   6.794   7.923   0.303  0.1237 -0.3833  0.3668
  158MOL   H11419268   6.947   7.900   0.224 -0.0150  1.4061 -0.1984
  158MOL   H11519269   6.688   7.752   0.139 -0.4469  2.0049  0.5034
  158MOL   C11619270   6.880   7.685   0.058 -0.6272  0.3069 -0.1378
  158MOL   C11719271   6.851   7.538   0.029 -0.3194 -0.1721  0.0101
  158MOL  Cl11819272   6.939   7.424   0.133 -0.2016  0.3467  0.2025
  158MOL   H11919273   6.985   7.703   0.079 -0.5634 -0.4143  0.1781
  158MOL   H12019274   6.853   7.747   8.498 -0.9130 -0.6250 -0.7289
  158MOL   H12119275   6.745   7.513   0.032 -0.2447 -0.3472  1.9356
  158MOL   H12219276   6.886   7.514   8.454 -0.6334  1.9050 -0.6132
  159MOL     C119277   2.342   2.926   2.286  0.3940  0.3680  0.2393
  159MOL     C219278   2.241   2.831   2.345 -1.0818 -0.3548 -0.0895
  159MOL    Cl319279   2.077   2.858   2.274 -0.1400 -0.1004  0.1906
  159MOL     H419280   2.339   3.030   2.317  2.9456  0.0912  1.4925
  159MOL     H519281   2.441   2.894   2.319  0.7558  0.4029 -0.7845
  159MOL     H619282   2.276   2.734   2.308 -1.5033 -1.3137  1.9781
  159MOL     H719283   2.348   2.910   2.178 -0.3559 -2.8855  0.6073
  159MOL     C819284   2.235   2.835   2.500  0.0132  0.4041 -0.4146
  159MOL     C919285   2.167   2.720   2.571 -0.0744  0.7148 -0.0555
  159MOL   Cl1019286   2.168   2.768   2.744  0.1070  0.2231 -0.0147
  159MOL    H1119287   2.191   2.927   2.537 -1.3346 -0.4119  0.0458
  159MOL    H1219288   2.335   2.840   2.545 -0.3672  2.3649  0.2466
  159MOL    H1319289   2.063   2.712   2.541 -0.1681 -0.3108  0.5229
  159MOL    C1419290   2.252   2.586   2.550  0.1148 -0.3568  0.5388
  159MOL    C1519291   2.201   2.472   2.649  0.0709 -0.0666 -0.3588
  159MOL   Cl1619292   2.324   2.345   2.638  0.1546 -0.2915 -0.1174
  159MOL    H1719293   2.357   2.602   2.576  0.3129  1.3258 -1.2803
  159MOL    H1819294   2.255   2.554   2.446  1.6463 -1.0446  0.7889
  159MOL    H1919295   2.189   2.508   2.751  0.5415 -0.2186 -0.2474
  159MOL    C2019296   2.071   2.397   2.626 -0.4929  0.7984  0.3190
  159MOL    C2119297   2.059   2.337   2.483  0.3520  0.2932  0.5661
  159MOL   Cl2219298   1.993   2.457   2.369 -0.0960 -0.1658 -0.1059
  159MOL    H2319299   1.990   2.469   2.640 -1.8582 -0.3819 -1.3703
  159MOL    H2419300   2.062   2.321   2.703 -0.4238 -0.7103 -1.1371
  159MOL    H2519301   2.159   2.310   2.450  0.0964  0.0530 -0.0092
  159MOL    C2619302   1.976   2.202   2.483 -0.5219 -0.0858  0.3263
  159MOL    C2719303   2.035   2.080   2.558  0.0017 -0.4324  0.9911
  159MOL   Cl2819304   2.179   2.031   2.459 -0.1269 -0.2648 -0.4715
  159MOL    H2919305   1.965   2.160   2.383  2.0607  1.2237 -0.5466
  159MOL    H3019306   1.872   2.213   2.514 -0.8015  1.0949 -1.0043
  159MOL    H3119307   2.059   2.101   2.662 -0.2156  2.6552  0.4760
  159MOL    C3219308   1.950   1.954   2.552 -0.0651  0.3835 -0.6822
  159MOL    C3319309   1.848   1.953   2.670 -0.7293  0.4449 -0.0711
  159MOL   Cl3419310   1.936   1.936   2.825 -0.0807 -0.1652  0.0611
  159MOL    H3519311   2.017   1.868   2.545 -0.7578 -0.2858  0.7271
  159MOL    H3619312   1.898   1.944   2.456  1.8733 -0.0233 -1.7096
  159MOL    H3719313   1.804   2.053   2.665 -0.1543  0.6914 -0.3971
  159MOL    C3819314   1.743   1.847   2.662 -0.2470 -0.0786 -0.2791
  159MOL    C3919315   1.662   1.845   2.536 -0.0150 -0.3091  0.0977
  159MOL   Cl4019316   1.573   1.997   2.512 -0.2433  0.0292  0.0208
  159MOL    H4119317   1.675   1.854   2.747 -0.3551 -1.9670 -0.1918
  159MOL    H4219318   1.788   1.751   2.689  1.2746  0.7180  0.0709
  159MOL    H4319319   1.720   1.825   2.446 -1.0806 -0.3624 -0.5820
  159MOL    C4419320   1.542   1.748   2.553 -0.4193 -0.3274 -0.4163
  159MOL    C4519321   1.582   1.598   2.559 -0.1400  0.1299  0.2034
  159MOL   Cl4619322   1.684   1.537   2.431  0.0644  0.5051 -0.0093
  159MOL    H4719323   1.474   1.754   2.467  1.3925  1.0960 -1.7897
  159MOL    H4819324   1.477   1.778   2.635 -1.1687 -2.1699 -0.3150
  159MOL    H4919325   1.639   1.582   2.651  1.5077 -1.3133 -1.0260
  159MOL    C5019326   1.466   1.502   2.574  0.1364  0.1926 -0.2194
  159MOL    C5119327   1.501   1.349   2.600 -0.8626 -0.4315 -0.4194
  159MOL   Cl5219328   1.357   1.243   2.599 -0.2164 -0.1176  0.0318
  159MOL    H5319329   1.398   1.503   2.490 -0.8603  2.1120  0.5890
  159MOL    H5419330   1.404   1.535   2.657 -1.4386 -0.2629 -1.2145
  159MOL    H5519331   1.555   1.313   2.513  0.2313  2.5568 -1.0238
  159MOL    C5619332   1.590   1.327   2.724  0.4071 -0.8778  0.2265
  159MOL    C5719333   1.529   1.388   2.857 -0.4658 -0.6985  0.4352
  159MOL   Cl5819334   1.638   1.516   2.921 -0.0096 -0.1772 -0.2624
  159MOL    H5919335   1.690   1.370   2.716  0.1490  0.5420  3.5810
  159MOL    H6019336   1.595   1.219   2.741  3.3110 -0.7155  0.7806
  159MOL    H6119337   1.431   1.434   2.846 -0.8416 -1.5944  0.0401
  159MOL    C6219338   1.505   1.288   2.959  0.4216 -0.0567  0.3263
  159MOL    C6319339   1.468   1.322   3.104  0.1894 -0.5197 -0.0271
  159MOL   Cl6419340   1.460   1.154   3.165  0.4795  0.2557 -0.5347
  159MOL    H6519341   1.601   1.240   2.971 -0.2934 -2.2994 -2.4341
  159MOL    H6619342   1.436   1.211   2.925  0.0998  0.4262 -0.1299
  159MOL    H6719343   1.550   1.369   3.158  0.1710  1.6115 -1.7842
  159MOL    C6819344   1.340   1.401   3.123 -0.2419 -0.3080  0.0199
  159MOL    C6919345   1.280   1.403   3.267 -0.1641 -0.2711  0.2659
  159MOL   Cl7019346   1.128   1.488   3.269 -0.3055  0.2042 -0.5160
  159MOL    H7119347   1.274   1.371   3.042 -0.1163  0.2516 -0.2883
  159MOL    H7219348   1.371   1.503   3.098 -0.5610  0.2946  1.9773
  159MOL    H7319349   1.262   1.300   3.299  1.3090  0.2741  2.9709
  159MOL    C7419350   1.373   1.462   3.379 -0.1298  0.0703  0.5326
  159MOL    C7519351   1.457   1.362   3.452  0.2386 -0.1460  0.4520
  159MOL   Cl7619352   1.350   1.270   3.557  0.4416 -0.5721 -0.3996
  159MOL    H7719353   1.307   1.504   3.454  0.0426  0.1612  0.6329
  159MOL    H7819354   1.436   1.545   3.346 -0.8274  1.0508  1.6466
  159MOL    H7919355   1.489   1.284   3.383 -0.5764 -0.5618  0.5377
  159MOL    C8019356   1.576   1.416   3.526  0.6627  0.5953 -0.6792
  159MOL    C8119357   1.699   1.467   3.440  0.1918  0.1940 -0.2027
  159MOL   Cl8219358   1.746   1.334   3.332 -0.0724  0.2212 -0.4214
  159MOL    H8319359   1.608   1.339   3.597 -0.0358  1.7389  0.8980
  159MOL    H8419360   1.542   1.495   3.592  0.3154  0.3277 -0.5344
  159MOL    H8519361   1.661   1.552   3.384  0.0736  1.0269  1.1204
  159MOL    C8619362   1.821   1.521   3.514 -0.7972 -0.2246 -0.0149
  159MOL    C8719363   1.785   1.622   3.624  0.5062  0.3782  0.2227
  159MOL   Cl8819364   1.714   1.779   3.558  0.1168 -0.5845  0.3266
  159MOL    H8919365   1.893   1.550   3.437 -1.8751 -2.0300 -1.7574
  159MOL    H9019366   1.873   1.437   3.561  2.0082  1.3719 -0.1839
  159MOL    H9119367   1.716   1.576   3.696  1.1817  1.9570  1.9142
  159MOL    C9219368   1.900   1.655   3.712  0.2166  0.3373  0.5953
  159MOL    C9319369   1.863   1.667   3.862 -0.4020 -0.2591 -0.5288
  159MOL   Cl9419370   1.839   1.507   3.931  0.2520 -0.2584  0.0533
  159MOL    H9519371   1.940   1.749   3.672  1.6338 -0.9268 -1.0386
  159MOL    H9619372   1.993   1.598   3.707 -0.6601 -0.9902 -1.4748
  159MOL    H9719373   1.954   1.712   3.900 -0.4198 -0.5142 -0.1794
  159MOL    C9819374   1.743   1.754   3.906  0.5301 -0.1390  0.0676
  159MOL    C9919375   1.769   1.908   3.889 -0.5107  1.1671  0.9811
  159MOL  Cl10019376   1.919   1.970   3.971  0.0259  0.3764  0.0445
  159MOL   H10119377   1.735   1.750   4.015  0.2712  0.9121  0.0973
  159MOL   H10219378   1.650   1.728   3.856  0.5899  0.5541 -0.4134
  159MOL   H10319379   1.793   1.923   3.784 -0.0438  0.1678  0.9367
  159MOL   C10419380   1.639   1.988   3.927  0.3605 -0.0154  0.2185
  159MOL   C10519381   1.525   1.984   3.820  0.9396 -0.1486 -0.4207
  159MOL  Cl10619382   1.563   2.079   3.677  0.5126  0.4333  0.0401
  159MOL   H10719383   1.666   2.092   3.943 -0.0992  0.5042 -2.2392
  159MOL   H10819384   1.607   1.963   4.029 -2.3173  1.8732 -0.1156
  159MOL   H10919385   1.526   1.882   3.780  2.5355 -0.4429  0.3391
  159MOL   C11019386   1.382   2.025   3.868  0.4122 -0.6458 -0.2346
  159MOL   C11119387   1.324   1.948   3.990 -0.0909  0.2760 -0.2042
  159MOL  Cl11219388   1.334   1.764   3.969 -0.0766  0.0621 -0.1071
  159MOL   H11319389   1.310   2.017   3.787 -0.4030 -0.9177  0.5061
  159MOL   H11419390   1.376   2.126   3.908 -1.2589 -0.4797 -0.8901
  159MOL   H11519391   1.391   1.978   4.071  0.3600 -1.7894  0.1994
  159MOL   C11619392   1.180   1.977   4.014 -0.6862 -0.6411 -0.2739
  159MOL   C11719393   1.133   1.970   4.156 -0.1219 -0.4801 -0.3015
  159MOL  Cl11819394   1.226   2.070   4.265  0.0717 -0.0275  0.1522
  159MOL   H11919395   1.110   1.907   3.967 -0.6650 -0.7213 -0.1858
  159MOL   H12019396   1.167   2.072   3.962  0.7087 -0.3998 -0.1962
  159MOL   H12119397   1.031   1.999   4.181  0.1702 -0.8373  1.3845
  159MOL   H12219398   1.147   1.866   4.186  2.1419  0.0001  0.4097
  160MOL     C119399   7.410   7.982   4.369  0.2059 -0.2948  0.0787
  160MOL     C219400   7.419   7.860   4.286  0.0752 -0.5965  0.6275
  160MOL    Cl319401   7.389   7.716   4.383 -0.0316 -0.2154  0.0733
  160MOL     H419402   7.493   8.009   4.435 -0.1651  0.3400  0.2883
  160MOL     H519403   7.414   8.069   4.304 -0.4442 -0.7799 -0.6090
  160MOL     H619404   7.342   7.865   4.209 -1.4984 -1.2655  2.1423
  160MOL     H719405   7.320   8.002   4.427  1.6771  1.2857  1.9029
  160MOL     C819406   7.566   7.837   4.230 -0.7937 -0.0799  0.1326
  160MOL     C919407   7.580   7.886   4.084  0.5796 -0.4952  0.5399
  160MOL   Cl1019408   7.457   7.790   3.987  0.0367  0.1011  0.5983
  160MOL    H1119409   7.596   7.733   4.244  2.5810  0.9166  0.8842
  160MOL    H1219410   7.647   7.886   4.285  0.4184 -2.3285  0.3985
  160MOL    H1319411   7.546   7.989   4.074 -0.5843 -0.8351  0.9024
  160MOL    C1419412   7.715   7.877   4.015  0.1529  0.3626 -0.2695
  160MOL    C1519413   7.825   7.959   4.086 -0.0562  0.1611  0.0817
  160MOL   Cl1619414   7.785   8.130   4.121 -0.5669  0.3192  0.1721
  160MOL    H1719415   7.705   7.925   3.918  0.3691  1.9640  0.4823
  160MOL    H1819416   7.743   7.774   3.993 -1.5573 -0.3490  0.7589
  160MOL    H1919417   7.847   7.917   4.184  0.1900 -0.6192 -0.3043
  160MOL    C2019418   7.961   7.961   4.006 -0.3623 -0.5353 -0.7466
  160MOL    C2119419   8.024   7.816   4.006  0.2277 -0.2120 -0.1977
  160MOL   Cl2219420   8.125   7.803   4.150  0.3815 -0.3100  0.2271
  160MOL    H2319421   8.031   8.030   4.054 -0.6394 -1.7227  1.4119
  160MOL    H2419422   7.936   7.997   3.906 -1.6884 -2.3756 -1.0940
  160MOL    H2519423   7.957   7.730   4.011  0.6582 -0.8048 -3.3843
  160MOL    C2619424   8.115   7.792   3.884  0.1855 -0.2667  0.0721
  160MOL    C2719425   8.046   7.791   3.750 -0.0486  0.7012 -0.1331
  160MOL   Cl2819426   7.917   7.660   3.749 -0.2300  0.2264  0.1290
  160MOL    H2919427   8.168   7.697   3.897  1.8882  0.5719 -0.6219
  160MOL    H3019428   8.185   7.875   3.894  0.1972 -0.2373 -0.2573
  160MOL    H3119429   7.992   7.882   3.724 -0.3284  1.4145  2.8124
  160MOL    C3219430   8.151   7.761   3.644 -0.1426  0.2649  0.0226
  160MOL    C3319431   8.106   7.749   3.496  0.5225 -0.4512  0.2382
  160MOL   Cl3419432   8.233   7.672   3.404 -0.3227  0.1919  0.4274
  160MOL    H3519433   8.200   7.667   3.669 -2.7771 -0.7880  1.3895
  160MOL    H3619434   8.226   7.840   3.638  0.1783  0.1330  2.0361
  160MOL    H3719435   8.017   7.687   3.487 -1.0557  2.0111 -1.8057
  160MOL    C3819436   8.080   7.886   3.423 -0.0471 -0.3695  0.0350
  160MOL    C3919437   8.009   7.874   3.281 -0.0495  0.2537 -0.1016
  160MOL   Cl4019438   7.993   8.043   3.217 -0.2479 -0.0760 -0.1377
  160MOL    H4119439   8.176   7.930   3.395 -1.0610  1.1536 -1.1481
  160MOL    H4219440   8.015   7.950   3.483 -0.4844 -1.0746  0.3171
  160MOL    H4319441   8.081   7.826   3.214 -1.7714 -0.5301 -1.4366
  160MOL    C4419442   7.875   7.800   3.279  0.5650 -0.5481 -0.2270
  160MOL    C4519443   7.808   7.780   3.142 -0.3072 -0.2699 -0.6129
  160MOL   Cl4619444   7.918   7.748   3.004  0.1487 -0.2765  0.5233
  160MOL    H4719445   7.806   7.852   3.345 -0.2580 -0.5192 -1.1003
  160MOL    H4819446   7.884   7.700   3.323  1.6074 -0.7849 -0.9503
  160MOL    H4919447   7.749   7.689   3.147  1.0446 -1.1925 -1.2596
  160MOL    C5019448   7.713   7.893   3.088 -0.3542  0.5390 -0.6480
  160MOL    C5119449   7.600   7.864   2.986  0.7786 -0.3142  0.8903
  160MOL   Cl5219450   7.554   8.024   2.926 -0.0609 -0.0042 -0.1227
  160MOL    H5319451   7.775   7.967   3.038 -1.6719 -0.1715 -3.3845
  160MOL    H5419452   7.672   7.950   3.171  1.3620 -0.9138  1.2570
  160MOL    H5519453   7.643   7.807   2.904 -1.0545 -2.6029  1.4996
  160MOL    C5619454   7.480   7.792   3.048 -0.1208  0.5998  0.5554
  160MOL    C5719455   7.352   7.788   2.959  0.0876  0.7925  0.3843
  160MOL   Cl5819456   7.219   7.686   3.024 -0.0621  0.1117  0.0086
  160MOL    H5919457   7.444   7.836   3.140 -0.3179 -1.1446  1.3297
  160MOL    H6019458   7.507   7.687   3.062  0.0801  0.4052 -1.1009
  160MOL    H6119459   7.309   7.888   2.962  1.2298  1.2423  2.7709
  160MOL    C6219460   7.385   7.738   2.811 -0.0757 -0.0534  0.7756
  160MOL    C6319461   7.286   7.787   2.701  0.4356 -0.0411  0.0442
  160MOL   Cl6419462   7.334   7.687   2.549  0.2234  0.3426 -0.5109
  160MOL    H6519463   7.394   7.630   2.820 -2.4632 -0.6058 -2.6170
  160MOL    H6619464   7.476   7.783   2.772 -0.0984 -0.3017  0.4446
  160MOL    H6719465   7.187   7.750   2.728 -0.2949  1.3241 -0.7200
  160MOL    C6819466   7.277   7.940   2.682  0.2223 -0.4123 -0.2636
  160MOL    C6919467   7.225   7.967   2.536 -0.4183 -0.3497 -0.1670
  160MOL   Cl7019468   7.260   8.139   2.503 -0.2838  0.1019  0.1656
  160MOL    H7119469   7.373   7.989   2.697 -0.0280  0.3131 -0.9824
  160MOL    H7219470   7.221   7.985   2.764 -2.4197 -0.4814 -1.9669
  160MOL    H7319471   7.290   7.919   2.463 -0.3931 -2.4642  1.1837
  160MOL    C7419472   7.078   7.941   2.518  0.2356  0.0278 -0.0417
  160MOL    C7519473   7.020   7.958   2.372 -0.5606 -0.3334  0.0075
  160MOL   Cl7619474   6.845   8.002   2.367 -0.2520  0.2496 -0.4690
  160MOL    H7719475   7.023   7.995   2.595  0.8382  0.1055  0.3370
  160MOL    H7819476   7.052   7.837   2.535 -1.3580 -0.0140 -2.4793
  160MOL    H7919477   7.063   8.046   2.324  0.6057 -0.5555  0.6327
  160MOL    C8019478   7.052   7.835   2.277 -0.1622 -0.3091 -0.3242
  160MOL    C8119479   7.017   7.855   2.128  0.2869 -0.3411  0.3829
  160MOL   Cl8219480   7.081   7.709   2.055 -0.3411 -0.1411 -0.4994
  160MOL    H8319481   7.013   7.737   2.307  1.6690 -0.3993  1.9328
  160MOL    H8419482   7.159   7.814   2.265 -0.7095 -3.1281 -0.8144
  160MOL    H8519483   6.908   7.859   2.121  0.2742  1.2973  1.1866
  160MOL    C8619484   7.083   7.980   2.055 -0.2857 -0.1198  0.0670
  160MOL    C8719485   7.064   7.979   1.901 -0.4449 -0.5227  0.8377
  160MOL   Cl8819486   7.142   8.124   1.829  0.7218 -0.7919  0.1578
  160MOL    H8919487   7.190   7.989   2.073 -0.4299 -1.3221  1.6810
  160MOL    H9019488   7.033   8.067   2.097  0.4001  1.0827 -1.5856
  160MOL    H9119489   7.125   7.900   1.857 -1.8884 -1.6930  0.8873
  160MOL    C9219490   6.919   7.971   1.846 -0.1630  0.5947  0.8608
  160MOL    C9319491   6.923   7.942   1.695 -0.5195  0.0471 -0.1363
  160MOL   Cl9419492   6.773   8.007   1.607 -0.0749  0.0113  0.1788
  160MOL    H9519493   6.876   8.068   1.869 -1.5312 -0.1830  1.6923
  160MOL    H9619494   6.851   7.902   1.897 -0.7684 -0.4711 -1.3162
  160MOL    H9719495   7.008   7.984   1.641  0.6228 -2.0341 -0.0401
  160MOL    C9819496   6.936   7.791   1.662  0.3602 -0.0206 -0.4891
  160MOL    C9919497   7.019   7.754   1.540  0.3109  0.1701 -0.2728
  160MOL  Cl10019498   7.187   7.802   1.566 -0.1159  0.1763 -0.4528
  160MOL   H10119499   6.835   7.751   1.659  1.5054 -3.0008 -0.6221
  160MOL   H10219500   6.977   7.744   1.751 -0.8204 -1.7996 -0.8517
  160MOL   H10319501   7.010   7.645   1.539  0.0327  0.2016 -0.8235
  160MOL   C10419502   6.975   7.810   1.405 -0.1897  0.0992 -0.8066
  160MOL   C10519503   6.833   7.763   1.357  0.0796  0.0277 -0.0891
  160MOL  Cl10619504   6.839   7.595   1.312 -0.0611 -0.0726 -0.0589
  160MOL   H10719505   7.050   7.785   1.330 -0.4095 -0.3436 -0.8838
  160MOL   H10819506   6.966   7.915   1.433  0.6426  0.1450 -0.7023
  160MOL   H10919507   6.779   7.772   1.451 -1.3688  2.9327 -1.1233
  160MOL   C11019508   6.765   7.840   1.239  0.8678 -0.7865 -0.4884
  160MOL   C11119509   6.805   7.822   1.092 -0.2859  0.0403 -0.7255
  160MOL  Cl11219510   6.977   7.840   1.067  0.0603  0.0316  0.1621
  160MOL   H11319511   6.765   7.947   1.257  0.2090 -1.0676  1.3146
  160MOL   H11419512   6.659   7.815   1.245  0.6990 -0.1571 -0.8174
  160MOL   H11519513   6.792   7.715   1.076  0.1730  0.1528 -1.9322
  160MOL   C11619514   6.720   7.889   0.985  0.0645  0.1815 -0.2029
  160MOL   C11719515   6.726   7.822   0.848  0.0461  0.7676  0.2166
  160MOL  Cl11819516   6.859   7.888   0.758  0.6994  0.2884  0.0191
  160MOL   H11919517   6.744   7.995   0.976 -1.1354  0.4047 -0.8294
  160MOL   H12019518   6.615   7.886   1.014  0.0663  0.7067 -0.1323
  160MOL   H12119519   6.746   7.716   0.864 -1.9266  0.2575 -0.5649
  160MOL   H12219520   6.630   7.838   0.798 -0.1233  2.0532  0.9494
  161MOL     C119521   0.727   1.752   3.464 -0.1321  0.1907  0.2651
  161MOL     C219522   0.875   1.718   3.473  0.2231  0.9443  0.0902
  161MOL    Cl319523   0.902   1.575   3.575  0.2721  0.2610  0.0243
  161MOL     H419524   0.678   1.670   3.413 -0.7574  0.4097  0.5096
  161MOL     H519525   0.689   1.766   3.565 -3.6563  1.1152 -1.0898
  161MOL     H619526   0.914   1.683   3.378 -0.5182  0.2923  0.0203
  161MOL     H719527   0.709   1.837   3.397  1.3587  0.3042 -0.0026
  161MOL     C819528   0.958   1.839   3.517 -0.1348 -0.4197 -0.6386
  161MOL     C919529   1.116   1.824   3.509  0.0476 -0.1171 -0.0935
  161MOL   Cl1019530   1.181   1.740   3.654  0.0567 -0.1357  0.2098
  161MOL    H1119531   0.934   1.859   3.622  3.7544 -0.2548  0.3191
  161MOL    H1219532   0.925   1.926   3.460 -0.0823  1.2439  1.7843
  161MOL    H1319533   1.138   1.764   3.420 -1.3503 -1.1649  0.2442
  161MOL    C1419534   1.187   1.968   3.497 -0.8345 -0.0243  0.6135
  161MOL    C1519535   1.171   2.049   3.362  0.6178 -0.3158  0.3779
  161MOL   Cl1619536   1.258   1.959   3.235  0.1550  0.4967 -0.0906
  161MOL    H1719537   1.294   1.951   3.509 -0.6209  2.3623  2.5426
  161MOL    H1819538   1.152   2.023   3.585  0.5094 -0.1560  1.2475
  161MOL    H1919539   1.070   2.065   3.324  1.3986 -0.3042 -1.7678
  161MOL    C2019540   1.245   2.183   3.382 -0.3375 -0.0223  0.1729
  161MOL    C2119541   1.188   2.279   3.486  0.1490  0.1972 -0.5376
  161MOL   Cl2219542   1.020   2.312   3.431  0.2229 -0.2848 -0.1750
  161MOL    H2319543   1.240   2.235   3.286 -0.9689 -1.9848 -0.8969
  161MOL    H2419544   1.351   2.159   3.384 -0.1379  0.3111 -3.3349
  161MOL    H2519545   1.187   2.226   3.580 -0.3136 -0.0886 -0.6996
  161MOL    C2619546   1.251   2.418   3.497  0.0687  0.4281  0.1777
  161MOL    C2719547   1.399   2.415   3.537 -0.4444  0.0536 -0.5309
  161MOL   Cl2819548   1.401   2.375   3.706  0.2475  0.1200 -0.2253
  161MOL    H2919549   1.187   2.487   3.551 -0.1088  0.1630  0.3100
  161MOL    H3019550   1.246   2.458   3.396 -3.1839 -1.5147 -0.5307
  161MOL    H3119551   1.453   2.333   3.491  1.3781  0.2974  1.1127
  161MOL    C3219552   1.487   2.545   3.527  0.6129 -0.2512  0.1290
  161MOL    C3319553   1.427   2.673   3.600  0.0457  0.0828 -0.8998
  161MOL   Cl3419554   1.301   2.742   3.499  0.0735 -0.2807  0.0042
  161MOL    H3519555   1.503   2.557   3.420  2.2420  0.2084  0.4108
  161MOL    H3619556   1.583   2.524   3.574  1.1306  0.3482 -0.6461
  161MOL    H3719557   1.371   2.642   3.689 -1.1049 -0.9676 -1.9700
  161MOL    C3819558   1.533   2.780   3.631 -0.8538  0.0235  0.1744
  161MOL    C3919559   1.506   2.868   3.758  0.3288 -0.2043  0.5380
  161MOL   Cl4019560   1.349   2.954   3.733  0.1102 -0.1584 -0.6753
  161MOL    H4119561   1.549   2.841   3.541  3.0782 -0.5343  0.3964
  161MOL    H4219562   1.636   2.745   3.638 -0.7020  0.5931  0.8934
  161MOL    H4319563   1.485   2.801   3.841  0.4061 -1.2724 -0.2900
  161MOL    C4419564   1.617   2.968   3.783 -0.8720 -0.0125  0.0675
  161MOL    C4519565   1.750   2.910   3.822  0.4195  0.8515  0.2117
  161MOL   Cl4619566   1.720   2.847   3.990  0.0836 -0.0864 -0.1109
  161MOL    H4719567   1.590   3.054   3.845  1.2060  0.9077 -0.2689
  161MOL    H4819568   1.631   3.026   3.691 -0.6392  1.0119  0.7378
  161MOL    H4919569   1.777   2.822   3.764 -0.9551  0.1773  0.5995
  161MOL    C5019570   1.871   3.001   3.824 -0.2439 -0.0280 -0.5303
  161MOL    C5119571   1.919   3.054   3.680  0.2226 -0.0433  0.4517
  161MOL   Cl5219572   1.930   2.924   3.567  0.4872  0.2201 -0.5373
  161MOL    H5319573   1.953   2.942   3.866  0.0106 -1.4077 -2.8562
  161MOL    H5419574   1.852   3.088   3.887  0.1700  1.3528 -2.2562
  161MOL    H5519575   1.846   3.121   3.634  1.4764 -0.8702 -2.8287
  161MOL    C5619576   2.061   3.109   3.688 -0.3400  0.1175  0.4794
  161MOL    C5719577   2.067   3.249   3.740  0.3672  0.1517 -0.2080
  161MOL   Cl5819578   1.975   3.365   3.633  0.2426 -0.3335 -0.1704
  161MOL    H5919579   2.114   3.103   3.593 -0.2017 -0.4358  0.5875
  161MOL    H6019580   2.123   3.044   3.752 -0.4738 -0.3082  0.1790
  161MOL    H6119581   2.010   3.255   3.833  1.4413 -0.0407  0.4768
  161MOL    C6219582   2.204   3.316   3.776  0.0134 -1.0685  0.3811
  161MOL    C6319583   2.204   3.402   3.904 -0.3357  0.6119  0.1601
  161MOL   Cl6419584   2.094   3.537   3.894 -0.0679 -0.2727  0.4256
  161MOL    H6519585   2.249   3.371   3.693 -1.0402 -0.0091  0.5042
  161MOL    H6619586   2.269   3.231   3.796  0.7860 -1.0250 -1.8307
  161MOL    H6719587   2.169   3.333   3.982 -1.2929  0.6653 -0.2122
  161MOL    C6819588   2.347   3.458   3.932  0.2518  0.8030  0.4452
  161MOL    C6919589   2.379   3.471   4.077  0.4771 -0.2909  0.0376
  161MOL   Cl7019590   2.284   3.618   4.145  0.3374 -0.0192  0.5555
  161MOL    H7119591   2.354   3.561   3.898 -1.5661  0.3560 -1.4361
  161MOL    H7219592   2.413   3.394   3.874 -1.8347  1.0906 -2.3693
  161MOL    H7319593   2.334   3.387   4.131 -0.0509 -0.2531 -0.3397
  161MOL    C7419594   2.528   3.489   4.106 -0.1589  0.4894  0.5608
  161MOL    C7519595   2.617   3.369   4.087 -0.1315 -0.5007  0.1176
  161MOL   Cl7619596   2.545   3.234   4.179 -0.5060  0.0327  0.3040
  161MOL    H7719597   2.544   3.534   4.205  3.6578  0.4151  0.0569
  161MOL    H7819598   2.564   3.556   4.028  0.7797 -1.1948 -0.4658
  161MOL    H7919599   2.611   3.332   3.984  1.1296 -1.7233  0.4581
  161MOL    C8019600   2.766   3.394   4.127  0.4325  0.7087 -0.4970
  161MOL    C8119601   2.860   3.270   4.107 -0.3773 -0.1338  0.1191
  161MOL   Cl8219602   3.014   3.305   4.197  0.4316 -0.1457 -0.0584
  161MOL    H8319603   2.768   3.430   4.230  1.4482  1.7964 -0.8882
  161MOL    H8419604   2.808   3.474   4.067  0.8229  1.0391  0.2040
  161MOL    H8519605   2.818   3.178   4.148  1.6000 -1.4408 -0.7320
  161MOL    C8619606   2.894   3.241   3.959 -0.4909 -0.2467  0.3171
  161MOL    C8719607   2.988   3.113   3.949 -0.3753 -0.0196  0.1259
  161MOL   Cl8819608   3.124   3.132   3.835  0.3242 -0.1490  0.0884
  161MOL    H8919609   2.939   3.331   3.917  0.8350  0.6998  3.5763
  161MOL    H9019610   2.796   3.226   3.914  0.8619 -0.4030 -2.6905
  161MOL    H9119611   3.036   3.089   4.044  0.1489  1.2366  0.1889
  161MOL    C9219612   2.908   2.999   3.888 -0.5566  0.0998 -0.3699
  161MOL    C9319613   2.790   2.943   3.975  0.3496 -0.0763  0.3705
  161MOL   Cl9419614   2.836   2.865   4.130  0.2994  0.0744  0.2954
  161MOL    H9519615   2.976   2.916   3.869 -0.1360  0.1946  0.6737
  161MOL    H9619616   2.887   3.013   3.782 -1.0426  1.3398 -0.1133
  161MOL    H9719617   2.721   3.026   3.986 -1.9589 -1.3189 -3.4606
  161MOL    C9819618   2.699   2.837   3.913  0.3943 -0.4693 -0.1921
  161MOL    C9919619   2.615   2.892   3.791 -0.0426  0.4906  0.3015
  161MOL  Cl10019620   2.492   3.009   3.835  0.0346  0.2368 -0.1214
  161MOL   H10119621   2.632   2.788   3.985 -0.9263  1.7085  0.1063
  161MOL   H10219622   2.764   2.758   3.876 -0.6508 -0.8494 -1.2781
  161MOL   H10319623   2.678   2.921   3.707  2.6421  0.3610  2.2120
  161MOL   C10419624   2.539   2.773   3.725  0.3206  0.2257  0.2783
  161MOL   C10519625   2.605   2.660   3.642  0.5099  0.6582 -0.2530
  161MOL  Cl10619626   2.678   2.727   3.497 -0.3000  0.5544  0.4409
  161MOL   H10719627   2.474   2.821   3.652 -0.2850 -1.4809 -0.3259
  161MOL   H10819628   2.479   2.719   3.798  1.1668 -0.7693  0.2508
  161MOL   H10919629   2.689   2.616   3.697 -0.1780  0.6511  0.7922
  161MOL   C11019630   2.501   2.561   3.588  0.7385  0.2276  0.1753
  161MOL   C11119631   2.545   2.441   3.503  0.5145 -0.2045 -0.1526
  161MOL  Cl11219632   2.399   2.356   3.451 -0.1847  0.0223  0.1161
  161MOL   H11319633   2.431   2.623   3.531  1.0118  1.0367  0.7097
  161MOL   H11419634   2.448   2.521   3.674  2.3862  1.6091  1.8790
  161MOL   H11519635   2.594   2.479   3.413 -0.9409  2.1066 -0.0291
  161MOL   C11619636   2.638   2.341   3.581 -0.4972 -0.4822  0.5740
  161MOL   C11719637   2.688   2.223   3.503 -0.1984 -0.7760  0.9018
  161MOL  Cl11819638   2.820   2.143   3.599 -0.6621 -0.2138 -0.1870
  161MOL   H11919639   2.572   2.304   3.660 -1.3707 -0.0520  0.0501
  161MOL   H12019640   2.720   2.395   3.628  0.3262 -1.0132 -0.2362
  161MOL   H12119641   2.607   2.154   3.478 -2.2334  2.1329 -0.9248
  161MOL   H12219642   2.724   2.258   3.407  0.0161  4.4948  2.7526
  162MOL     C119643   3.951   5.088   7.957 -0.3663 -0.3702 -0.0404
  162MOL     C219644   3.983   4.939   7.930 -0.5297 -0.9197 -0.8654
  162MOL    Cl319645   4.147   4.914   7.869  0.0814 -0.1314  0.2018
  162MOL     H419646   4.043   5.131   7.997  0.1183 -0.0738 -1.4266
  162MOL     H519647   3.917   5.149   7.873 -0.8342 -1.0001 -0.3152
  162MOL     H619648   3.987   4.890   8.028 -0.7324  2.3107  0.8365
  162MOL     H719649   3.876   5.103   8.033 -0.7102  0.8020 -0.5970
  162MOL     C819650   3.874   4.885   7.843  0.4534  0.5392  0.3299
  162MOL     C919651   3.850   4.727   7.846 -0.1544  0.0532  0.1803
  162MOL   Cl1019652   3.733   4.696   7.706 -0.2521  0.5275  0.5082
  162MOL    H1119653   3.898   4.920   7.742  2.2466 -2.3618 -0.3180
  162MOL    H1219654   3.782   4.937   7.868  1.5454  2.4235  0.5771
  162MOL    H1319655   3.946   4.684   7.815  0.3847  1.8025 -0.6941
  162MOL    C1419656   3.792   4.666   7.978 -0.0046  0.0042  0.0720
  162MOL    C1519657   3.763   4.512   7.976 -0.6477 -0.8782 -0.0872
  162MOL   Cl1619658   3.688   4.469   8.127  0.2344  0.5341  0.2166
  162MOL    H1719659   3.696   4.714   7.996 -0.1084  0.4886 -1.6889
  162MOL    H1819660   3.844   4.694   8.070 -0.6289 -0.6338  0.6209
  162MOL    H1919661   3.693   4.495   7.893 -1.8047  0.7902  0.5316
  162MOL    C2019662   3.890   4.419   7.950  0.3925  0.2072  0.6727
  162MOL    C2119663   3.970   4.385   8.085 -0.0627 -0.3134 -0.1238
  162MOL   Cl2219664   4.081   4.526   8.119 -0.6865 -0.1648  0.0077
  162MOL    H2319665   3.950   4.450   7.864 -2.5010  1.4422 -0.9608
  162MOL    H2419666   3.858   4.322   7.912  0.0583  0.0537  1.3463
  162MOL    H2519667   3.901   4.394   8.170 -0.5863 -1.2217 -0.4485
  162MOL    C2619668   4.067   4.264   8.083  0.2155 -0.5026 -0.0657
  162MOL    C2719669   3.992   4.136   8.087  0.0832 -0.4816  0.1869
  162MOL   Cl2819670   3.917   4.114   8.247  0.0776  0.3496 -0.0605
  162MOL    H2919671   4.138   4.255   8.165  1.6924 -0.9083 -1.3534
  162MOL    H3019672   4.135   4.274   7.998  0.2209 -0.1404 -0.0215
  162MOL    H3119673   3.911   4.139   8.014 -0.3158  0.3200  0.6445
  162MOL    C3219674   4.083   4.017   8.056  0.1790 -0.4142  0.6821
  162MOL    C3319675   4.000   3.907   7.990 -0.4802 -0.4114  0.2178
  162MOL   Cl3419676   4.101   3.756   7.986 -0.0164 -0.1095  0.2013
  162MOL    H3519677   4.130   3.981   8.148 -1.0480 -0.2452  1.4013
  162MOL    H3619678   4.166   4.052   7.995 -1.5042  2.0632 -0.2600
  162MOL    H3719679   3.909   3.893   8.048 -1.9565  0.8110 -1.7574
  162MOL    C3819680   3.953   3.923   7.842 -0.4388 -0.1933 -0.1445
  162MOL    C3919681   3.875   3.819   7.764 -0.2616 -0.6281 -0.5089
  162MOL   Cl4019682   3.874   3.880   7.593  0.0230  0.0238 -0.0629
  162MOL    H4119683   4.045   3.948   7.788 -0.4958  3.5276  1.3526
  162MOL    H4219684   3.892   4.012   7.845  0.4554  0.4414 -0.5738
  162MOL    H4319685   3.937   3.730   7.760 -2.5117 -2.2877  0.5072
  162MOL    C4419686   3.732   3.802   7.811 -0.1659  0.0737  0.3497
  162MOL    C4519687   3.650   3.702   7.727  0.5922 -0.4117  0.7422
  162MOL   Cl4619688   3.474   3.758   7.738 -0.4152  0.3106  0.1057
  162MOL    H4719689   3.684   3.899   7.797 -0.8220 -0.3718 -0.4897
  162MOL    H4819690   3.721   3.772   7.915 -4.2047 -1.0436 -0.3075
  162MOL    H4919691   3.665   3.708   7.619 -2.7577 -1.3666  0.1848
  162MOL    C5019692   3.643   3.551   7.758 -0.0704  0.1444 -0.7011
  162MOL    C5119693   3.774   3.472   7.733  0.9457 -0.0814  0.0649
  162MOL   Cl5219694   3.817   3.475   7.565  0.1087 -0.3585 -0.0132
  162MOL    H5319695   3.567   3.513   7.690 -0.3875  1.6351 -1.1952
  162MOL    H5419696   3.598   3.543   7.856 -2.8197  0.1628 -1.9269
  162MOL    H5519697   3.851   3.518   7.795 -1.5837 -0.5596  3.7204
  162MOL    C5619698   3.757   3.328   7.783 -0.2440 -0.3681  0.2356
  162MOL    C5719699   3.694   3.297   7.913  0.7198 -0.6730  0.4434
  162MOL   Cl5819700   3.767   3.401   8.042 -0.2739  0.0063 -0.2391
  162MOL    H5919701   3.851   3.274   7.773  0.3282  0.3257  1.7715
  162MOL    H6019702   3.706   3.270   7.706 -1.1928 -1.1456  1.4185
  162MOL    H6119703   3.593   3.339   7.906  0.3843 -1.6802 -1.1855
  162MOL    C6219704   3.684   3.149   7.946  0.4172 -0.1229  0.1161
  162MOL    C6319705   3.577   3.115   8.054  0.3972 -0.9412 -0.4301
  162MOL   Cl6419706   3.592   2.934   8.085 -0.1002  0.2107 -0.2098
  162MOL    H6519707   3.778   3.102   7.972  0.8820 -0.5872 -2.3597
  162MOL    H6619708   3.649   3.103   7.854  2.3686 -1.3767 -0.0120
  162MOL    H6719709   3.605   3.160   8.149  1.2229  0.0783 -1.1350
  162MOL    C6819710   3.422   3.144   8.038  0.0844  0.1324 -0.2966
  162MOL    C6919711   3.342   3.166   8.174  0.5891 -0.4420 -0.1814
  162MOL   Cl7019712   3.412   3.301   8.260 -0.1386  0.2740 -0.2496
  162MOL    H7119713   3.377   3.074   7.968 -3.3492  2.9181 -0.9922
  162MOL    H7219714   3.412   3.241   7.989  2.3414  1.7748  2.2688
  162MOL    H7319715   3.243   3.205   8.152  1.0834  1.1369  0.3872
  162MOL    C7419716   3.329   3.033   8.264  0.0972 -0.2336 -0.0620
  162MOL    C7519717   3.255   2.911   8.199  0.1441 -0.5435 -0.1561
  162MOL   Cl7619718   3.104   2.973   8.131  0.2969 -0.2193 -0.3048
  162MOL    H7719719   3.256   3.068   8.337 -3.3931 -1.8301 -2.6272
  162MOL    H7819720   3.417   3.001   8.319  0.5003  4.0695  1.9962
  162MOL    H7919721   3.318   2.879   8.116 -1.3465 -2.2208 -0.6695
  162MOL    C8019722   3.221   2.802   8.305  0.3035 -0.4199  0.5210
  162MOL    C8119723   3.173   2.669   8.250 -0.1717 -0.8122 -0.2435
  162MOL   Cl8219724   2.995   2.665   8.267 -0.0962  0.2554  0.4673
  162MOL    H8319725   3.147   2.839   8.376 -1.2911 -2.2296 -0.1405
  162MOL    H8419726   3.308   2.783   8.368  1.7494  0.7806 -1.0956
  162MOL    H8519727   3.196   2.667   8.144  2.8580 -0.6289  0.3633
  162MOL    C8619728   3.219   2.543   8.326 -0.4329  0.4873 -0.2262
  162MOL    C8719729   3.371   2.516   8.303 -0.2993 -0.0378 -0.2443
  162MOL   Cl8819730   3.408   2.500   8.122  0.0835 -0.4226 -0.0486
  162MOL    H8919731   3.168   2.451   8.295 -1.1663  0.6722  0.4150
  162MOL    H9019732   3.192   2.559   8.430 -0.5372 -1.5497  0.0921
  162MOL    H9119733   3.423   2.611   8.319 -1.8598  1.1120 -1.7378
  162MOL    C9219734   3.441   2.395   8.370 -0.2488 -1.0465  0.1340
  162MOL    C9319735   3.441   2.414   0.001  0.3227 -0.2922  0.3960
  162MOL   Cl9419736   3.522   2.571   0.026  0.0762  0.2225  0.2657
  162MOL    H9519737   3.544   2.399   8.334 -0.2208 -0.2031  0.2822
  162MOL    H9619738   3.395   2.300   8.346 -1.0109 -0.6019 -0.1751
  162MOL    H9719739   3.338   2.432   0.033  0.9539 -1.0984  3.0098
  162MOL    C9819740   3.515   2.301   0.065  0.0331 -0.4369  0.7925
  162MOL    C9919741   3.430   2.171   0.064  0.3543 -0.1775 -0.4230
  162MOL  Cl10019742   3.302   2.201   0.184 -0.3912  0.1015 -0.4899
  162MOL   H10119743   3.537   2.328   0.168 -0.5214  3.5594 -0.0780
  162MOL   H10219744   3.612   2.283   0.018 -0.5267  0.0349 -0.5747
  162MOL   H10319745   3.376   2.145   8.499  2.8815 -2.9136 -1.2456
  162MOL   C10419746   3.510   2.048   0.125  0.5935 -0.0558  1.0381
  162MOL   C10519747   3.438   1.913   0.131  0.4227 -0.1002  0.2212
  162MOL  Cl10619748   3.539   1.794   0.221  0.0506  0.1262  0.3977
  162MOL   H10719749   3.534   2.075   0.228 -0.9225  0.7083  1.2082
  162MOL   H10819750   3.606   2.025   0.079  1.1353 -0.9117  2.5893
  162MOL   H10919751   3.345   1.910   0.188  0.1697 -0.5727 -0.2105
  162MOL   C11019752   3.420   1.866   8.506  0.2743  0.4744 -0.1588
  162MOL   C11119753   3.336   1.740   8.497  0.8513  0.7567 -0.5507
  162MOL  Cl11219754   3.371   1.647   8.352 -0.3989  0.0942 -0.0513
  162MOL   H11319755   3.520   1.829   8.482 -0.0156  1.2329 -2.6573
  162MOL   H11419756   3.413   1.945   8.431 -0.0071  0.9235  0.3359
  162MOL   H11519757   3.364   1.673   0.053 -0.2210 -4.2883 -4.0712
  162MOL   C11619758   3.182   1.767   8.502 -0.6025  0.2648 -1.2694
  162MOL   C11719759   3.112   1.832   8.385  0.7654  0.4223 -0.0370
  162MOL  Cl11819760   3.142   2.011   8.359 -0.2119 -0.0687  0.0588
  162MOL   H11919761   3.165   1.823   0.069 -0.3959 -2.5664  0.5496
  162MOL   H12019762   3.146   1.665   8.520  1.4061 -0.6319 -2.2616
  162MOL   H12119763   3.134   1.782   8.290  1.1609  0.0802  0.2360
  162MOL   H12219764   3.007   1.831   8.414  0.6990 -2.0630 -0.2832
  163MOL     C119765   7.960   8.419   7.426  0.2070 -0.3810  0.4516
  163MOL     C219766   7.971   0.038   7.465 -0.9046  0.4197  0.8933
  163MOL    Cl319767   8.096   0.112   7.367 -0.5020  0.0522  0.0946
  163MOL     H419768   7.942   8.402   7.320  3.3085 -1.9841  0.1254
  163MOL     H519769   8.047   8.357   7.447  0.9323  1.1673  2.1594
  163MOL     H619770   7.879   0.090   7.438  1.0174  2.9721 -1.0377
  163MOL     H719771   7.871   8.368   7.465  0.0092 -0.6283 -0.3043
  163MOL     C819772   8.000   0.063   7.619  0.5830 -0.4806  0.4784
  163MOL     C919773   7.882   0.042   7.719  0.2247 -0.2075  0.0686
  163MOL   Cl1019774   7.744   0.138   7.679 -0.3856 -0.4485  0.0440
  163MOL    H1119775   8.028   0.167   7.632  0.5841 -0.6418  1.7790
  163MOL    H1219776   8.071   8.509   7.643 -0.0599 -1.5372 -1.0313
  163MOL    H1319777   7.851   8.464   7.709  1.0313 -0.2888 -1.6427
  163MOL    C1419778   7.924   0.064   7.865  0.7046 -0.1905  0.8781
  163MOL    C1519779   8.038   8.509   7.933 -0.0549  0.5378 -0.1453
  163MOL   Cl1619780   7.978   8.343   7.957  0.4436  0.1693 -0.4231
  163MOL    H1719781   7.840   0.053   7.934  0.0147  0.5340  0.1632
  163MOL    H1819782   7.949   0.170   7.864  0.7136 -0.2059 -0.8697
  163MOL    H1919783   8.127   8.506   7.870  0.4459  0.3291  0.5614
  163MOL    C2019784   8.071   0.035   8.073 -0.2255 -0.3853  0.0585
  163MOL    C2119785   8.203   8.489   8.132 -0.0766 -0.3651  0.1246
  163MOL   Cl2219786   8.202   8.486   8.315  0.0796 -0.0794 -0.6076
  163MOL    H2319787   7.984   0.016   8.136 -1.1380 -1.0918 -1.3852
  163MOL    H2419788   8.084   0.144   8.072  0.2871 -0.4306  1.1247
  163MOL    H2519789   8.212   8.385   8.102  2.8347 -0.0915 -0.0863
  163MOL    C2619790   8.337   0.034   8.082 -0.2800  0.6852 -0.2935
  163MOL    C2719791   8.464   8.488   8.136  0.2997  0.1517  0.3591
  163MOL   Cl2819792   0.070   0.082   8.106  0.4200 -0.1154 -0.2107
  163MOL    H2919793   8.324   0.141   8.099  1.2187  0.6526  1.1298
  163MOL    H3019794   8.351   0.030   7.974  0.0810  1.9962 -0.3047
  163MOL    H3119795   8.466   8.474   8.244 -0.6609 -3.1035 -0.0103
  163MOL    C3219796   8.501   8.352   8.073  0.0820 -0.3724 -0.3990
  163MOL    C3319797   8.513   8.362   7.916 -0.2323  0.4040 -0.0234
  163MOL   Cl3419798   8.357   8.304   7.850  0.3707  0.2041 -0.1345
  163MOL    H3519799   8.439   8.270   8.110  0.2118 -0.6067 -0.7146
  163MOL    H3619800   0.076   8.339   8.114  0.1704 -1.9497 -1.0792
  163MOL    H3719801   0.016   8.462   7.884  1.7150 -0.1012  0.0567
  163MOL    C3819802   0.103   8.280   7.864  0.3526 -0.3397  0.0611
  163MOL    C3919803   0.098   8.237   7.715  0.3835  0.2104 -0.1790
  163MOL   Cl4019804   0.253   8.176   7.652  0.2337  0.0116 -0.0189
  163MOL    H4119805   0.108   8.184   7.916 -0.4353 -0.2328  0.3325
  163MOL    H4219806   0.190   8.336   7.897 -0.3267 -0.1258  1.5080
  163MOL    H4319807   0.024   8.156   7.708 -1.0272  1.4641  0.0047
  163MOL    C4419808   0.071   8.357   7.619  0.8600 -0.3396 -0.9130
  163MOL    C4519809   0.050   8.315   7.479 -0.7516 -0.4222  0.5051
  163MOL   Cl4619810   0.038   8.460   7.374 -0.1362  0.0900 -0.0848
  163MOL    H4719811   0.164   8.413   7.621  0.0491  1.0067  2.8492
  163MOL    H4819812   8.517   8.421   7.658 -0.8084 -1.7373 -1.9126
  163MOL    H4919813   0.138   8.257   7.450 -0.3004  0.5668 -0.1332
  163MOL    C5019814   8.446   8.235   7.457  0.0113 -0.1369 -0.3377
  163MOL    C5119815   8.400   8.199   7.313 -0.1100  0.0965  0.0309
  163MOL   Cl5219816   8.252   8.091   7.340  0.3401 -0.1102 -0.0781
  163MOL    H5319817   8.365   8.287   7.507  1.7413  1.1277  1.2259
  163MOL    H5419818   8.451   8.135   7.500  0.5668 -0.8274 -1.9777
  163MOL    H5519819   8.380   8.286   7.251  1.2308 -0.1396 -0.7506
  163MOL    C5619820   8.498   8.107   7.225 -0.1107 -0.1624 -0.1821
  163MOL    C5719821   0.076   8.191   7.148 -0.0435  0.2779  0.3057
  163MOL   Cl5819822   8.519   8.269   7.017  0.1560 -0.2352  0.2341
  163MOL    H5919823   8.436   8.054   7.152 -0.4853 -2.4982  1.7548
  163MOL    H6019824   0.018   8.026   7.283 -0.1324 -1.4785 -1.9567
  163MOL    H6119825   0.128   8.263   7.211  1.6718 -0.3272 -0.3662
  163MOL    C6219826   0.179   8.095   7.079  0.1754 -0.8346  0.4865
  163MOL    C6319827   0.270   8.011   7.162  0.3297  0.0798  0.0058
  163MOL   Cl6419828   0.410   8.104   7.229 -0.1955 -0.3974 -0.2488
  163MOL    H6519829   0.236   8.161   7.013  0.2136 -1.3944 -0.0388
  163MOL    H6619830   0.131   8.029   7.007 -0.7672  0.2467  0.1039
  163MOL    H6719831   0.216   7.984   7.253 -1.2108 -1.5646 -1.3623
  163MOL    C6819832   0.337   7.896   7.089 -0.7760 -0.2109 -0.4772
  163MOL    C6919833   0.246   7.776   7.071  0.0575 -0.2268  0.4212
  163MOL   Cl7019834   0.247   7.684   7.230  0.2076  0.3032 -0.4382
  163MOL    H7119835   0.430   7.853   7.126 -2.0792 -1.2037  1.7559
  163MOL    H7219836   0.367   7.923   6.988 -0.5043 -0.6427 -0.5142
  163MOL    H7319837   0.150   7.824   7.054  1.0558  1.6725  0.0074
  163MOL    C7419838   0.300   7.674   6.969  0.0076 -0.6737  0.3727
  163MOL    C7519839   0.210   7.556   6.933  0.1144  0.1242 -0.3550
  163MOL   Cl7619840   0.326   7.468   6.834 -0.3333 -0.3988 -0.2739
  163MOL    H7719841   0.383   7.621   7.015  0.8798 -0.1523 -0.5735
  163MOL    H7819842   0.339   7.716   6.876  2.1196 -0.9430  1.1134
  163MOL    H7919843   0.198   7.494   7.021 -0.1695 -2.6143 -2.2362
  163MOL    C8019844   0.085   7.581   6.852 -0.5052  0.4350 -0.2752
  163MOL    C8119845   8.481   7.594   6.936 -0.8488 -0.0804 -0.0361
  163MOL   Cl8219846   8.435   7.449   7.019 -0.0264  0.2801 -0.1305
  163MOL    H8319847   0.080   7.496   6.784  0.4312 -0.3622  0.6298
  163MOL    H8419848   0.101   7.663   6.781  2.1744 -0.2784 -0.5455
  163MOL    H8519849   8.499   7.665   7.016  2.0021  0.1232 -0.8215
  163MOL    C8619850   8.369   7.629   6.842 -0.7430  0.4456  0.2507
  163MOL    C8719851   8.376   7.772   6.778  0.1089  0.0062  0.1040
  163MOL   Cl8819852   8.402   7.894   6.900 -0.1312 -0.2790 -0.1151
  163MOL    H8919853   8.275   7.618   6.896 -0.3440  2.0802  1.2954
  163MOL    H9019854   8.366   7.564   6.755  3.2702 -0.9637  1.0749
  163MOL    H9119855   8.459   7.782   6.707  0.2223 -0.2308  0.2043
  163MOL    C9219856   8.244   7.812   6.700  0.3628 -0.3541 -0.3303
  163MOL    C9319857   8.251   7.943   6.618  0.5039  0.6572  0.3749
  163MOL   Cl9419858   8.110   7.947   6.505 -0.5052 -0.3436 -0.1067
  163MOL    H9519859   8.167   7.829   6.775  1.3413  0.2405  0.5683
  163MOL    H9619860   8.204   7.727   6.645 -0.8389 -0.8720  1.2893
  163MOL    H9719861   8.237   8.025   6.688  1.6244 -0.5468  2.0624
  163MOL    C9819862   8.381   7.975   6.539 -0.0431 -0.3083 -0.2240
  163MOL    C9919863   8.391   8.124   6.480  0.4955  0.1239 -0.7144
  163MOL  Cl10019864   8.345   8.100   6.310  0.4673  0.5781 -0.3122
  163MOL   H10119865   8.419   7.904   6.465  3.8144 -1.8611  3.0660
  163MOL   H10219866   8.450   7.972   6.623  0.1393  0.7565 -0.3244
  163MOL   H10319867   8.310   8.186   6.519  0.0901 -0.3320 -0.8359
  163MOL   C10419868   0.013   8.189   6.487  0.1492 -0.4419 -0.6814
  163MOL   C10519869   0.039   8.223   6.638  0.3769  0.0271 -0.9894
  163MOL  Cl10619870   8.444   8.341   6.691  0.0068  0.5951 -0.1909
  163MOL   H10719871   0.030   8.281   6.431  1.9870  0.3025  1.0284
  163MOL   H10819872   0.092   8.125   6.449 -1.2719 -0.9822 -2.7981
  163MOL   H10919873   0.017   8.138   6.702 -0.0206 -0.5334 -1.8603
  163MOL   C11019874   0.174   8.289   6.661 -0.0235 -0.9949  0.0330
  163MOL   C11119875   0.298   8.204   6.628  0.0731 -0.1854 -0.1078
  163MOL  Cl11219876   0.290   8.059   6.735 -0.4167 -0.1483 -0.1662
  163MOL   H11319877   0.176   8.320   6.766 -0.3765 -1.2404  0.1112
  163MOL   H11419878   0.174   8.382   6.604  1.4206 -0.0117  1.5840
  163MOL   H11519879   0.288   8.164   6.527  0.1837 -0.6580  0.0674
  163MOL   C11619880   0.429   8.286   6.645  0.0052  0.1201  0.0901
  163MOL   C11719881   0.551   8.226   6.562 -0.0315 -0.0132  0.2326
  163MOL  Cl11819882   0.704   8.315   6.573  0.2191  0.4240  0.1476
  163MOL   H11919883   0.442   8.299   6.752  1.7581 -0.8974  0.0189
  163MOL   H12019884   0.410   8.384   6.603 -1.3420 -0.3611 -0.4823
  163MOL   H12119885   0.581   8.125   6.591 -1.4426 -0.8630 -1.2325
  163MOL   H12219886   0.525   8.224   6.457 -1.1036  0.8741  0.4783
  164MOL     C119887   0.777   6.966   8.226  0.1820 -0.4792 -0.1195
  164MOL     C219888   0.841   6.968   8.358  0.0016 -0.5421  0.3043
  164MOL    Cl319889   0.959   7.098   8.370  0.4696  0.5813 -0.4003
  164MOL     H419890   0.699   6.890   8.225 -1.0432  0.7871 -0.6675
  164MOL     H519891   0.736   7.063   8.201  2.9595  0.3101 -1.8977
  164MOL     H619892   0.753   6.993   8.419  0.6811  1.9345  0.3324
  164MOL     H719893   0.844   6.943   8.142  0.2390 -0.7591  0.0013
  164MOL     C819894   0.901   6.835   8.406  0.3434 -0.0524 -0.6381
  164MOL     C919895   0.947   6.835   0.028 -0.2722 -0.1733 -0.0893
  164MOL   Cl1019896   0.982   6.663   0.072 -0.4617  0.1253  0.0837
  164MOL    H1119897   0.987   6.809   8.344 -0.8922  0.4562 -2.5999
  164MOL    H1219898   0.823   6.763   8.381 -0.4773  0.2289  1.0557
  164MOL    H1319899   1.043   6.887   0.032 -0.4621  0.0980  1.2485
  164MOL    C1419900   0.853   6.911   0.124  0.5587  0.3710  0.0617
  164MOL    C1519901   0.885   6.885   0.272 -0.2477  0.3063 -0.1810
  164MOL   Cl1619902   0.775   6.991   0.355 -0.2476  0.1260  0.0025
  164MOL    H1719903   0.749   6.882   0.107  0.4461  1.3083 -0.8873
  164MOL    H1819904   0.861   7.017   0.104  0.0987  0.5596  0.8818
  164MOL    H1919905   0.862   6.783   0.302  3.1526 -0.9455 -1.5606
  164MOL    C2019906   1.027   6.911   0.307 -0.1735 -0.6199 -0.2172
  164MOL    C2119907   1.071   6.894   0.455  0.2188 -0.3670  0.3921
  164MOL   Cl2219908   1.247   6.908   0.462 -0.0163  0.1379 -0.0134
  164MOL    H2319909   1.060   7.009   0.272  0.5963 -1.5737 -2.1966
  164MOL    H2419910   1.089   6.838   0.255  3.3492  0.3669  2.3888
  164MOL    H2519911   1.047   6.989   0.504 -1.6011  0.5421 -2.1677
  164MOL    C2619912   1.034   6.759   0.522 -0.3719 -0.6976 -0.3091
  164MOL    C2719913   0.899   6.760   0.602  0.2414  0.0442 -0.1370
  164MOL   Cl2819914   0.901   6.904   0.712  0.1895 -0.0822  0.0221
  164MOL    H2919915   1.111   6.737   0.596 -0.0191 -0.5263 -0.6217
  164MOL    H3019916   1.040   6.690   0.437 -0.0443 -1.3443  0.2355
  164MOL    H3119917   0.816   6.777   0.534  0.3246 -1.0948 -0.5161
  164MOL    C3219918   0.873   6.630   0.689 -0.2438 -0.2904  0.3871
  164MOL    C3319919   0.736   6.579   0.740 -0.6367 -0.1557 -0.5270
  164MOL   Cl3419920   0.646   6.694   0.841 -0.1846 -0.1639  0.1570
  164MOL    H3519921   0.935   6.650   0.776  0.0481 -1.4800  0.4601
  164MOL    H3619922   0.913   6.537   0.649 -2.4996 -1.0856 -0.0884
  164MOL    H3719923   0.686   6.558   0.645  1.6252 -0.8194 -1.6111
  164MOL    C3819924   0.748   6.441   0.815  0.6738 -0.0254 -0.0236
  164MOL    C3919925   0.617   6.356   0.827  0.4379 -0.1307 -0.5025
  164MOL   Cl4019926   0.659   6.209   0.912 -0.4913  0.1588  0.3744
  164MOL    H4119927   0.794   6.465   0.911 -1.0433 -0.3013  0.8850
  164MOL    H4219928   0.825   6.382   0.766  0.0421 -1.4119  0.6205
  164MOL    H4319929   0.548   6.409   0.893 -2.4038  0.2747 -3.6891
  164MOL    C4419930   0.548   6.320   0.693  0.0762 -0.2456  0.3910
  164MOL    C4519931   0.417   6.233   0.691 -0.6610 -0.7672  0.5076
  164MOL   Cl4619932   0.412   6.164   0.534 -0.0693  0.3038  0.0290
  164MOL    H4719933   0.619   6.262   0.635  0.2059  1.0611 -0.7565
  164MOL    H4819934   0.535   6.405   0.627  2.0640 -0.0817  0.1769
  164MOL    H4919935   0.428   6.151   0.763 -1.3549 -2.3144 -1.1336
  164MOL    C5019936   0.274   6.305   0.703 -0.4170 -0.0968 -0.1162
  164MOL    C5119937   0.250   6.357   0.847  0.6020  0.8174  0.6008
  164MOL   Cl5219938   0.211   6.227   0.964  0.3029 -0.0220 -0.2987
  164MOL    H5319939   0.200   6.226   0.689 -0.3339 -0.2764  0.4578
  164MOL    H5419940   0.265   6.381   0.625  1.7995 -0.8435 -1.1533
  164MOL    H5519941   0.341   6.400   0.889  1.5829  0.4652 -1.1004
  164MOL    C5619942   0.134   6.462   0.854  0.5069 -0.0927 -0.5474
  164MOL    C5719943   0.180   6.602   0.797  0.2019  0.4767  0.3994
  164MOL   Cl5819944   0.321   6.666   0.868  0.1592 -0.3255 -0.0032
  164MOL    H5919945   0.111   6.471   0.960  3.4157 -2.3676  0.3767
  164MOL    H6019946   0.047   6.413   0.810  0.9717 -0.7712 -0.7342
  164MOL    H6119947   0.200   6.589   0.691 -0.3481 -1.3305  0.5011
  164MOL    C6219948   0.063   6.713   0.812  0.1200  0.3126  0.7240
  164MOL    C6319949   8.466   6.694   0.711  0.3428 -0.0807 -0.2487
  164MOL   Cl6419950   8.508   6.702   0.542 -0.0461  0.0128  0.3713
  164MOL    H6519951   0.109   6.806   0.779  0.2642 -0.4755 -1.3955
  164MOL    H6619952   0.024   6.714   0.914  0.3209 -0.7955  0.8184
  164MOL    H6719953   8.440   6.591   0.736 -0.9212  0.3544  0.2941
  164MOL    C6819954   8.340   6.781   0.734 -0.1411  0.0981 -0.3936
  164MOL    C6919955   8.269   6.767   0.868  0.0637 -0.3362 -0.2373
  164MOL   Cl7019956   8.194   6.605   0.881 -0.0371 -0.0666  0.0779
  164MOL    H7119957   8.277   6.771   0.646  1.1535  0.3042 -1.3586
  164MOL    H7219958   8.366   6.885   0.716  1.2112 -0.1450  0.0641
  164MOL    H7319959   8.332   6.779   0.956  0.2970 -1.8018 -0.1939
  164MOL    C7419960   8.158   6.871   0.881  0.1170 -0.7065 -0.0184
  164MOL    C7519961   8.065   6.876   1.010  1.1160 -0.2288 -0.4373
  164MOL   Cl7619962   7.917   6.962   0.970  0.1227  0.3573 -0.0698
  164MOL    H7719963   8.091   6.868   0.795 -0.7414  0.5162  0.5819
  164MOL    H7819964   8.201   6.971   0.871 -0.5949 -0.4611 -0.6715
  164MOL    H7919965   8.030   6.776   1.036  0.9907  0.1477  0.8696
  164MOL    C8019966   8.132   6.932   1.136  0.0806 -0.7801  0.2569
  164MOL    C8119967   8.038   6.929   1.265 -0.6034 -0.1828 -0.6959
  164MOL   Cl8219968   7.986   6.762   1.314 -0.0223 -0.0259 -0.1408
  164MOL    H8319969   8.152   7.038   1.117 -0.0803 -0.9389 -0.8487
  164MOL    H8419970   8.222   6.873   1.156 -0.8923 -1.6715  2.1435
  164MOL    H8519971   8.110   6.956   1.343  1.3741  0.1260 -2.5731
  164MOL    C8619972   7.932   7.038   1.297  0.1726  0.6834  0.0062
  164MOL    C8719973   7.971   7.187   1.286 -0.5045 -0.7445 -0.4914
  164MOL   Cl8819974   8.130   7.206   1.371  0.0093 -0.4696  0.1144
  164MOL    H8919975   7.901   7.020   1.400  1.4156  0.3535  0.3204
  164MOL    H9019976   7.843   7.019   1.237  0.2956  0.4240 -0.0920
  164MOL    H9119977   7.986   7.228   1.186 -2.5953 -1.0243 -0.9351
  164MOL    C9219978   7.874   7.279   1.366 -0.6360  0.6266  0.1162
  164MOL    C9319979   7.732   7.284   1.295 -0.3299 -0.2195 -0.2766
  164MOL   Cl9419980   7.751   7.357   1.128 -0.3168 -0.3667  0.3337
  164MOL    H9519981   7.913   7.380   1.369 -0.4090  0.5398  0.0494
  164MOL    H9619982   7.858   7.238   1.466 -0.3997  1.0243  0.3168
  164MOL    H9719983   7.695   7.185   1.270 -0.1827 -0.3474  0.0075
  164MOL    C9819984   7.648   7.368   1.390 -0.1878 -0.6330 -0.4882
  164MOL    C9919985   7.506   7.385   1.346  0.6912  0.5172  0.1399
  164MOL  Cl10019986   7.438   7.528   1.425 -0.1655 -0.3076  0.3978
  164MOL   H10119987   7.700   7.464   1.389  2.5566 -1.9966  2.5009
  164MOL   H10219988   7.653   7.340   1.495  1.7213 -1.4102 -0.7673
  164MOL   H10319989   7.497   7.416   1.242 -0.3151 -0.5485 -0.0991
  164MOL   C10419990   7.407   7.260   1.362 -0.4083  0.6044  0.4205
  164MOL   C10519991   7.262   7.268   1.309 -0.6132 -0.2759 -0.3365
  164MOL  Cl10619992   7.162   7.352   1.424  0.1630 -0.0438  0.3878
  164MOL   H10719993   7.394   7.218   1.462  1.1741  0.9382  0.7798
  164MOL   H10819994   7.454   7.177   1.308  1.4536  3.0459 -1.8469
  164MOL   H10919995   7.254   7.329   1.219  1.5959 -0.0292 -0.3978
  164MOL   C11019996   7.213   7.122   1.285  0.4177  0.7565 -0.0477
  164MOL   C11119997   7.068   7.102   1.226  0.3030 -0.0778 -0.4755
  164MOL  Cl11219998   7.049   6.927   1.201  0.0799  0.3449 -0.3088
  164MOL   H11319999   7.223   7.066   1.377  1.3529  0.4182 -0.3589
  164MOL   H11420000   7.279   7.072   1.214 -2.3722 -2.0076 -0.7996
  164MOL   H11520001   7.005   7.151   1.300 -1.2223 -0.4043 -1.5453
  164MOL   C11620002   7.047   7.169   1.093 -0.2632  0.2845  0.1319
  164MOL   C11720003   6.909   7.160   1.045  0.2218  0.2285 -0.0018
  164MOL  Cl11820004   6.899   7.179   0.866 -0.0354  0.5274 -0.6738
  164MOL   H11920005   7.108   7.116   1.020  0.9195  0.1662  1.1972
  164MOL   H12020006   7.072   7.274   1.079 -3.6653  1.2200  0.6212
  164MOL   H12120007   6.863   7.066   1.077 -0.9083  0.4607 -0.9236
  164MOL   H12220008   6.849   7.237   1.092 -3.0401 -2.2436  0.0811
  165MOL     C120009   1.848   1.980   1.402 -0.5390  0.1718 -0.3566
  165MOL     C220010   1.707   2.038   1.412  0.2648 -0.1015 -0.0370
  165MOL    Cl320011   1.659   2.063   1.582 -0.3358  0.4447 -0.1132
  165MOL     H420012   1.891   1.983   1.302  0.9055 -0.2956  0.2463
  165MOL     H520013   1.917   2.041   1.461 -0.7686  0.3160 -0.2352
  165MOL     H620014   1.707   2.130   1.353 -0.0705 -0.5570 -0.7522
  165MOL     H720015   1.853   1.878   1.438  0.1231 -0.7314 -2.8955
  165MOL     C820016   1.604   1.950   1.341  0.0806  0.0370  0.0175
  165MOL     C920017   1.622   1.938   1.185 -0.0066 -0.8083  0.0120
  165MOL   Cl1020018   1.582   2.088   1.104 -0.2756  0.1644 -0.0875
  165MOL    H1120019   1.503   1.984   1.365 -0.0273 -0.4719  0.2853
  165MOL    H1220020   1.614   1.856   1.394  0.9908  0.4273  0.5470
  165MOL    H1320021   1.724   1.920   1.154 -0.4152  0.1767 -1.9889
  165MOL    C1420022   1.529   1.834   1.119 -0.1221  0.0957 -0.2602
  165MOL    C1520023   1.562   1.696   1.169  0.5705 -0.4210  0.1564
  165MOL   Cl1620024   1.731   1.666   1.133  0.0939  0.1127 -0.1171
  165MOL    H1720025   1.530   1.840   1.010  1.2482  1.2634 -0.2087
  165MOL    H1820026   1.426   1.851   1.150  0.4923  0.6393  1.5351
  165MOL    H1920027   1.557   1.678   1.277  0.8725 -1.1974  0.0432
  165MOL    C2020028   1.486   1.588   1.091 -0.1466  0.9545  0.3087
  165MOL    C2120029   1.342   1.562   1.130  0.4551 -0.3572  1.0855
  165MOL   Cl2220030   1.334   1.544   1.301 -0.0468  0.2528 -0.1169
  165MOL    H2320031   1.543   1.497   1.109 -0.3006  0.4740 -1.5070
  165MOL    H2420032   1.487   1.605   0.983 -3.4238 -3.0320 -0.4798
  165MOL    H2520033   1.279   1.647   1.102  2.5261  1.6021  2.2634
  165MOL    C2620034   1.288   1.437   1.061 -0.1479 -0.2125  0.5099
  165MOL    C2720035   1.255   1.440   0.914  0.3958 -0.3655  0.2922
  165MOL   Cl2820036   1.120   1.551   0.880 -0.2646  0.0734  0.1049
  165MOL    H2920037   1.195   1.404   1.108 -1.0593  1.0774 -0.3507
  165MOL    H3020038   1.353   1.353   1.085  1.0113  0.5591  0.1513
  165MOL    H3120039   1.335   1.474   0.849  0.8358 -0.2671  0.8785
  165MOL    C3220040   1.223   1.303   0.860  0.2881 -0.5600  0.4520
  165MOL    C3320041   1.216   1.286   0.710  0.0515  0.0348  0.0703
  165MOL   Cl3420042   1.060   1.330   0.651  0.4041  0.2178  0.1395
  165MOL    H3520043   1.134   1.261   0.907 -1.1768  0.8298 -1.0517
  165MOL    H3620044   1.300   1.231   0.887 -0.8422 -1.5099  1.2064
  165MOL    H3720045   1.277   1.361   0.660 -0.3147  0.0432 -0.3651
  165MOL    C3820046   1.242   1.138   0.669 -0.0739 -0.7743  0.1617
  165MOL    C3920047   1.387   1.095   0.673 -0.2273 -0.9933 -0.0726
  165MOL   Cl4020048   1.480   1.216   0.568  0.0272  0.2079 -0.2866
  165MOL    H4120049   1.216   1.137   0.563  2.7227 -1.4152 -0.5804
  165MOL    H4220050   1.173   1.077   0.726  0.0782 -1.2922 -0.2120
  165MOL    H4320051   1.425   1.095   0.775  0.5867 -0.5076 -0.3746
  165MOL    C4420052   1.410   0.953   0.618  0.3341 -0.6994 -0.0028
  165MOL    C4520053   1.347   0.844   0.709 -0.3596 -0.2498  0.2133
  165MOL   Cl4620054   1.414   0.854   0.874 -0.0446  0.3251 -0.1386
  165MOL    H4720055   1.517   0.932   0.620  0.3744 -0.3678  2.6609
  165MOL    H4820056   1.388   0.944   0.512 -2.2040  0.2209  0.4153
  165MOL    H4920057   1.238   0.848   0.712 -0.3280 -0.5408  3.2122
  165MOL    C5020058   1.360   0.704   0.653 -0.4191  0.1104  0.2939
  165MOL    C5120059   1.273   0.684   0.524  0.1542 -0.1759 -0.2758
  165MOL   Cl5220060   1.107   0.631   0.568  0.5479 -0.0006  0.4987
  165MOL    H5320061   1.324   0.639   0.733 -1.3131  1.5662  1.1044
  165MOL    H5420062   1.467   0.688   0.648 -0.4531  0.1171 -0.4312
  165MOL    H5520063   1.254   0.774   0.466  0.9481  2.5759  3.5636
  165MOL    C5620064   1.338   0.579   0.439 -1.1221 -0.3134  0.8512
  165MOL    C5720065   1.468   0.634   0.367 -0.6349  0.2480  0.5797
  165MOL   Cl5820066   1.415   0.753   0.240  0.1713  0.2854 -0.0560
  165MOL    H5920067   1.263   0.536   0.374 -0.3077 -1.2504  0.5092
  165MOL    H6020068   1.362   0.496   0.506  0.6371 -1.2347 -0.8821
  165MOL    H6120069   1.522   0.696   0.438  0.2452 -1.2268  1.2202
  165MOL    C6220070   1.561   0.521   0.310  0.4902 -0.1707  0.1701
  165MOL    C6320071   1.698   0.578   0.251 -0.1268  0.0683  0.0649
  165MOL   Cl6420072   1.771   0.450   0.155  0.4240  0.0705  0.1308
  165MOL    H6520073   1.521   0.450   0.238 -1.6920  1.8625 -0.6889
  165MOL    H6620074   1.583   0.462   0.399 -0.4429 -1.0340 -0.1545
  165MOL    H6720075   1.673   0.666   0.192  0.1764 -0.0144 -0.1824
  165MOL    C6820076   1.805   0.610   0.359 -0.3147  0.1091  0.1983
  165MOL    C6920077   1.791   0.734   0.449 -0.0089  0.0662  0.0569
  165MOL   Cl7020078   1.759   0.885   0.366 -0.4280 -0.2139 -0.2133
  165MOL    H7120079   1.903   0.632   0.315 -0.1841  0.0724  0.4678
  165MOL    H7220080   1.819   0.523   0.424 -2.6200 -1.2393 -1.0575
  165MOL    H7320081   1.708   0.722   0.519  1.1727  0.9580  1.6471
  165MOL    C7420082   1.922   0.763   0.522 -0.2723  0.5800  0.4773
  165MOL    C7520083   1.921   0.879   0.626  0.0993  0.3882  0.1463
  165MOL   Cl7620084   2.085   0.929   0.648 -0.3799  0.0332 -0.4626
  165MOL    H7720085   1.985   0.802   0.443 -1.0770 -0.9358 -0.9377
  165MOL    H7820086   1.972   0.668   0.546 -0.9515  0.2858  0.7327
  165MOL    H7920087   1.872   0.968   0.585 -0.5218  0.5037  1.1308
  165MOL    C8020088   1.874   0.827   0.765  0.0261  0.0253  0.4418
  165MOL    C8120089   1.853   0.933   0.871 -0.7592  0.1304 -0.3360
  165MOL   Cl8220090   1.831   0.838   1.018  0.1459  0.1615  0.0233
  165MOL    H8320091   1.945   0.754   0.803  0.0901 -0.0410  0.1980
  165MOL    H8420092   1.788   0.761   0.753 -0.6093  0.2636  3.3761
  165MOL    H8520093   1.951   0.976   0.889 -0.2285 -0.7875 -1.0294
  165MOL    C8620094   1.741   1.037   0.862  0.6421 -0.2653 -0.2357
  165MOL    C8720095   1.703   1.114   0.980  0.5453  0.5654 -0.5272
  165MOL   Cl8820096   1.578   1.239   0.937  0.2032  0.4801 -0.0259
  165MOL    H8920097   1.655   0.983   0.823 -0.1543  2.3297 -2.2167
  165MOL    H9020098   1.754   1.111   0.783  1.0024  1.4635  1.4147
  165MOL    H9120099   1.656   1.046   1.051  1.0645  0.9260  0.1604
  165MOL    C9220100   1.825   1.187   1.042  0.8397  1.0757  0.4551
  165MOL    C9320101   1.798   1.259   1.174  0.2998  0.2711 -0.2263
  165MOL   Cl9420102   1.947   1.356   1.211 -0.0636 -0.0968 -0.1611
  165MOL    H9520103   1.854   1.264   0.970  2.8409  0.2866  0.3867
  165MOL    H9620104   1.907   1.117   1.056  1.1071  0.6670 -2.7405
  165MOL    H9720105   1.719   1.334   1.166 -0.2356 -0.3925 -1.3123
  165MOL    C9820106   1.770   1.154   1.288 -0.3646 -0.4054 -0.0209
  165MOL    C9920107   1.671   1.204   1.395  0.0207  0.4403  0.2785
  165MOL  Cl10020108   1.514   1.225   1.313  0.0948 -0.0649 -0.0791
  165MOL   H10120109   1.861   1.127   1.342 -1.6123 -1.5823  1.5361
  165MOL   H10220110   1.733   1.065   1.237 -1.2929 -1.5027  2.4802
  165MOL   H10320111   1.652   1.125   1.468 -0.0482  0.8901  0.7440
  165MOL   C10420112   1.705   1.336   1.462  0.7685 -0.1597 -0.1636
  165MOL   C10520113   1.638   1.374   1.603 -0.1649  0.7582 -0.0682
  165MOL  Cl10620114   1.701   1.255   1.726  0.3404 -0.4404 -0.2056
  165MOL   H10720115   1.707   1.413   1.385  1.6196  0.9238  0.9158
  165MOL   H10820116   1.812   1.333   1.480  0.6828 -2.6940  0.2098
  165MOL   H10920117   1.673   1.473   1.630 -0.0930  0.9438 -0.8291
  165MOL   C11020118   1.478   1.365   1.609 -0.0831  0.4777 -0.3617
  165MOL   C11120119   1.400   1.416   1.729 -0.2947  0.6056  0.9927
  165MOL  Cl11220120   1.227   1.399   1.704  0.0264 -0.2673  0.2710
  165MOL   H11320121   1.447   1.262   1.587  0.1817  0.9848 -3.3640
  165MOL   H11420122   1.440   1.411   1.518  0.9953  0.7508 -0.6754
  165MOL   H11520123   1.429   1.362   1.819 -0.5439 -3.0933 -1.0590
  165MOL   C11620124   1.419   1.565   1.756  0.1721 -0.5441  0.4794
  165MOL   C11720125   1.410   1.663   1.637 -0.2218 -0.4120 -0.9233
  165MOL  Cl11820126   1.434   1.826   1.691  0.2940  0.0838  0.0455
  165MOL   H11920127   1.519   1.589   1.791  0.4972 -0.6969 -0.3292
  165MOL   H12020128   1.349   1.602   1.831  1.1717  0.4609  0.9198
  165MOL   H12120129   1.482   1.643   1.557  2.3601  2.7911  0.5093
  165MOL   H12220130   1.311   1.668   1.591 -1.1011  0.8176  1.0548
  166MOL     C120131   1.215   1.295   5.668 -0.7474  0.3106  0.0110
  166MOL     C220132   1.330   1.314   5.564 -0.2559 -0.3011  0.3074
  166MOL    Cl320133   1.258   1.287   5.404 -0.4638  0.1970  0.1697
  166MOL     H420134   1.242   1.334   5.767  0.8471 -0.4439 -0.1133
  166MOL     H520135   1.142   1.371   5.642  2.9388  3.7794 -0.6805
  166MOL     H620136   1.376   1.413   5.567 -0.2452 -0.3079  0.3701
  166MOL     H720137   1.160   1.201   5.676 -0.1331 -0.1449 -1.1625
  166MOL     C820138   1.445   1.218   5.579  0.2092  0.0352 -0.0628
  166MOL     C920139   1.497   1.202   5.725 -0.0815 -0.4576  0.2587
  166MOL   Cl1020140   1.520   1.350   5.817 -0.3001 -0.0368 -0.5620
  166MOL    H1120141   1.521   1.257   5.510 -0.4552  0.2764 -0.6693
  166MOL    H1220142   1.416   1.118   5.547  0.2543 -0.4990  1.5378
  166MOL    H1320143   1.408   1.152   5.764 -0.0390 -3.3476 -3.0747
  166MOL    C1420144   1.628   1.113   5.740 -0.3658  0.2399 -0.6573
  166MOL    C1520145   1.606   0.957   5.722 -0.0451  0.1307 -0.5077
  166MOL   Cl1620146   1.478   0.892   5.826  0.0505  0.1390 -0.1012
  166MOL    H1720147   1.674   1.122   5.838 -0.4993 -0.5141 -0.5155
  166MOL    H1820148   1.696   1.156   5.667 -0.8286  1.7406 -0.2164
  166MOL    H1920149   1.566   0.941   5.622  0.7564  1.7871 -1.1083
  166MOL    C2020150   1.726   0.860   5.747 -0.6153  0.1453  0.5572
  166MOL    C2120151   1.866   0.900   5.693 -0.1942 -0.1182  0.0818
  166MOL   Cl2220152   1.847   0.913   5.515  0.2660 -0.4053 -0.2853
  166MOL    H2320153   1.695   0.758   5.725 -2.9832  0.9590 -0.0043
  166MOL    H2420154   1.748   0.851   5.853  1.4450  0.9423  0.2138
  166MOL    H2520155   1.902   0.995   5.730 -2.2194  1.3373 -1.5541
  166MOL    C2620156   1.979   0.794   5.733  0.2100 -0.0014 -0.3340
  166MOL    C2720157   2.040   0.823   5.870  0.1123 -0.1026  0.9607
  166MOL   Cl2820158   2.153   0.957   5.839 -0.4813 -0.0046 -0.1901
  166MOL    H2920159   2.066   0.792   5.668  2.7611  2.0453  2.8536
  166MOL    H3020160   1.940   0.692   5.738  2.2340 -0.8666 -1.5357
  166MOL    H3120161   1.978   0.852   5.954 -0.6506  2.0339 -0.2995
  166MOL    C3220162   2.127   0.709   5.930 -0.1351  0.5446 -0.3228
  166MOL    C3320163   2.039   0.600   6.000 -0.0894  0.3766  0.0239
  166MOL   Cl3420164   1.971   0.666   6.151  0.2852  0.3307  0.0323
  166MOL    H3520165   2.190   0.758   6.004  0.7876 -1.7039  0.3935
  166MOL    H3620166   2.192   0.673   5.851  0.4869 -2.3200  1.4573
  166MOL    H3720167   1.952   0.580   5.937  0.0159  2.2281 -0.7250
  166MOL    C3820168   2.120   0.466   6.020 -0.7288  0.2930 -0.4280
  166MOL    C3920169   2.145   0.393   5.885 -0.5770  0.1872  0.0821
  166MOL   Cl4020170   1.993   0.359   5.798  0.2534 -0.2953 -0.2803
  166MOL    H4120171   2.057   0.399   6.079  0.1506 -1.5725 -1.5526
  166MOL    H4220172   2.211   0.489   6.075 -1.6666  1.8487  0.5168
  166MOL    H4320173   2.189   0.455   5.807  0.0703 -0.6866 -0.2538
  166MOL    C4420174   2.221   0.258   5.905 -0.3985  0.4522 -0.1436
  166MOL    C4520175   2.272   0.189   5.772 -0.8649 -0.3389 -0.4216
  166MOL   Cl4620176   2.317   0.019   5.805 -0.1058  0.1131 -0.2807
  166MOL    H4720177   2.156   0.194   5.965  2.3507 -3.1481 -0.8134
  166MOL    H4820178   2.302   0.274   5.976 -0.6295  0.6900  0.0690
  166MOL    H4920179   2.186   0.179   5.707 -0.0889 -1.7097 -1.2568
  166MOL    C5020180   2.390   0.254   5.695  0.4880  0.3195 -0.5149
  166MOL    C5120181   2.412   0.211   5.541 -0.0254  0.7301 -0.9127
  166MOL   Cl5220182   2.503   0.062   5.541  0.1298 -0.2212 -0.0675
  166MOL    H5320183   2.478   0.252   5.759 -0.6364  0.1452  1.0468
  166MOL    H5420184   2.378   0.362   5.704  4.8276  0.6328  2.9413
  166MOL    H5520185   2.320   0.195   5.483 -0.2159 -0.5181 -0.2785
  166MOL    C5620186   2.489   0.318   5.458  0.0752  0.0649 -0.0952
  166MOL    C5720187   2.402   0.446   5.424 -0.3414  0.1189  0.5076
  166MOL   Cl5820188   2.276   0.404   5.307 -0.3420  0.2323 -0.1223
  166MOL    H5920189   2.534   0.269   5.372 -0.8831 -0.4436 -0.3221
  166MOL    H6020190   2.563   0.353   5.529  0.3155  0.4670 -0.5481
  166MOL    H6120191   2.348   0.484   5.510 -1.3205  0.5467 -0.2773
  166MOL    C6220192   2.490   0.560   5.364  0.5837 -0.7973  0.0579
  166MOL    C6320193   2.421   0.698   5.345 -0.1969 -0.1075 -0.7178
  166MOL   Cl6420194   2.407   0.737   5.169 -0.1440  0.2099  0.2717
  166MOL    H6520195   2.539   0.532   5.270 -1.8264 -1.2429 -1.1212
  166MOL    H6620196   2.570   0.577   5.436  1.0114 -1.8578 -0.1536
  166MOL    H6720197   2.319   0.692   5.382  0.2905  1.2730  0.8743
  166MOL    C6820198   2.488   0.818   5.424  0.3612 -0.3691  0.4777
  166MOL    C6920199   2.492   0.799   5.577 -0.5234  0.0799  0.3649
  166MOL   Cl7020200   2.336   0.751   5.628  0.7028 -0.1040  0.2169
  166MOL    H7120201   2.424   0.898   5.388  0.7853 -0.9550 -1.6531
  166MOL    H7220202   2.586   0.851   5.388 -0.8913  2.1586 -0.7583
  166MOL    H7320203   2.562   0.719   5.601 -1.6914 -1.4400 -1.1716
  166MOL    C7420204   2.539   0.927   5.658 -0.5580 -0.0141 -0.0224
  166MOL    C7520205   2.601   0.898   5.801 -0.4243 -0.1083  0.4251
  166MOL   Cl7620206   2.739   0.791   5.787  0.1593 -0.3329  0.0314
  166MOL    H7720207   2.467   1.009   5.659 -0.0475  0.4508 -1.2094
  166MOL    H7820208   2.611   0.967   5.587  1.7888 -0.7138  1.9310
  166MOL    H7920209   2.650   0.988   5.838  0.5996 -0.7446  0.6489
  166MOL    C8020210   2.502   0.851   5.907  0.2486  0.8210 -0.4594
  166MOL    C8120211   2.554   0.816   6.045 -0.1353  0.1122 -0.3763
  166MOL   Cl8220212   2.414   0.760   6.130  0.0620 -0.1347 -0.1869
  166MOL    H8320213   2.463   0.759   5.863  1.8650 -0.0292 -0.1517
  166MOL    H8420214   2.414   0.916   5.909 -0.4647 -0.1514  0.7220
  166MOL    H8520215   2.620   0.730   6.038  1.9459  1.5662  0.5661
  166MOL    C8620216   2.609   0.934   6.119 -0.7091 -0.1956 -0.1331
  166MOL    C8720217   2.747   0.909   6.208 -0.2491  0.1842  0.4794
  166MOL   Cl8820218   2.881   0.922   6.092 -0.5215 -0.0704  0.2269
  166MOL    H8920219   2.534   0.965   6.192 -0.8945  0.9270 -0.7915
  166MOL    H9020220   2.643   1.023   6.065  1.1953 -0.4660  0.5732
  166MOL    H9120221   2.759   0.996   6.272  2.5989 -0.5152  0.9579
  166MOL    C9220222   2.768   0.778   6.287  0.2538 -0.0895  0.2143
  166MOL    C9320223   2.652   0.759   6.386  0.1626 -0.8255  0.1424
  166MOL   Cl9420224   2.647   0.890   6.507 -0.3371 -0.2674  0.1352
  166MOL    H9520225   2.862   0.772   6.342 -0.0323 -1.3488  0.5739
  166MOL    H9620226   2.773   0.699   6.213  1.3710  0.5611 -0.4203
  166MOL    H9720227   2.561   0.762   6.326  0.3240 -0.2522 -0.0807
  166MOL    C9820228   2.642   0.623   6.449  0.1500 -0.1455 -0.1820
  166MOL    C9920229   2.505   0.595   6.526 -0.4437  0.3448 -0.4953
  166MOL  Cl10020230   2.526   0.429   6.592  0.2534  0.4531 -0.0462
  166MOL   H10120231   2.727   0.603   6.514  0.9495 -0.6732 -1.3675
  166MOL   H10220232   2.666   0.549   6.373 -0.8037 -0.8846  0.2169
  166MOL   H10320233   2.481   0.660   6.611 -0.1675  0.9601 -0.8906
  166MOL   C10420234   2.379   0.582   6.432  0.6252  0.2580 -0.3912
  166MOL   C10520235   2.246   0.530   6.500 -0.5299  0.5183 -0.2626
  166MOL  Cl10620236   2.130   0.488   6.377  0.3534 -0.0765  0.2061
  166MOL   H10720237   2.404   0.509   6.355  0.9647 -1.7957  1.6085
  166MOL   H10820238   2.350   0.679   6.394 -0.2399  1.1574  2.4479
  166MOL   H10920239   2.266   0.434   6.547 -2.5109 -0.1667 -0.7734
  166MOL   C11020240   2.189   0.634   6.603 -0.1780 -0.1265 -0.4169
  166MOL   C11120241   2.079   0.586   6.693  0.0379  0.7928  0.0885
  166MOL  Cl11220242   2.017   0.711   6.803 -0.2063  0.1012  0.1213
  166MOL   H11320243   2.165   0.720   6.542  0.3700  2.2567  2.5877
  166MOL   H11420244   2.268   0.667   6.671  0.4922 -1.3889 -0.5623
  166MOL   H11520245   1.993   0.549   6.637  0.8324 -0.0310 -0.5942
  166MOL   C11620246   2.118   0.464   6.785  0.3558 -0.1350  0.3480
  166MOL   C11720247   2.009   0.396   6.872  0.0313 -1.1070  1.0865
  166MOL  Cl11820248   2.071   0.274   6.988 -0.1642  0.0101  0.0541
  166MOL   H11920249   2.201   0.502   6.845  0.7720  1.5012 -1.2169
  166MOL   H12020250   2.153   0.383   6.722 -1.7563 -0.6231 -0.2459
  166MOL   H12120251   1.952   0.474   6.924 -0.4376  0.0043 -1.0161
  166MOL   H12220252   1.935   0.348   6.807  2.4113 -0.1531 -2.5283
  167MOL     C120253   4.379   7.004   1.595 -0.3047  0.2872  0.3897
  167MOL     C220254   4.369   7.006   1.749  0.6934  0.4549 -0.0853
  167MOL    Cl320255   4.475   6.875   1.797 -0.0222  0.1285 -0.1551
  167MOL     H420256   4.330   7.092   1.553 -0.0661  0.6946  0.9677
  167MOL     H520257   4.481   7.013   1.557  0.4427 -1.2534  1.9383
  167MOL     H620258   4.410   7.098   1.791 -1.9042  0.7337  1.9855
  167MOL     H720259   4.344   6.914   1.543 -1.2094  0.7079  0.2678
  167MOL     C820260   4.237   6.987   1.817 -0.3601  0.9659 -0.3865
  167MOL     C920261   4.117   7.083   1.793 -0.0341 -0.0967 -0.6065
  167MOL   Cl1020262   4.157   7.258   1.830  0.0764 -0.0388 -0.2451
  167MOL    H1120263   4.252   6.975   1.924  0.2156 -0.0576 -0.5775
  167MOL    H1220264   4.200   6.886   1.798  0.3290  1.3293 -3.9132
  167MOL    H1320265   4.102   7.093   1.686 -0.5841  0.7972 -0.4451
  167MOL    C1420266   4.001   7.045   1.883  1.1613 -0.5407  0.2003
  167MOL    C1520267   3.875   7.129   1.867 -0.1548 -0.1681  0.3344
  167MOL   Cl1620268   3.748   7.074   1.984 -0.1036 -0.3279 -0.0186
  167MOL    H1720269   4.037   7.039   1.986 -0.0921 -1.6632  0.5893
  167MOL    H1820270   3.976   6.941   1.863  2.5080 -0.9499  0.5664
  167MOL    H1920271   3.889   7.233   1.898 -1.8141  0.2800 -0.3577
  167MOL    C2020272   3.825   7.143   1.723  0.4535 -0.0648  0.3662
  167MOL    C2120273   3.765   7.015   1.658  0.2949  0.2586  1.0310
  167MOL   Cl2220274   3.899   6.900   1.617 -0.0522 -0.3497 -0.0237
  167MOL    H2320275   3.888   7.200   1.655  0.9506  0.7873  1.5226
  167MOL    H2420276   3.740   7.210   1.730 -0.8875 -1.6089 -0.7132
  167MOL    H2520277   3.694   6.962   1.722 -2.0491  0.0971 -1.6407
  167MOL    C2620278   3.685   7.045   1.530 -0.0784 -0.6976 -0.1444
  167MOL    C2720279   3.599   6.935   1.486  0.4921  0.1744  0.0267
  167MOL   Cl2820280   3.509   6.982   1.339  0.0646 -0.3382  0.0614
  167MOL    H2920281   3.754   7.061   1.448  1.0313 -1.2134  0.6821
  167MOL    H3020282   3.626   7.137   1.533  1.5647  0.4519 -2.0372
  167MOL    H3120283   3.665   6.854   1.453  4.4915  3.0315  0.6038
  167MOL    C3220284   3.497   6.870   1.590  0.0266 -0.2306 -0.0962
  167MOL    C3320285   3.390   6.967   1.645 -0.1121  0.4567 -0.2999
  167MOL   Cl3420286   3.453   7.108   1.719  0.0792  0.0572 -0.0771
  167MOL    H3520287   3.556   6.816   1.664 -0.5964  0.9398  1.2803
  167MOL    H3620288   3.447   6.784   1.545  0.4265 -0.0920 -0.8003
  167MOL    H3720289   3.344   7.014   1.558  0.3775  2.1178  0.3195
  167MOL    C3820290   3.279   6.902   1.737  0.5133  0.4729  0.1964
  167MOL    C3920291   3.179   6.810   1.667 -1.1139 -0.3598  0.6044
  167MOL   Cl4020292   3.108   6.887   1.527 -0.0609  0.3581  0.5617
  167MOL    H4120293   3.225   6.973   1.799  0.5534  1.8284 -1.2649
  167MOL    H4220294   3.336   6.841   1.807  1.2668 -0.0589 -0.8621
  167MOL    H4320295   3.234   6.727   1.624  0.8711  1.3438 -0.2142
  167MOL    C4420296   3.065   6.768   1.761  0.3590 -0.9870 -0.6564
  167MOL    C4520297   2.962   6.678   1.704  0.2146 -0.3380 -0.3153
  167MOL   Cl4620298   2.836   6.642   1.823 -0.1422  0.1322 -0.1320
  167MOL    H4720299   3.020   6.858   1.803  0.9561 -0.4327 -1.1956
  167MOL    H4820300   3.107   6.710   1.844 -0.8068  1.6804  1.8917
  167MOL    H4920301   2.903   6.731   1.629 -2.1334  0.1411  1.8070
  167MOL    C5020302   3.008   6.543   1.639  0.4284  0.1574 -0.2330
  167MOL    C5120303   3.100   6.452   1.726 -0.0899  0.0725 -0.0762
  167MOL   Cl5220304   3.208   6.359   1.615  0.4765  0.1675  0.1391
  167MOL    H5320305   3.059   6.561   1.544 -1.4146 -1.2874 -1.5281
  167MOL    H5420306   2.922   6.487   1.601 -1.1641  2.4862 -0.1108
  167MOL    H5520307   3.169   6.520   1.776  0.6492 -0.4463 -0.3925
  167MOL    C5620308   3.027   6.370   1.835 -0.6330 -0.8284  0.6001
  167MOL    C5720309   3.108   6.256   1.893  0.3745  0.5092 -0.5981
  167MOL   Cl5820310   3.085   6.113   1.793 -0.4494  0.1298  0.2122
  167MOL    H5920311   2.928   6.338   1.803 -1.1390  1.5140 -0.2273
  167MOL    H6020312   3.004   6.440   1.915 -0.3833 -0.2985  0.2100
  167MOL    H6120313   3.211   6.292   1.885  1.3118 -2.3405 -1.9621
  167MOL    C6220314   3.059   6.212   2.034  0.3506  0.8851 -0.3982
  167MOL    C6320315   3.166   6.157   2.127  0.6647  0.3844  0.2260
  167MOL   Cl6420316   3.080   6.091   2.271 -0.3008 -0.5048  0.4961
  167MOL    H6520317   2.977   6.140   2.024  0.7045  0.4248  0.0126
  167MOL    H6620318   3.006   6.293   2.084 -0.5712 -0.3800  0.7221
  167MOL    H6720319   3.214   6.078   2.069  0.6138  0.1052  0.5639
  167MOL    C6820320   3.288   6.249   2.164 -0.2142  0.4116 -0.8669
  167MOL    C6920321   3.401   6.179   2.245 -0.5015  0.4623  0.3843
  167MOL   Cl7020322   3.533   6.292   2.268 -0.0979 -0.3590 -0.0119
  167MOL    H7120323   3.238   6.330   2.218 -1.6950  0.9129 -2.8916
  167MOL    H7220324   3.325   6.297   2.073 -2.0862  2.5485 -0.5421
  167MOL    H7320325   3.363   6.168   2.347 -0.1658  1.2302  0.5928
  167MOL    C7420326   3.459   6.055   2.172 -0.4026 -0.3697 -0.4277
  167MOL    C7520327   3.431   5.922   2.236  0.0405 -0.1045 -0.2710
  167MOL   Cl7620328   3.490   5.924   2.410 -0.2751 -0.0589 -0.4483
  167MOL    H7720329   3.567   6.067   2.169 -0.2471 -1.6127 -0.2721
  167MOL    H7820330   3.448   6.057   2.063  0.1882  1.0094 -0.4622
  167MOL    H7920331   3.323   5.907   2.232  0.2036 -1.9102  1.3518
  167MOL    C8020332   3.505   5.808   2.156  0.4522  0.8003 -0.1367
  167MOL    C8120333   3.460   5.662   2.181  0.2471  0.1223 -0.5387
  167MOL   Cl8220334   3.579   5.550   2.101  0.0986 -0.3578 -0.0953
  167MOL    H8320335   3.610   5.826   2.182  0.6373  0.2755 -0.5041
  167MOL    H8420336   3.504   5.836   2.051 -1.3375  0.7623 -0.1432
  167MOL    H8520337   3.484   5.633   2.284  3.1113 -5.4908 -2.5700
  167MOL    C8620338   3.317   5.635   2.127  0.2439 -0.0342 -0.4279
  167MOL    C8720339   3.255   5.493   2.156  0.0548  0.2679  0.6359
  167MOL   Cl8820340   3.096   5.481   2.075  0.4007  0.0238  0.0810
  167MOL    H8920341   3.305   5.666   2.023 -2.4464 -0.8130 -0.3939
  167MOL    H9020342   3.249   5.703   2.178  0.4200  0.6122 -1.0546
  167MOL    H9120343   3.323   5.418   2.115 -0.7398  0.2072 -0.5979
  167MOL    C9220344   3.218   5.482   2.302  0.0913 -0.4228 -0.6021
  167MOL    C9320345   3.227   5.337   2.342  0.7400 -0.2470  0.1085
  167MOL   Cl9420346   3.148   5.318   2.506 -0.2531 -0.4170 -0.2370
  167MOL    H9520347   3.120   5.523   2.324 -0.0269 -0.6613 -0.6819
  167MOL    H9620348   3.289   5.533   2.368 -1.3035  2.7688 -1.5049
  167MOL    H9720349   3.163   5.282   2.272  0.1728  0.7443 -0.1697
  167MOL    C9820350   3.363   5.268   2.347 -0.4339 -0.0308  0.7466
  167MOL    C9920351   3.353   5.120   2.322  0.3392  0.6757  0.1690
  167MOL  Cl10020352   3.460   5.048   2.441  0.5569  0.0434 -0.0942
  167MOL   H10120353   3.411   5.298   2.441  1.9367 -0.5907 -0.2353
  167MOL   H10220354   3.428   5.307   2.268  1.8215 -2.8069  1.1703
  167MOL   H10320355   3.253   5.079   2.334  0.2226  1.0864  0.5883
  167MOL   C10420356   3.393   5.076   2.177  0.1723 -0.0875 -0.0915
  167MOL   C10520357   3.378   4.925   2.146  0.0936  0.0820  0.2140
  167MOL  Cl10620358   3.445   4.885   1.990  0.4888  0.5368 -0.0776
  167MOL   H10720359   3.498   5.102   2.163  0.3768 -0.8311  0.0477
  167MOL   H10820360   3.332   5.141   2.114 -0.7190  0.7433  1.5826
  167MOL   H10920361   3.449   4.875   2.212  2.9828  1.4563 -1.7778
  167MOL   C11020362   3.236   4.867   2.141  0.7238  0.2426 -0.0653
  167MOL   C11120363   3.216   4.715   2.126  0.2718 -0.6243 -0.3641
  167MOL  Cl11220364   3.047   4.680   2.099  0.1210 -0.0927  0.1274
  167MOL   H11320365   3.184   4.921   2.062  1.5034  1.9506  0.5584
  167MOL   H11420366   3.189   4.904   2.232  0.9060 -0.2104  0.2131
  167MOL   H11520367   3.273   4.665   2.048 -0.8092  0.4419 -1.8646
  167MOL   C11620368   3.258   4.653   2.259 -0.4867 -0.5191 -0.1771
  167MOL   C11720369   3.279   4.496   2.260 -0.3145 -0.4220 -0.1769
  167MOL  Cl11820370   3.299   4.435   2.420  0.3095  0.0940  0.6161
  167MOL   H11920371   3.180   4.673   2.332 -2.5252  2.4751 -3.0881
  167MOL   H12020372   3.345   4.708   2.296  0.3691 -2.9950  1.6393
  167MOL   H12120373   3.192   4.449   2.215  0.4071 -0.7134 -1.2738
  167MOL   H12220374   3.368   4.466   2.204  0.1486 -0.9861  0.8362
  168MOL     C120375   0.627   1.602   0.638  0.0448 -0.2787  0.2797
  168MOL     C220376   0.517   1.646   0.729 -0.2110  0.5303 -0.0699
  168MOL    Cl320377   0.434   1.799   0.682 -0.3061  0.4137  0.6744
  168MOL     H420378   0.669   1.502   0.655  1.4165  0.2571  0.0699
  168MOL     H520379   0.588   1.592   0.537  2.5017 -2.9843 -0.4933
  168MOL     H620380   0.441   1.569   0.713 -1.5888  2.0696 -1.0753
  168MOL     H720381   0.715   1.666   0.628  1.0355 -1.9973 -2.7217
  168MOL     C820382   0.569   1.651   0.874 -0.6411  0.2873 -0.3438
  168MOL     C920383   0.576   1.511   0.947  0.1777  0.0721 -0.1933
  168MOL   Cl1020384   0.407   1.463   0.995  0.2815  0.2860 -0.5817
  168MOL    H1120385   0.498   1.712   0.932  0.3118  1.1481 -0.0650
  168MOL    H1220386   0.669   1.694   0.868 -0.5463 -0.2148 -2.8480
  168MOL    H1320387   0.609   1.426   0.887 -1.1693 -0.2142 -0.5568
  168MOL    C1420388   0.646   1.495   1.079  0.2290  0.7317  0.1159
  168MOL    C1520389   0.794   1.459   1.070  0.2662 -0.4526  0.2568
  168MOL   Cl1620390   0.810   1.291   1.024 -0.2970 -0.0344 -0.1891
  168MOL    H1720391   0.603   1.415   1.138  3.4910 -1.6110 -0.5782
  168MOL    H1820392   0.626   1.583   1.141 -3.0981 -0.7552  1.3097
  168MOL    H1920393   0.847   1.504   0.986  0.3245  0.4780  0.7791
  168MOL    C2020394   0.859   1.463   1.203  0.0671 -0.2925  0.5208
  168MOL    C2120395   0.886   1.601   1.260  0.4140 -0.2539  0.2424
  168MOL   Cl2220396   1.003   1.682   1.153 -0.2620 -0.3001  0.3882
  168MOL    H2320397   0.956   1.413   1.197 -0.2675 -1.1873  2.3315
  168MOL    H2420398   0.804   1.402   1.274 -0.6188 -2.4255 -1.8082
  168MOL    H2520399   0.792   1.656   1.250  0.5599 -0.2423 -1.1144
  168MOL    C2620400   0.946   1.590   1.403 -0.0388 -0.4162  0.6108
  168MOL    C2720401   0.925   1.716   1.493  0.3276 -1.2597 -0.3093
  168MOL   Cl2820402   1.035   1.710   1.624 -0.0046  0.1094  0.1442
  168MOL    H2920403   1.048   1.556   1.384 -0.4769 -1.1938 -0.4162
  168MOL    H3020404   0.897   1.507   1.454  0.1278 -0.2362  1.0677
  168MOL    H3120405   0.962   1.794   1.426  1.3505  0.0078  1.6586
  168MOL    C3220406   0.776   1.719   1.534  0.1072  0.0768 -0.3714
  168MOL    C3320407   0.714   1.855   1.573 -0.6046 -0.3956  0.4421
  168MOL   Cl3420408   0.541   1.821   1.615 -0.1872  0.0665  0.0615
  168MOL    H3520409   0.778   1.653   1.621 -0.3937  0.1161 -0.3313
  168MOL    H3620410   0.710   1.671   1.461 -1.4942 -2.7132  2.7783
  168MOL    H3720411   0.769   1.896   1.657 -1.6331  0.7876  0.5629
  168MOL    C3820412   0.714   1.955   1.449  0.4923 -0.0542  0.1324
  168MOL    C3920413   0.642   2.090   1.502 -0.7359 -0.2875 -0.6054
  168MOL   Cl4020414   0.604   2.177   1.348  0.4836 -0.2383 -0.0436
  168MOL    H4120415   0.670   1.910   1.361  1.0259 -2.1633  0.8965
  168MOL    H4220416   0.819   1.976   1.426  0.8398 -0.4504  1.2760
  168MOL    H4320417   0.545   2.068   1.545 -0.1112 -0.0309  0.9509
  168MOL    C4420418   0.731   2.168   1.598 -0.0077 -0.3263  0.0376
  168MOL    C4520419   0.677   2.306   1.639 -0.1590 -0.2406 -0.4005
  168MOL   Cl4620420   0.793   2.374   1.757  0.4922  0.3248  0.0478
  168MOL    H4720421   0.820   2.186   1.539  0.7324 -2.3348  0.4951
  168MOL    H4820422   0.761   2.099   1.677  1.8084 -0.4616 -0.7482
  168MOL    H4920423   0.689   2.367   1.550  3.4976  0.0182  0.2074
  168MOL    C5020424   0.533   2.303   1.707  0.2019  0.1066  0.6811
  168MOL    C5120425   0.467   2.444   1.731 -0.3952  0.4932  0.2591
  168MOL   Cl5220426   0.325   2.425   1.831 -0.4223 -0.4349 -0.2535
  168MOL    H5320427   0.546   2.248   1.801  1.9908 -2.9139 -1.2591
  168MOL    H5420428   0.459   2.237   1.662 -0.3019 -0.1233  1.8008
  168MOL    H5520429   0.540   2.508   1.782 -0.9108  0.3994  1.1202
  168MOL    C5620430   0.424   2.517   1.598  0.7125  1.0402 -0.3707
  168MOL    C5720431   0.392   2.669   1.616  0.5558 -0.0268  0.2844
  168MOL   Cl5820432   0.216   2.707   1.589 -0.0381 -0.1261 -0.4109
  168MOL    H5920433   0.337   2.457   1.572  0.3470  0.1801  2.6151
  168MOL    H6020434   0.503   2.505   1.524  1.3699  4.0604 -0.2425
  168MOL    H6120435   0.410   2.692   1.721  0.3324 -1.1390  0.5733
  168MOL    C6220436   0.476   2.761   1.531 -0.8040 -0.7225 -0.3733
  168MOL    C6320437   0.466   2.910   1.558 -0.0871  0.3594 -1.2024
  168MOL   Cl6420438   0.549   2.993   1.431 -0.6432  0.0259 -0.1822
  168MOL    H6520439   0.445   2.742   1.428  0.5752  2.5713 -1.4721
  168MOL    H6620440   0.582   2.735   1.530 -0.8489 -1.3431  4.0110
  168MOL    H6720441   0.363   2.942   1.549 -0.2289  0.8992  1.9228
  168MOL    C6820442   0.522   2.957   1.700 -0.2762 -0.3366 -0.6406
  168MOL    C6920443   0.504   3.115   1.725 -0.6207 -0.2219 -0.4880
  168MOL   Cl7020444   0.642   3.179   1.818  0.1802 -0.5650  0.1271
  168MOL    H7120445   0.627   2.928   1.703  0.0200  0.8754  1.7532
  168MOL    H7220446   0.482   2.908   1.789  2.5902  0.9223  1.3904
  168MOL    H7320447   0.519   3.162   1.628  0.8502 -1.9183 -1.1251
  168MOL    C7420448   0.359   3.145   1.783  0.5698  0.5923 -0.2516
  168MOL    C7520449   0.306   3.289   1.772  0.6456 -0.5774  0.3546
  168MOL   Cl7620450   0.374   3.391   1.898  0.1236  0.4064  0.5375
  168MOL    H7720451   0.366   3.124   1.890 -0.2002 -1.6425 -0.6282
  168MOL    H7820452   0.287   3.075   1.741 -0.3234  1.0950  0.3989
  168MOL    H7920453   0.331   3.342   1.680  1.6518 -0.8959  0.4305
  168MOL    C8020454   0.152   3.300   1.779  0.2756 -0.6567  0.0922
  168MOL    C8120455   0.096   3.437   1.765 -0.4327  0.3427 -0.2067
  168MOL   Cl8220456   8.454   3.418   1.832 -0.0401 -0.1607  0.3884
  168MOL    H8320457   0.105   3.265   1.871 -0.0173  3.5391  1.6960
  168MOL    H8420458   0.124   3.237   1.695  0.9098  0.8840 -1.3115
  168MOL    H8520459   0.144   3.502   1.839 -0.7563 -0.5726  0.8220
  168MOL    C8620460   0.094   3.499   1.623  0.2478  0.0959  0.7421
  168MOL    C8720461   0.008   3.626   1.604  0.6398  0.5689 -0.1732
  168MOL   Cl8820462   8.371   3.568   1.565  0.4526  0.4658  0.0675
  168MOL    H8920463   0.058   3.421   1.556  0.7122 -0.0180  0.6215
  168MOL    H9020464   0.200   3.521   1.608  0.8542  0.6404  5.2233
  168MOL    H9120465   8.514   3.675   1.700  1.1419  1.0031 -0.2880
  168MOL    C9220466   0.052   3.732   1.500 -0.5949 -0.1930  0.1569
  168MOL    C9320467   0.190   3.798   1.523 -0.6254  0.0024  0.0583
  168MOL   Cl9420468   0.185   3.891   1.671  0.1715 -0.0212 -0.4436
  168MOL    H9520469   8.498   3.804   1.480 -1.2886 -0.5511  1.5423
  168MOL    H9620470   0.079   3.682   1.407 -2.8979  0.4202 -0.8732
  168MOL    H9720471   0.265   3.721   1.543  0.2210  1.1839  1.4808
  168MOL    C9820472   0.249   3.870   1.393  0.7508 -0.0895  0.0581
  168MOL    C9920473   0.380   3.936   1.418 -0.2589 -0.1563  0.1070
  168MOL  Cl10020474   0.411   4.058   1.291 -0.0915  0.0065 -0.0689
  168MOL   H10120475   0.172   3.938   1.357 -0.5301 -0.1714  2.5383
  168MOL   H10220476   0.267   3.795   1.316 -1.1856 -0.8360  0.3104
  168MOL   H10320477   0.377   3.999   1.506 -2.2897  1.6450 -1.2247
  168MOL   C10420478   0.512   3.856   1.422  0.0629  0.0750  0.2630
  168MOL   C10520479   0.558   3.828   1.567 -0.1838  0.4557  0.5452
  168MOL  Cl10620480   0.611   3.976   1.647 -0.2381  0.4729  0.3918
  168MOL   H10720481   0.591   3.915   1.375 -0.7258  0.0390 -1.1503
  168MOL   H10820482   0.507   3.771   1.354 -0.0492  0.4001 -0.1405
  168MOL   H10920483   0.482   3.787   1.633  0.0508 -1.3004 -0.2449
  168MOL   C11020484   0.681   3.732   1.581 -0.1288 -0.7034 -0.1236
  168MOL   C11120485   0.676   3.595   1.511 -0.4886 -0.9689  0.3548
  168MOL  Cl11220486   0.535   3.498   1.579 -0.2579  0.0456 -0.0634
  168MOL   H11320487   0.691   3.716   1.688  1.4951  0.9385 -0.0052
  168MOL   H11420488   0.772   3.786   1.553 -0.6291  0.0026 -0.4166
  168MOL   H11520489   0.657   3.602   1.404 -0.2648  0.1485  0.3808
  168MOL   C11620490   0.806   3.519   1.527  0.6834 -0.0510 -0.2957
  168MOL   C11720491   0.820   3.380   1.458 -0.6273  0.3778  0.8482
  168MOL  Cl11820492   0.821   3.409   1.280 -0.1530  0.2901 -0.3197
  168MOL   H11920493   0.818   3.512   1.635 -1.5991  1.5218  0.0981
  168MOL   H12020494   0.892   3.576   1.491  1.7857 -1.4136  0.1236
  168MOL   H12120495   0.910   3.324   1.486 -0.3186 -0.0624 -0.9806
  168MOL   H12220496   0.731   3.321   1.477 -0.0986 -0.4150  0.8661
  169MOL     C120497   2.283   4.541   4.549 -0.0810  0.2377 -0.5376
  169MOL     C220498   2.136   4.537   4.587  0.0664 -0.6604 -0.3971
  169MOL    Cl320499   2.053   4.666   4.497  0.4047 -0.4704  0.3109
  169MOL     H420500   2.297   4.495   4.451  0.4359 -1.8345  0.4719
  169MOL     H520501   2.322   4.642   4.544 -2.1698  1.0685 -0.5402
  169MOL     H620502   2.096   4.442   4.552  0.8506 -0.9511 -0.5042
  169MOL     H720503   2.342   4.481   4.619 -0.2055  1.4358  0.6152
  169MOL     C820504   2.106   4.555   4.741  0.0545 -0.2130 -0.1115
  169MOL     C920505   1.956   4.583   4.768 -0.2135  0.0040 -0.1913
  169MOL   Cl1020506   1.943   4.586   4.943  0.2630 -0.2894  0.1186
  169MOL    H1120507   2.169   4.634   4.781  1.3006 -1.6254  0.7541
  169MOL    H1220508   2.136   4.467   4.797 -0.8008 -0.0555  0.5954
  169MOL    H1320509   1.927   4.684   4.741  1.7447  0.9759  1.1717
  169MOL    C1420510   1.865   4.471   4.718  0.2872  0.2232 -0.0263
  169MOL    C1520511   1.718   4.491   4.752  0.2850  0.5767  0.1718
  169MOL   Cl1620512   1.633   4.334   4.746  0.0539  0.3665 -0.1091
  169MOL    H1720513   1.909   4.382   4.762  1.4624 -0.1320 -1.8539
  169MOL    H1820514   1.871   4.468   4.609 -1.2061 -0.0445 -0.1204
  169MOL    H1920515   1.706   4.552   4.842  0.4998 -0.7765  1.1200
  169MOL    C2020516   1.657   4.586   4.647  0.2878  0.0105  0.3441
  169MOL    C2120517   1.563   4.690   4.699 -0.0651 -0.3155  0.4552
  169MOL   Cl2220518   1.432   4.609   4.802  0.0431  0.7900 -0.0404
  169MOL    H2320519   1.598   4.532   4.573  2.1944  0.6747 -1.7313
  169MOL    H2420520   1.739   4.634   4.594  0.0616  1.5289  1.3392
  169MOL    H2520521   1.617   4.751   4.772  2.8912 -2.1019 -0.1520
  169MOL    C2620522   1.496   4.771   4.584  0.4558  0.0291  0.2294
  169MOL    C2720523   1.588   4.872   4.501  0.7388  0.1212 -0.3515
  169MOL   Cl2820524   1.670   4.778   4.371  0.0123 -0.1184  0.2324
  169MOL    H2920525   1.414   4.830   4.627  0.2668  0.1042 -0.2365
  169MOL    H3020526   1.446   4.703   4.516  1.7891 -1.1616  0.4299
  169MOL    H3120527   1.535   4.944   4.439 -1.9617 -1.5850 -0.0877
  169MOL    C3220528   1.695   4.950   4.591 -0.4251  0.1512 -0.3352
  169MOL    C3320529   1.810   5.037   4.520  0.0700  0.2548 -0.6293
  169MOL   Cl3420530   1.910   5.130   4.630  0.0793  0.3160 -0.2563
  169MOL    H3520531   1.749   4.878   4.652  1.2100 -0.5660 -2.5626
  169MOL    H3620532   1.637   5.014   4.657 -2.5553 -1.8515 -0.2146
  169MOL    H3720533   1.873   4.966   4.467  0.7447 -1.9156  2.8502
  169MOL    C3820534   1.752   5.131   4.409 -0.1728  0.4054 -0.2212
  169MOL    C3920535   1.688   5.266   4.455  0.1030  0.7983 -0.8560
  169MOL   Cl4020536   1.536   5.240   4.539  0.0210 -0.4407  0.2312
  169MOL    H4120537   1.667   5.082   4.363  0.9720 -0.9895 -0.8898
  169MOL    H4220538   1.834   5.155   4.341 -0.1588 -1.6360 -0.9480
  169MOL    H4320539   1.754   5.304   4.533 -0.2784  1.5783 -0.9041
  169MOL    C4420540   1.657   5.376   4.345  0.3540 -0.1720  0.9265
  169MOL    C4520541   1.639   5.525   4.393  0.4923 -0.4429 -0.0732
  169MOL   Cl4620542   1.488   5.595   4.325 -0.3802  0.1633 -0.5027
  169MOL    H4720543   1.578   5.346   4.277  1.1236 -1.3678  0.5504
  169MOL    H4820544   1.752   5.363   4.293 -1.3667  0.2094 -2.4499
  169MOL    H4920545   1.653   5.534   4.501 -0.6557  0.7873 -0.0048
  169MOL    C5020546   1.758   5.610   4.341  0.4997  0.3654  0.0798
  169MOL    C5120547   1.756   5.757   4.385  0.4869 -0.5142 -0.2299
  169MOL   Cl5220548   1.900   5.831   4.304  0.1414  0.2905 -0.3177
  169MOL    H5320549   1.748   5.614   4.232 -1.3207  2.1187  0.2765
  169MOL    H5420550   1.854   5.560   4.348  1.1586  1.3394 -1.6416
  169MOL    H5520551   1.672   5.802   4.332  0.2107 -0.9581 -0.1693
  169MOL    C5620552   1.750   5.780   4.533 -0.1200 -0.2825 -0.1348
  169MOL    C5720553   1.875   5.747   4.616  0.1588 -0.8417  0.3773
  169MOL   Cl5820554   1.901   5.576   4.639  0.0628  0.2785  0.0911
  169MOL    H5920555   1.674   5.730   4.592 -1.7788  0.3539 -1.6842
  169MOL    H6020556   1.718   5.884   4.531  0.1029 -0.2341 -1.2352
  169MOL    H6120557   1.964   5.786   4.565 -1.9778  2.5557 -0.8986
  169MOL    C6220558   1.874   5.795   4.761 -0.5980 -0.6064 -0.3140
  169MOL    C6320559   1.861   5.948   4.763 -0.3697  0.5838  0.3117
  169MOL   Cl6420560   1.993   6.022   4.663 -0.1030  0.6866  0.2966
  169MOL    H6520561   1.968   5.770   4.810 -0.6355  0.8325  0.5253
  169MOL    H6620562   1.800   5.753   4.830  0.5227  0.1252  1.3724
  169MOL    H6720563   1.764   5.981   4.725 -0.4276  1.8946  1.5521
  169MOL    C6820564   1.871   6.007   4.905 -0.2746  0.0837 -0.7873
  169MOL    C6920565   1.775   5.967   5.019  0.1520  0.7067  0.0941
  169MOL   Cl7020566   1.609   6.002   4.958 -0.0711  0.2695  0.0294
  169MOL    H7120567   1.878   6.115   4.911 -1.0297  0.2344 -2.2959
  169MOL    H7220568   1.972   5.988   4.941  0.2283  1.9320 -1.1970
  169MOL    H7320569   1.786   5.860   5.039  1.8678  1.0572  1.1576
  169MOL    C7420570   1.798   6.041   5.156  0.2943  0.4816  0.8997
  169MOL    C7520571   1.756   5.970   5.292  0.0602  0.2325  0.3315
  169MOL   Cl7620572   1.577   5.949   5.277 -0.2840  0.0770 -0.2042
  169MOL    H7720573   1.762   6.143   5.146 -0.2693  0.5130  2.9567
  169MOL    H7820574   1.907   6.040   5.153  0.2455 -0.2589 -1.9039
  169MOL    H7920575   1.788   5.865   5.291  1.8184  0.7408  0.6285
  169MOL    C8020576   1.789   6.039   5.426  0.0091 -0.1345 -0.1347
  169MOL    C8120577   1.935   6.031   5.473 -0.2855  0.1004  0.2527
  169MOL   Cl8220578   1.980   5.874   5.536 -0.0644 -0.3334 -0.4678
  169MOL    H8320579   1.727   5.996   5.504  2.1209 -1.7405  0.7095
  169MOL    H8420580   1.754   6.141   5.414 -1.8059 -0.7090  0.0892
  169MOL    H8520581   2.001   6.052   5.390 -1.1484  1.3279 -0.1298
  169MOL    C8620582   1.963   6.121   5.585 -0.0263 -0.1241  0.0546
  169MOL    C8720583   1.986   6.265   5.539 -0.3173  0.3865 -0.2871
  169MOL   Cl8820584   2.156   6.267   5.488 -0.1751  0.1415 -0.0743
  169MOL    H8920585   2.047   6.079   5.639  0.1569  1.7661  1.2780
  169MOL    H9020586   1.892   6.118   5.668  0.4073  0.7857  0.4622
  169MOL    H9120587   1.910   6.279   5.463 -1.2912  2.1217  0.9657
  169MOL    C9220588   1.964   6.372   5.641 -0.2922  0.7956  0.0100
  169MOL    C9320589   1.972   6.515   5.589  0.2220  0.0002  0.1658
  169MOL   Cl9420590   1.955   6.626   5.732  0.2910 -0.0483 -0.0591
  169MOL    H9520591   2.031   6.369   5.726  2.3024 -0.1269 -2.0013
  169MOL    H9620592   1.866   6.359   5.686  0.1416 -1.0246  0.4820
  169MOL    H9720593   2.071   6.522   5.544 -0.7884  1.7387 -1.8840
  169MOL    C9820594   1.856   6.547   5.491 -0.2150  0.1873  0.4880
  169MOL    C9920595   1.707   6.545   5.539 -0.2839  0.8991 -0.2066
  169MOL  Cl10020596   1.655   6.370   5.535  0.3462  0.0865 -0.4393
  169MOL   H10120597   1.868   6.480   5.405  0.1541 -0.9152  1.3861
  169MOL   H10220598   1.885   6.642   5.447  1.2527 -1.3862 -2.0499
  169MOL   H10320599   1.711   6.579   5.643  2.9784  0.1555 -0.0258
  169MOL   C10420600   1.616   6.631   5.447 -0.3334 -0.3965 -0.8889
  169MOL   C10520601   1.484   6.673   5.515 -0.1568  0.3929  0.3337
  169MOL  Cl10620602   1.518   6.777   5.660 -0.2858 -0.0777 -0.0779
  169MOL   H10720603   1.610   6.588   5.347  2.0684 -1.4266 -0.6166
  169MOL   H10820604   1.652   6.731   5.421  0.1166  0.2164  1.9155
  169MOL   H10920605   1.429   6.726   5.438  0.8050 -1.3644 -1.6166
  169MOL   C11020606   1.394   6.553   5.562  0.0822 -0.5339  0.3115
  169MOL   C11120607   1.255   6.590   5.627 -0.1833  0.3869  0.1178
  169MOL  Cl11220608   1.199   6.455   5.736 -0.2583 -0.4963  0.1928
  169MOL   H11320609   1.445   6.494   5.638  0.4461  0.2215  0.6632
  169MOL   H11420610   1.388   6.490   5.473  0.8903 -0.1009 -0.0575
  169MOL   H11520611   1.278   6.682   5.683 -0.0522  0.1522  0.4519
  169MOL   C11620612   1.143   6.621   5.522 -0.7732  0.4281 -0.0585
  169MOL   C11720613   1.006   6.658   5.595 -0.3497  0.1080  0.5336
  169MOL  Cl11820614   0.883   6.713   5.475  0.6208  0.3958 -0.0671
  169MOL   H11920615   1.127   6.528   5.468  0.5812  0.3330 -0.3145
  169MOL   H12020616   1.167   6.701   5.452 -0.7710  1.5928  1.2535
  169MOL   H12120617   0.956   6.581   5.654 -1.4695  1.2463  1.0911
  169MOL   H12220618   1.035   6.740   5.662 -0.7866 -0.3849  1.3419
  170MOL     C120619   5.890   8.324   0.081  0.0529  0.5179 -0.2842
  170MOL     C220620   5.880   8.344   8.457 -0.2458 -0.3601  0.4006
  170MOL    Cl320621   5.750   8.241   8.381 -0.2668 -0.1307 -0.2759
  170MOL     H420622   5.905   8.220   0.107 -2.8725 -0.7089 -3.2263
  170MOL     H520623   5.972   8.388   0.115  0.5532 -0.3888  0.2289
  170MOL     H620624   5.851   8.448   8.445  0.4646 -0.4226 -2.2389
  170MOL     H720625   5.808   8.364   0.140 -1.5613  0.1974 -2.2720
  170MOL     C820626   6.023   8.294   8.395  0.3007  0.4666 -0.1024
  170MOL     C920627   6.138   8.390   8.416  0.7163 -0.3836  0.8661
  170MOL   Cl1020628   6.089   0.012   8.317 -0.1276 -0.3750 -0.2230
  170MOL    H1120629   6.021   8.281   8.287  0.3418 -0.9528  0.0458
  170MOL    H1220630   6.050   8.195   8.434  1.4619  0.8519  0.0802
  170MOL    H1320631   6.146   8.423   8.520 -0.3068 -0.4980  0.9871
  170MOL    C1420632   6.279   8.324   8.377 -0.2854 -0.7303 -0.2698
  170MOL    C1520633   6.398   8.420   8.403  0.6973 -0.3865 -0.5897
  170MOL   Cl1620634   6.480   8.465   8.251 -0.6093  0.4982 -0.0521
  170MOL    H1720635   6.284   8.293   8.273  0.6457 -0.2429 -0.3747
  170MOL    H1820636   6.288   8.231   8.434  0.5762 -0.5726 -0.1426
  170MOL    H1920637   6.359   8.510   8.450  1.5702  0.5016 -1.5280
  170MOL    C2020638   6.508   8.349   8.492  0.0214 -0.3965 -0.1924
  170MOL    C2120639   6.475   8.357   0.124 -0.5004  0.3629 -0.9486
  170MOL   Cl2220640   6.328   8.267   0.163  0.1771  0.0515  0.6019
  170MOL    H2320641   6.606   8.393   8.476  0.7772 -0.9429  2.5454
  170MOL    H2420642   6.514   8.246   8.457 -2.6269 -0.1254 -1.5331
  170MOL    H2520643   6.553   8.305   0.179 -1.7620 -1.2914 -0.6864
  170MOL    C2620644   6.454   8.493   0.191  0.5010 -0.2142 -0.6487
  170MOL    C2720645   6.560   0.068   0.162 -0.0518 -0.2473 -0.2170
  170MOL   Cl2820646   6.716   8.523   0.222  0.1428  0.6093 -0.3452
  170MOL    H2920647   6.443   8.487   0.299 -1.1426  0.2853 -0.7745
  170MOL    H3020648   6.362   0.007   0.150  0.2565 -0.0909  0.0173
  170MOL    H3120649   6.568   0.078   0.053  1.0420 -1.3359 -0.2352
  170MOL    C3220650   6.532   0.207   0.228  0.4706 -0.2416 -1.0940
  170MOL    C3320651   6.466   0.312   0.139 -0.2356  0.3278  0.2307
  170MOL   Cl3420652   6.583   0.367   0.015 -0.3267  0.2057  0.3472
  170MOL    H3520653   6.624   0.251   0.268 -0.8349 -0.5778  2.5195
  170MOL    H3620654   6.471   0.196   0.318  1.7268  0.0583 -0.1859
  170MOL    H3720655   6.390   0.258   0.082  2.3007 -0.9411 -2.0468
  170MOL    C3820656   6.415   0.432   0.225 -0.0767  0.1121  0.7663
  170MOL    C3920657   6.309   0.517   0.159  0.0015 -0.5328  0.4515
  170MOL   Cl4020658   6.179   0.415   0.100 -0.2226 -0.2528 -0.1307
  170MOL    H4120659   6.502   0.487   0.261  1.3081  0.1697 -2.5408
  170MOL    H4220660   6.371   0.396   0.318 -1.4330 -1.3322 -0.4236
  170MOL    H4320661   6.254   0.587   0.222  1.0256  1.3163 -0.6700
  170MOL    C4420662   6.357   0.601   0.038  0.4947 -0.4249 -0.6724
  170MOL    C4520663   6.455   0.710   0.062 -0.0750 -0.6904 -0.5552
  170MOL   Cl4620664   6.401   0.823   0.192 -0.1604  0.0845 -0.1908
  170MOL    H4720665   6.274   0.662   0.001  2.0466  0.6355 -2.5396
  170MOL    H4820666   6.387   0.537   8.480  1.0463 -1.0118 -0.0273
  170MOL    H4920667   6.547   0.671   0.105  0.2105 -0.2863 -0.7968
  170MOL    C5020668   6.498   0.786   8.464 -0.9242  0.0946  0.8454
  170MOL    C5120669   6.642   0.850   8.470  0.3660  0.5145  0.0200
  170MOL   Cl5220670   6.650   0.998   8.366 -0.3958  0.2369  0.0669
  170MOL    H5320671   6.422   0.861   8.446 -1.4934 -0.4223  1.0869
  170MOL    H5420672   6.494   0.714   8.383  0.6755  0.6489  0.2350
  170MOL    H5520673   6.668   0.884   0.045 -2.1276  0.1797  0.8253
  170MOL    C5620674   6.750   0.750   8.423  0.3162 -0.4030 -0.1060
  170MOL    C5720675   6.896   0.796   8.419 -0.0663 -0.1463  0.7993
  170MOL   Cl5820676   6.974   0.660   8.335  0.4022  0.3730 -0.5333
  170MOL    H5920677   6.728   0.725   8.319 -1.2573 -0.0504  0.1215
  170MOL    H6020678   6.742   0.655   8.477  2.3838 -0.2090  0.5607
  170MOL    H6120679   6.916   0.883   8.357  1.6162 -1.1094 -0.0787
  170MOL    C6220680   6.967   0.820   0.028  0.7647 -0.1355  0.3042
  170MOL    C6320681   7.118   0.837   0.015 -0.2182 -0.4400 -0.5400
  170MOL   Cl6420682   7.178   0.844   0.193 -0.5786 -0.1095  0.1384
  170MOL    H6520683   6.944   0.733   0.089  2.0287 -0.4403  0.3579
  170MOL    H6620684   6.933   0.907   0.085  1.9947 -1.1242  2.6496
  170MOL    H6720685   7.168   0.748   8.502  0.9294 -0.0517  0.0546
  170MOL    C6820686   7.154   0.969   8.460 -0.1097  0.0659 -0.5125
  170MOL    C6920687   7.304   1.012   8.460  0.0872 -0.1129  0.3935
  170MOL   Cl7020688   7.411   0.863   8.436  0.3472 -0.0079  0.2593
  170MOL    H7120689   7.100   1.058   8.493 -0.1662  0.4273 -1.5716
  170MOL    H7220690   7.114   0.966   8.359 -2.0516 -0.4538  0.2424
  170MOL    H7320691   7.321   1.064   8.366  2.5467 -1.0856  0.2692
  170MOL    C7420692   7.363   1.083   0.059 -0.5515  0.3101  0.8655
  170MOL    C7520693   7.282   1.205   0.101  0.0775  0.3299 -0.0608
  170MOL   Cl7620694   7.251   1.320   8.491 -0.3051 -0.0276  0.1217
  170MOL    H7720695   7.466   1.115   0.045 -0.4858 -0.3480 -0.2641
  170MOL    H7820696   7.396   1.005   0.128  0.6873 -1.9526 -2.1496
  170MOL    H7920697   7.184   1.172   0.137 -0.3149 -2.2355 -3.2065
  170MOL    C8020698   7.352   1.287   0.216 -0.4879  0.1529  0.1062
  170MOL    C8120699   7.364   1.203   0.344 -0.2793 -0.4323 -0.2790
  170MOL   Cl8220700   7.202   1.139   0.404  0.0929  0.0225 -0.2209
  170MOL    H8320701   7.286   1.370   0.243  1.6574  1.3864  1.6560
  170MOL    H8420702   7.445   1.329   0.179 -1.3427  1.0081 -1.1030
  170MOL    H8520703   7.411   1.106   0.331  0.4361 -0.0693 -0.4185
  170MOL    C8620704   7.425   1.278   0.462 -0.3098 -0.0190 -0.6350
  170MOL    C8720705   7.560   1.349   0.440 -0.8597  0.3464 -0.1322
  170MOL   Cl8820706   7.688   1.243   0.387 -0.0772  0.1662 -0.2342
  170MOL    H8920707   7.421   1.208   0.545 -0.9459 -1.0216 -1.5032
  170MOL    H9020708   7.360   1.363   0.486  1.3626  1.0712  0.1815
  170MOL    H9120709   7.548   1.422   0.359  1.2080  1.0457  0.1608
  170MOL    C9220710   7.608   1.439   0.563  0.1510  0.5418 -1.2037
  170MOL    C9320711   7.509   1.540   0.628  0.0378  0.3697 -1.1723
  170MOL   Cl9420712   7.456   1.656   0.501  0.1089 -0.3136 -0.0804
  170MOL    H9520713   7.712   1.467   0.542  1.0558 -1.7153  0.0408
  170MOL    H9620714   7.612   1.356   0.634  1.6041  1.2378 -0.4381
  170MOL    H9720715   7.419   1.489   0.665  0.5419  0.7358  0.5875
  170MOL    C9820716   7.567   1.617   0.744  0.4394 -0.4744  0.3219
  170MOL    C9920717   7.622   1.527   0.857  0.4604 -0.4694  0.2599
  170MOL  Cl10020718   7.489   1.415   0.916 -0.3431  0.5597  0.2126
  170MOL   H10120719   7.503   1.693   0.790 -0.2199 -1.4542  1.0312
  170MOL   H10220720   7.651   1.672   0.701  0.8780 -2.9783 -2.1624
  170MOL   H10320721   7.707   1.470   0.822  1.1077  0.8825 -0.3947
  170MOL   C10420722   7.668   1.620   0.976  0.0041 -0.3622 -0.8960
  170MOL   C10520723   7.718   1.540   1.095 -0.3032  0.5596  0.1324
  170MOL  Cl10620724   7.684   1.629   1.246 -0.1264 -0.0633 -0.1819
  170MOL   H10720725   7.575   1.667   1.010 -0.4140 -1.8574  0.0384
  170MOL   H10820726   7.746   1.692   0.949  1.4975 -2.5023 -2.4175
  170MOL   H10920727   7.658   1.450   1.110 -0.2628 -0.3604 -4.6678
  170MOL   C11020728   7.872   1.514   1.090  0.0558  0.0136 -0.3370
  170MOL   C11120729   7.918   1.400   1.180  0.1002 -0.1871 -0.3506
  170MOL  Cl11220730   8.092   1.418   1.238  0.0108  0.2754  0.0132
  170MOL   H11320731   7.917   1.606   1.127  1.4305 -0.6361 -0.3673
  170MOL   H11420732   7.911   1.497   0.989  0.6297 -1.9624  0.2062
  170MOL   H11520733   7.851   1.389   1.265 -0.0455  1.4017 -0.2301
  170MOL   C11620734   7.905   1.267   1.114 -0.1886  0.0039 -0.3964
  170MOL   C11720735   7.999   1.246   0.987 -0.1861 -0.4290 -0.1004
  170MOL  Cl11820736   7.889   1.277   0.845  0.0956 -0.0355  0.4109
  170MOL   H11920737   7.803   1.236   1.092 -1.0868  2.2910  0.3911
  170MOL   H12020738   7.936   1.188   1.182 -1.3571 -0.4670 -0.4061
  170MOL   H12120739   8.092   1.301   0.974 -1.7470  1.9224 -1.6758
  170MOL   H12220740   8.016   1.139   0.979 -1.5514 -0.5531 -1.7425
  171MOL     C120741   6.443   0.238   2.159  0.1926 -0.6807 -0.2369
  171MOL     C220742   6.473   0.360   2.063 -0.0857  0.0884 -0.4707
  171MOL    Cl320743   6.571   0.302   1.929  0.2004  0.1320 -0.0908
  171MOL     H420744   6.378   0.283   2.234  2.3325  1.1217  0.5761
  171MOL     H520745   6.397   0.159   2.100  0.0671  1.2069 -2.7505
  171MOL     H620746   6.380   0.392   2.017  0.4619  1.1505 -0.8569
  171MOL     H720747   6.532   0.199   2.209  1.8700  4.1306  0.7601
  171MOL     C820748   6.540   0.470   2.146  0.4876  0.0803 -0.0190
  171MOL     C920749   6.673   0.433   2.210  0.0471  0.0282 -0.2430
  171MOL   Cl1020750   6.650   0.370   2.368 -0.1373  0.1486  0.3723
  171MOL    H1120751   6.483   0.520   2.224 -0.0155 -0.5911  0.0527
  171MOL    H1220752   6.572   0.549   2.079  1.5754  1.2180  1.8158
  171MOL    H1320753   6.723   0.345   2.168  1.4573  0.4713  0.5047
  171MOL    C1420754   6.766   0.552   2.219 -0.8898 -0.2445 -0.4653
  171MOL    C1520755   6.908   0.532   2.286  0.0657  0.2256 -0.0063
  171MOL   Cl1620756   6.993   0.691   2.297  0.2894 -0.0786 -0.0237
  171MOL    H1720757   6.705   0.624   2.273  1.9872  1.6928  0.3271
  171MOL    H1820758   6.786   0.609   2.128  2.8703  0.9070  0.9826
  171MOL    H1920759   6.899   0.500   2.389  0.6309 -0.0560 -0.0399
  171MOL    C2020760   7.007   0.439   2.212  0.4814  0.2004  0.2007
  171MOL    C2120761   7.039   0.471   2.067  0.1711  0.8163 -0.0030
  171MOL   Cl2220762   6.912   0.418   1.947 -0.2715 -0.0584 -0.2788
  171MOL    H2320763   6.978   0.334   2.216 -0.5269  0.5009  1.2892
  171MOL    H2420764   7.104   0.433   2.261  1.2921  0.0599 -1.3732
  171MOL    H2520765   7.040   0.578   2.048 -0.6765  0.8503  0.1183
  171MOL    C2620766   7.170   0.401   2.010  0.1064 -0.0553  0.0010
  171MOL    C2720767   7.220   0.453   1.872 -0.4508  0.0008  0.4262
  171MOL   Cl2820768   7.355   0.357   1.808  0.0316  0.2505 -0.3569
  171MOL    H2920769   7.153   0.294   2.017  0.0117 -0.0621 -0.3219
  171MOL    H3020770   7.250   0.419   2.081 -0.8440  1.6948  0.6606
  171MOL    H3120771   7.141   0.439   1.798  0.3977  3.1258 -1.1335
  171MOL    C3220772   7.244   0.597   1.873  0.2897 -0.7027 -0.4847
  171MOL    C3320773   7.325   0.661   1.988  0.7439  0.9888 -0.4129
  171MOL   Cl3420774   7.301   0.832   1.994  0.0491  0.1898 -0.2145
  171MOL    H3520775   7.149   0.650   1.867  0.8112  0.5239  1.5111
  171MOL    H3620776   7.299   0.636   1.787  0.2958 -0.7672 -0.5101
  171MOL    H3720777   7.274   0.622   2.077 -2.0578  0.7382 -2.0525
  171MOL    C3820778   7.472   0.626   1.997  0.0945  0.4954 -0.3832
  171MOL    C3920779   7.543   0.667   2.122  0.7986 -0.6067  0.5685
  171MOL   Cl4020780   7.715   0.622   2.102 -0.1645 -0.1449 -0.1115
  171MOL    H4120781   7.518   0.680   1.915 -2.7217  0.1092 -2.2875
  171MOL    H4220782   7.495   0.523   1.971  1.4282  0.2746  1.5823
  171MOL    H4320783   7.538   0.776   2.124 -1.7264 -0.6340 -1.3736
  171MOL    C4420784   7.500   0.601   2.253 -0.4101  0.2244  0.2115
  171MOL    C4520785   7.415   0.693   2.348 -0.3609  0.5179 -0.5134
  171MOL   Cl4620786   7.498   0.845   2.398  0.0676  0.0753 -0.1209
  171MOL    H4720787   7.589   0.579   2.312  0.1608  0.4870 -0.5449
  171MOL    H4820788   7.454   0.503   2.243  0.0749  0.0326 -0.1930
  171MOL    H4920789   7.328   0.720   2.289  0.0431 -0.8196 -1.7504
  171MOL    C5020790   7.369   0.619   2.480 -0.4285  0.1523  0.1510
  171MOL    C5120791   7.319   0.702   2.596  0.3448  0.2948  0.0665
  171MOL   Cl5220792   7.304   0.597   2.739 -0.1264  0.1230 -0.1084
  171MOL    H5320793   7.454   0.568   2.526  0.0870  1.0803  0.2393
  171MOL    H5420794   7.297   0.545   2.446  1.9659 -0.8993 -2.9676
  171MOL    H5520795   7.395   0.773   2.629 -1.2857  0.6199  3.2762
  171MOL    C5620796   7.180   0.773   2.565 -0.5726  0.2396 -0.3881
  171MOL    C5720797   7.121   0.847   2.689 -0.2440 -0.4501  0.0652
  171MOL   Cl5820798   6.952   0.883   2.645  0.2869 -0.3515 -0.0323
  171MOL    H5920799   7.110   0.692   2.542 -0.1663 -0.6592  1.4523
  171MOL    H6020800   7.190   0.833   2.474 -1.1115 -0.3464 -0.8459
  171MOL    H6120801   7.120   0.778   2.773  0.8474  1.5088  1.7275
  171MOL    C6220802   7.200   0.972   2.741 -1.2859 -0.7065 -0.0204
  171MOL    C6320803   7.149   1.042   2.874 -0.6478  0.0535  0.0021
  171MOL   Cl6420804   7.241   1.199   2.892  0.0396 -0.2076 -0.0700
  171MOL    H6520805   7.200   1.044   2.658  1.4873 -0.3548  0.2207
  171MOL    H6620806   7.302   0.934   2.744 -0.8461  0.3617 -0.7454
  171MOL    H6720807   7.041   1.058   2.872 -0.5936  0.3117 -0.8366
  171MOL    C6820808   7.186   0.957   2.993  0.3730 -0.0195 -0.4353
  171MOL    C6920809   7.172   1.012   3.137 -0.4501 -0.3659  0.2359
  171MOL   Cl7020810   7.281   0.914   3.239  0.0347  0.6187 -0.0590
  171MOL    H7120811   7.287   0.916   2.981  0.5020 -0.7664  2.7355
  171MOL    H7220812   7.127   0.866   2.983 -1.8695  1.1906  1.3169
  171MOL    H7320813   7.228   1.105   3.149  0.1244 -0.8241  1.1732
  171MOL    C7420814   7.030   1.016   3.201 -0.3586  0.2648 -0.0926
  171MOL    C7520815   7.025   1.090   3.342  0.3663 -0.2452 -0.6413
  171MOL   Cl7620816   6.871   1.049   3.427 -0.2288 -0.2004  0.1208
  171MOL    H7720817   6.999   0.915   3.228 -1.3928  0.3422 -1.0087
  171MOL    H7820818   6.959   1.062   3.133  0.6420  2.2037  0.1243
  171MOL    H7920819   7.095   1.038   3.408 -0.6468  0.9676  1.4348
  171MOL    C8020820   7.035   1.244   3.330 -0.4898 -0.0216 -0.2325
  171MOL    C8120821   7.144   1.304   3.424  0.3521  0.1892 -0.4910
  171MOL   Cl8220822   7.300   1.225   3.394  0.0859  0.0369  0.2867
  171MOL    H8320823   6.941   1.294   3.353  0.1082  1.6907 -1.4539
  171MOL    H8420824   7.048   1.277   3.227  1.7268 -0.1719 -0.0316
  171MOL    H8520825   7.156   1.409   3.401  2.6135  0.4549  1.7626
  171MOL    C8620826   7.101   1.304   3.575 -0.1212 -0.4440  0.8223
  171MOL    C8720827   7.210   1.359   3.674  0.3135 -0.6367  0.3155
  171MOL   Cl8820828   7.342   1.246   3.700  0.1153  0.1358 -0.0315
  171MOL    H8920829   7.058   1.208   3.605  0.2239 -1.1287 -0.8506
  171MOL    H9020830   7.021   1.379   3.578  0.0782 -0.0560 -2.3354
  171MOL    H9120831   7.255   1.450   3.635 -0.5037 -0.1303  0.5382
  171MOL    C9220832   7.138   1.396   3.802  0.4286  0.0963 -0.9918
  171MOL    C9320833   7.023   1.314   3.870  0.1962 -0.0308 -0.0990
  171MOL   Cl9420834   6.937   1.416   3.992 -0.0090  0.1877 -0.2109
  171MOL    H9520835   7.083   1.486   3.776  0.7343  0.3621 -0.7166
  171MOL    H9620836   7.216   1.428   3.871  1.4510 -2.4511 -0.9189
  171MOL    H9720837   6.941   1.292   3.801 -0.9903  0.6432  1.0895
  171MOL    C9820838   7.065   1.188   3.951 -0.0396 -0.4877  0.4870
  171MOL    C9920839   7.097   1.054   3.881  0.4086  0.2313  0.0569
  171MOL  Cl10020840   6.952   0.978   3.804  0.2098 -0.0224 -0.2819
  171MOL   H10120841   6.985   1.160   4.019  1.0667 -1.6456  1.3307
  171MOL   H10220842   7.148   1.219   4.015  2.5818 -2.6959 -1.7329
  171MOL   H10320843   7.160   1.076   3.796 -0.0665  2.5230  0.2629
  171MOL   C10420844   7.158   0.954   3.972 -0.4161  0.1614  0.0758
  171MOL   C10520845   7.180   0.811   3.923  0.1193  0.3729  0.2683
  171MOL  Cl10620846   7.153   0.698   4.063 -0.3307  0.0066  0.4819
  171MOL   H10720847   7.102   0.960   4.065 -0.8155 -0.3094 -0.1312
  171MOL   H10820848   7.256   0.991   4.004 -0.1796 -1.1787  0.9354
  171MOL   H10920849   7.099   0.783   3.855 -0.3226 -1.5192  1.5337
  171MOL   C11020850   7.316   0.785   3.851  0.1638 -0.1503  0.2468
  171MOL   C11120851   7.348   0.871   3.721  1.1131  0.2901  0.0230
  171MOL  Cl11220852   7.212   0.853   3.602  0.0010 -0.2186  0.2185
  171MOL   H11320853   7.291   0.687   3.810  1.4585 -0.4123  0.0584
  171MOL   H11420854   7.396   0.803   3.922  0.0570  1.9223 -0.1415
  171MOL   H11520855   7.364   0.977   3.737 -1.3562  0.8226 -0.8631
  171MOL   C11620856   7.471   0.819   3.648 -0.3200  0.0060  0.0051
  171MOL   C11720857   7.508   0.897   3.523  0.5446  0.7845  0.2208
  171MOL  Cl11820858   7.685   0.863   3.484 -0.2324 -0.3119  0.1643
  171MOL   H11920859   7.445   0.714   3.629  0.9647 -0.4920  0.8981
  171MOL   H12020860   7.553   0.821   3.720  1.0723  1.1494 -1.5970
  171MOL   H12120861   7.449   0.863   3.439  1.0081  0.2589  0.1034
  171MOL   H12220862   7.501   1.005   3.537  0.4806  1.2944 -3.3462
  172MOL     C120863   6.699   2.668   1.286  0.4727 -0.1703 -0.2930
  172MOL     C220864   6.608   2.604   1.386  0.4100 -0.1729  0.1956
  172MOL    Cl320865   6.513   2.493   1.290 -0.1369 -0.0519 -0.4149
  172MOL     H420866   6.763   2.589   1.247  1.4788 -0.3678  1.6727
  172MOL     H520867   6.657   2.717   1.199 -1.1393 -0.1602  0.4652
  172MOL     H620868   6.670   2.552   1.459 -0.8355 -2.5488 -0.3920
  172MOL     H720869   6.767   2.743   1.326 -0.6531 -0.7515  2.8554
  172MOL     C820870   6.502   2.701   1.445  0.7012  0.4247  0.7603
  172MOL     C920871   6.563   2.794   1.556  0.3328  0.0127 -0.6692
  172MOL   Cl1020872   6.536   2.706   1.703  0.3632  0.0942 -0.0767
  172MOL    H1120873   6.427   2.636   1.490 -0.6852  1.1451 -0.4574
  172MOL    H1220874   6.466   2.759   1.360  1.5079 -0.4294 -0.1659
  172MOL    H1320875   6.671   2.802   1.548  0.3242  2.1160  1.0016
  172MOL    C1420876   6.502   2.931   1.586  0.4747 -0.1277 -0.2802
  172MOL    C1520877   6.517   3.024   1.463 -0.0100  1.1732 -0.3215
  172MOL   Cl1620878   6.684   3.022   1.405  0.4583 -0.6102  0.4764
  172MOL    H1720879   6.553   2.967   1.675  1.1780 -2.5781  0.3395
  172MOL    H1820880   6.394   2.924   1.604  0.2802 -0.3090 -1.4791
  172MOL    H1920881   6.451   2.986   1.385  1.2745 -2.0205  0.0565
  172MOL    C2020882   6.451   3.162   1.497  0.1407  0.2996  0.2747
  172MOL    C2120883   6.421   3.261   1.377 -0.0031 -0.4434  0.1621
  172MOL   Cl2220884   6.565   3.370   1.343  0.5560  0.1372  0.1718
  172MOL    H2320885   6.506   3.222   1.569 -0.2780  1.4673 -0.3676
  172MOL    H2420886   6.355   3.134   1.542  2.0246 -3.2593  2.3170
  172MOL    H2520887   6.403   3.206   1.285 -0.0877 -2.4406  1.3397
  172MOL    C2620888   6.292   3.348   1.400 -0.0916  0.0900  1.0202
  172MOL    C2720889   6.148   3.283   1.427 -0.1826 -0.0138  0.4336
  172MOL   Cl2820890   6.123   3.139   1.323 -0.1537  0.0718  0.1282
  172MOL    H2920891   6.284   3.421   1.319 -1.0375 -1.0295  0.0909
  172MOL    H3020892   6.321   3.408   1.487  1.1972  2.0764 -0.7224
  172MOL    H3120893   6.156   3.249   1.530  1.0815  1.4146  0.8318
  172MOL    C3220894   6.027   3.382   1.406  0.3470  0.2467  0.3796
  172MOL    C3320895   6.018   3.486   1.523  0.5735  0.3115  0.9032
  172MOL   Cl3420896   6.012   3.408   1.680  0.3668 -0.1530 -0.0068
  172MOL    H3520897   5.932   3.329   1.402  1.3376 -1.5428  0.2354
  172MOL    H3620898   6.018   3.427   1.307 -0.9751  1.9755  1.2575
  172MOL    H3720899   6.108   3.547   1.524  0.9786 -0.2647  0.0223
  172MOL    C3820900   5.884   3.573   1.517 -0.7010 -0.4082 -0.3135
  172MOL    C3920901   5.847   3.633   1.374 -0.5796 -0.2010 -0.7567
  172MOL   Cl4020902   5.978   3.726   1.312 -0.0406 -0.0337 -0.1917
  172MOL    H4120903   5.880   3.655   1.589  0.7608 -0.6838  0.0928
  172MOL    H4220904   5.807   3.499   1.534 -1.7876  0.6593 -0.4760
  172MOL    H4320905   5.846   3.546   1.308 -1.4009 -0.1425 -0.8258
  172MOL    C4420906   5.715   3.704   1.383  0.1849 -0.2586 -0.0865
  172MOL    C4520907   5.640   3.717   1.242 -0.1861  0.0679  0.2644
  172MOL   Cl4620908   5.594   3.552   1.185  0.0834  0.1179  0.1051
  172MOL    H4720909   5.715   3.796   1.441 -3.5822 -0.5328  0.5163
  172MOL    H4820910   5.654   3.643   1.450  1.3400 -1.1739  0.1528
  172MOL    H4920911   5.550   3.768   1.277 -0.1995  2.0870 -2.4961
  172MOL    C5020912   5.716   3.790   1.132 -0.5945  0.2451  0.0863
  172MOL    C5120913   5.638   3.801   0.997  0.3375  0.8895 -0.5582
  172MOL   Cl5220914   5.671   3.656   0.905  0.2121  0.4612  0.0037
  172MOL    H5320915   5.813   3.746   1.109 -0.3863  0.4160  0.6211
  172MOL    H5420916   5.738   3.887   1.176 -0.2298 -0.6323  1.8999
  172MOL    H5520917   5.529   3.800   1.005  0.2602  1.0578 -1.5066
  172MOL    C5620918   5.668   3.922   0.914 -0.0556  1.2331  0.9727
  172MOL    C5720919   5.558   3.982   0.811 -0.6572 -0.9479 -0.4584
  172MOL   Cl5820920   5.504   3.852   0.706  0.1061  0.4992  0.0788
  172MOL    H5920921   5.755   3.894   0.855 -0.0555  0.8396  1.1581
  172MOL    H6020922   5.689   4.005   0.981  2.4026 -0.2593  2.1321
  172MOL    H6120923   5.475   4.035   0.857 -0.1920  0.6901 -1.4670
  172MOL    C6220924   5.621   4.083   0.716 -0.0014 -0.4324 -0.6784
  172MOL    C6320925   5.700   4.201   0.777 -0.0876  0.2432 -0.0441
  172MOL   Cl6420926   5.596   4.287   0.891 -0.1637 -0.0312 -0.3982
  172MOL    H6520927   5.532   4.112   0.660 -1.0340 -2.2452 -0.0433
  172MOL    H6620928   5.684   4.025   0.648  2.3277  0.9934  0.2227
  172MOL    H6720929   5.782   4.161   0.837 -1.0539  1.0404  1.8343
  172MOL    C6820930   5.738   4.310   0.680  0.0577 -0.0352 -0.4204
  172MOL    C6920931   5.802   4.268   0.541 -0.2182 -0.5377 -0.0695
  172MOL   Cl7020932   5.936   4.159   0.572 -0.4824  0.0286 -0.2464
  172MOL    H7120933   5.810   4.371   0.734 -1.9415  1.1407  0.9731
  172MOL    H7220934   5.654   4.379   0.663  0.5491  0.6652 -0.0367
  172MOL    H7320935   5.730   4.210   0.484 -0.8356 -0.3148  0.4658
  172MOL    C7420936   5.862   4.387   0.457 -0.5961  1.0855 -0.5099
  172MOL    C7520937   5.760   4.500   0.442 -0.2042  0.6351 -0.0037
  172MOL   Cl7620938   5.621   4.456   0.328  0.0816 -0.1046 -0.1249
  172MOL    H7720939   5.898   4.358   0.358 -2.7203  0.3676 -1.0941
  172MOL    H7820940   5.940   4.435   0.515  0.5042 -1.5849  0.2833
  172MOL    H7920941   5.721   4.539   0.536  0.8779  1.5533  0.0802
  172MOL    C8020942   5.839   4.624   0.378  0.1944 -0.5472  0.4093
  172MOL    C8120943   5.754   4.750   0.367  0.2914 -0.5702  0.1772
  172MOL   Cl8220944   5.832   4.865   0.255 -0.3576  0.1998 -0.3624
  172MOL    H8320945   5.871   4.595   0.278 -0.7207 -1.1856  0.3005
  172MOL    H8420946   5.933   4.648   0.429 -0.4729  1.5605  0.6804
  172MOL    H8520947   5.657   4.726   0.324  1.6296 -0.1412 -3.2413
  172MOL    C8620948   5.743   4.817   0.507  0.1095  0.7178 -0.7487
  172MOL    C8720949   5.625   4.920   0.534 -0.1958  0.5532 -0.1832
  172MOL   Cl8820950   5.671   5.021   0.669 -0.3321 -0.2890 -0.1472
  172MOL    H8920951   5.843   4.853   0.529 -0.0177 -0.0393  1.1388
  172MOL    H9020952   5.737   4.741   0.584 -1.0026 -0.2781 -1.7861
  172MOL    H9120953   5.610   4.985   0.448 -0.4831  1.7557  0.7649
  172MOL    C9220954   5.504   4.848   0.581  0.2275  0.2832 -0.2252
  172MOL    C9320955   5.425   4.747   0.492  0.7489 -0.0763  0.8595
  172MOL   Cl9420956   5.381   4.829   0.338 -0.1588  0.4642 -0.2237
  172MOL    H9520957   5.434   4.929   0.603 -0.6492 -0.5001 -0.1433
  172MOL    H9620958   5.533   4.790   0.668  3.1409  0.7683 -0.7999
  172MOL    H9720959   5.487   4.662   0.464 -0.7794 -1.3372  1.2411
  172MOL    C9820960   5.295   4.707   0.555  0.2634  0.0788 -0.0872
  172MOL    C9920961   5.319   4.593   0.656 -0.5675 -0.0666 -0.4653
  172MOL  Cl10020962   5.382   4.448   0.575 -0.2030  0.2294  0.1369
  172MOL   H10120963   5.220   4.662   0.490 -1.1086 -1.8779  2.7387
  172MOL   H10220964   5.248   4.792   0.605 -2.5651 -1.4543 -0.0048
  172MOL   H10320965   5.403   4.614   0.722 -2.4845  1.3622  1.5951
  172MOL   C10420966   5.186   4.567   0.735 -0.2761 -0.1427  0.4021
  172MOL   C10520967   5.197   4.479   0.866 -0.2539 -0.1647  1.2396
  172MOL  Cl10620968   5.031   4.436   0.917 -0.3257 -0.2606 -0.1163
  172MOL   H10720969   5.114   4.519   0.669 -2.3196  2.6328  0.4955
  172MOL   H10820970   5.135   4.661   0.759 -1.1401 -0.2837 -0.8061
  172MOL   H10920971   5.235   4.386   0.824  1.5223 -0.1449  2.7855
  172MOL   C11020972   5.288   4.521   0.981 -0.6388 -0.2310  0.7501
  172MOL   C11120973   5.235   4.647   1.044 -0.5300 -0.3598 -0.0926
  172MOL  Cl11220974   5.277   4.786   0.941 -0.0473  0.2946  0.1549
  172MOL   H11320975   5.391   4.533   0.948 -0.6494 -0.8319  0.5140
  172MOL   H11420976   5.278   4.444   1.057 -1.1738  0.6546  1.6042
  172MOL   H11520977   5.127   4.634   1.052 -0.7072  0.9880 -0.1798
  172MOL   C11620978   5.281   4.674   1.183 -0.0264  0.3921  0.1027
  172MOL   C11720979   5.203   4.783   1.256  0.2862 -0.4454  0.3034
  172MOL  Cl11820980   5.268   4.801   1.423 -0.2093 -0.4127  0.2475
  172MOL   H11920981   5.386   4.703   1.180 -0.3040  1.4129  0.1922
  172MOL   H12020982   5.270   4.593   1.256 -2.8041 -0.3604 -1.0849
  172MOL   H12120983   5.201   4.880   1.206  4.6550  0.7689  2.3268
  172MOL   H12220984   5.097   4.754   1.257 -0.8161  3.3648  0.2319
  173MOL     C120985   0.427   8.131   5.040  0.5526 -0.1537  0.6406
  173MOL     C220986   0.470   8.003   5.110  0.1167  0.9737  0.4107
  173MOL    Cl320987   0.619   7.946   5.036 -0.2745 -0.1954 -0.1262
  173MOL     H420988   0.496   8.210   5.071  1.0744 -1.2230  2.2962
  173MOL     H520989   0.422   8.117   4.932 -0.7855 -2.7367  1.0118
  173MOL     H620990   0.492   8.017   5.216  0.3184  0.4888  0.4308
  173MOL     H720991   0.325   8.154   5.071  0.0379 -0.8892 -0.4939
  173MOL     C820992   0.362   7.891   5.103 -0.0138 -0.3575  0.5334
  173MOL     C920993   0.241   7.900   5.204  0.7607  0.0268 -0.7948
  173MOL   Cl1020994   0.315   7.903   5.364 -0.1568 -0.2975 -0.2808
  173MOL    H1120995   0.415   7.797   5.121  0.3687 -0.3094 -0.3215
  173MOL    H1220996   0.315   7.882   5.005 -0.3964 -2.0614  0.8537
  173MOL    H1320997   0.184   7.993   5.196  0.7324  0.2627  1.6254
  173MOL    C1420998   0.138   7.781   5.189 -0.7031 -0.2603 -0.0244
  173MOL    C1520999   0.019   7.808   5.100  0.2842 -0.3366  0.1156
  173MOL   Cl1621000   8.433   7.914   5.185  0.2841 -0.1449  0.2196
  173MOL    H1721001   0.094   7.767   5.287 -0.7514 -1.4944 -0.2179
  173MOL    H1821002   0.194   7.691   5.161 -3.2470 -2.1171  0.7363
  173MOL    H1921003   0.044   7.857   5.006  1.0057 -2.7035 -0.9537
  173MOL    C2021004   8.469   7.677   5.077 -0.1167 -0.7327  0.2023
  173MOL    C2121005   8.331   7.685   5.013 -0.4240  0.1186  0.4067
  173MOL   Cl2221006   8.235   7.568   5.102 -0.2544 -0.4592  0.1188
  173MOL    H2321007   8.455   7.626   5.173  0.3031 -1.0910  0.0775
  173MOL    H2421008   0.004   7.607   5.018  0.7362  0.5133 -0.4238
  173MOL    H2521009   8.293   7.787   5.024  0.0843  0.1860  1.5981
  173MOL    C2621010   8.325   7.647   4.862 -0.3729 -0.1497 -0.0588
  173MOL    C2721011   8.397   7.739   4.761  0.1232  0.0200  0.0330
  173MOL   Cl2821012   8.318   7.903   4.763  0.0938  0.1026  0.0372
  173MOL    H2921013   8.223   7.642   4.824 -0.2317 -0.6533 -0.3788
  173MOL    H3021014   8.360   7.543   4.858  1.0315  0.2449  1.4558
  173MOL    H3121015   8.496   7.758   4.805 -0.3725  0.8836  0.8057
  173MOL    C3221016   8.399   7.686   4.616  0.1021 -0.3788 -0.0982
  173MOL    C3321017   8.485   7.768   4.526 -0.3642 -0.2035  0.1103
  173MOL   Cl3421018   8.461   7.704   4.358  0.0941 -0.2066 -0.1950
  173MOL    H3521019   8.301   7.675   4.570  0.3285 -2.4019 -0.1335
  173MOL    H3621020   8.450   7.590   4.609  1.2954  0.2785 -0.6006
  173MOL    H3721021   8.440   7.868   4.528 -3.5594 -1.5767  2.5234
  173MOL    C3821022   0.104   7.778   4.563 -0.1985  0.1974  0.7062
  173MOL    C3921023   0.191   7.876   4.481 -0.0593 -0.8532 -0.0261
  173MOL   Cl4021024   0.348   7.887   4.567 -0.1249 -0.0816 -0.4670
  173MOL    H4121025   0.148   7.679   4.576 -1.3583 -0.1860  1.8552
  173MOL    H4221026   0.118   7.820   4.663 -1.8020 -3.8159  2.7550
  173MOL    H4321027   0.218   7.829   4.387 -0.6270 -3.6171  1.1079
  173MOL    C4421028   0.137   8.018   4.471  0.3390 -0.2820  0.0418
  173MOL    C4521029   0.046   8.048   4.352 -0.1739 -0.0768  0.4111
  173MOL   Cl4621030   0.097   7.981   4.194  0.0780  0.0201 -0.1547
  173MOL    H4721031   0.223   8.082   4.452  0.1197 -0.7179 -2.4838
  173MOL    H4821032   0.086   8.053   4.561 -0.7616  0.5396 -0.8823
  173MOL    H4921033   8.472   8.004   4.365 -0.2460 -0.3027 -0.7904
  173MOL    C5021034   0.027   8.199   4.323  0.3847  0.2531 -0.5089
  173MOL    C5121035   8.522   8.282   4.453  1.3856  0.3216 -0.6831
  173MOL   Cl5221036   8.387   8.225   4.555  0.1088  0.3517 -0.1095
  173MOL    H5321037   8.470   8.218   4.254 -0.8168 -0.2033  0.7617
  173MOL    H5421038   0.115   8.241   4.274  0.9995  1.0603  1.2120
  173MOL    H5521039   0.077   8.266   4.525  1.2598 -2.0438 -1.0262
  173MOL    C5621040   8.504   8.436   4.426 -0.4728  0.3075  0.5671
  173MOL    C5721041   0.075   8.492   4.320 -0.8243 -0.4892 -0.0912
  173MOL   Cl5821042   0.238   8.432   4.371 -0.2627  0.0904  0.0746
  173MOL    H5921043   8.518   8.489   4.520  2.2723  0.2735  0.2320
  173MOL    H6021044   8.402   8.449   4.390 -0.6993  0.4138  1.2312
  173MOL    H6121045   0.062   8.454   4.219  0.5555 -0.0981 -0.4176
  173MOL    C6221046   0.083   0.121   4.305  0.1834 -1.1607 -0.1810
  173MOL    C6321047   0.143   0.176   4.172 -0.9641  0.1614 -0.6396
  173MOL   Cl6421048   0.023   0.167   4.046  0.1678  0.0885  0.0215
  173MOL    H6521049   0.140   0.165   4.386  0.1857 -1.3150 -0.0991
  173MOL    H6621050   8.503   0.149   4.316  0.7601  0.4468  1.3846
  173MOL    H6721051   0.166   0.283   4.176  0.7348 -0.2067 -0.2753
  173MOL    C6821052   0.280   0.116   4.132 -0.6428  0.8865 -0.6810
  173MOL    C6921053   0.363   0.176   4.012 -0.4219 -0.3100  0.2302
  173MOL   Cl7021054   0.271   0.129   3.865  0.0665  0.0893 -0.4771
  173MOL    H7121055   0.254   0.015   4.101 -0.8157  1.0577 -1.0817
  173MOL    H7221056   0.339   0.112   4.224 -2.1560  0.9614  0.3028
  173MOL    H7321057   0.372   0.284   4.021  0.2111 -0.2382 -1.0633
  173MOL    C7421058   0.497   0.114   3.992 -0.3748 -0.0020  0.4328
  173MOL    C7521059   0.592   0.146   4.110  0.4910 -0.2310  0.5053
  173MOL   Cl7621060   0.668   0.298   4.067  0.1489 -0.2724  0.1858
  173MOL    H7721061   0.541   0.150   3.898  2.4897  0.5673  1.9200
  173MOL    H7821062   0.491   0.006   3.990  1.0410 -0.1112  1.0811
  173MOL    H7921063   0.539   0.164   4.204 -0.6049 -0.5187 -0.0454
  173MOL    C8021064   0.689   0.032   4.128 -0.1640 -0.5070 -0.4470
  173MOL    C8121065   0.657   8.422   4.189 -0.4599 -0.3110 -0.3314
  173MOL   Cl8221066   0.614   8.431   4.362 -0.0905  0.1917  0.5174
  173MOL    H8321067   0.767   0.063   4.197 -0.0468 -0.0879 -0.7682
  173MOL    H8421068   0.747   0.020   4.037  2.3145 -0.2316  1.0651
  173MOL    H8521069   0.570   8.386   4.132 -0.3548  0.5973 -1.0719
  173MOL    C8621070   0.770   8.318   4.164  0.0220 -0.2178  0.9181
  173MOL    C8721071   0.743   8.175   4.216 -0.0705 -0.0192 -0.7500
  173MOL   Cl8821072   0.886   8.078   4.170 -0.0543  0.1788  0.2513
  173MOL    H8921073   0.864   8.352   4.208 -0.4007 -0.9577  2.4279
  173MOL    H9021074   0.788   8.322   4.056 -0.7319 -0.0986  0.7948
  173MOL    H9121075   0.757   8.168   4.324  1.0922  1.0349 -0.8176
  173MOL    C9221076   0.614   8.112   4.160  0.0108 -0.0474 -0.3415
  173MOL    C9321077   0.588   7.957   4.155 -0.4046  0.5093 -0.2714
  173MOL   Cl9421078   0.427   7.930   4.089  0.2746  0.1108 -0.0094
  173MOL    H9521079   0.603   8.140   4.056  0.0424  1.2181 -0.0102
  173MOL    H9621080   0.527   8.151   4.212  0.3586  1.8836 -1.1684
  173MOL    H9721081   0.655   7.922   4.076  1.2625  0.7343  1.0098
  173MOL    C9821082   0.606   7.888   4.296 -0.1781 -0.0940  0.1035
  173MOL    C9921083   0.597   7.735   4.281  0.0577  0.2218  0.6233
  173MOL  Cl10021084   0.583   7.658   4.439 -0.1572 -0.2142  0.7321
  173MOL   H10121085   0.526   7.933   4.353 -0.3385 -0.7185  0.3714
  173MOL   H10221086   0.703   7.918   4.337  0.5957 -1.6596 -0.5102
  173MOL   H10321087   0.513   7.698   4.223  1.6084  0.1065 -1.5946
  173MOL   C10421088   0.713   7.665   4.206 -0.4056 -0.4699 -0.1544
  173MOL   C10521089   0.725   7.514   4.197 -0.5995  0.3650  0.1825
  173MOL  Cl10621090   0.881   7.479   4.128 -0.4256 -0.1387 -0.0115
  173MOL   H10721091   0.799   7.704   4.261  0.4448 -2.2824 -0.1604
  173MOL   H10821092   0.725   7.713   4.109  1.5113 -1.7633 -0.5683
  173MOL   H10921093   0.729   7.473   4.298 -0.8000 -0.4852 -0.1489
  173MOL   C11021094   0.611   7.432   4.130 -0.4018 -0.2966  0.5566
  173MOL   C11121095   0.616   7.277   4.150 -0.1254 -0.2639  0.0309
  173MOL  Cl11221096   0.761   7.197   4.080 -0.1793  0.7558  0.3645
  173MOL   H11321097   0.610   7.459   4.024  2.7152 -2.8068 -0.1967
  173MOL   H11421098   0.518   7.467   4.173 -1.8855 -1.2803 -1.7901
  173MOL   H11521099   0.637   7.253   4.254  0.5784  1.2367  0.2592
  173MOL   C11621100   0.495   7.211   4.084  0.2194 -0.0160  0.2345
  173MOL   C11721101   0.497   7.243   3.934  0.1883  0.6068  0.1101
  173MOL  Cl11821102   0.403   7.126   3.827 -0.2135  0.1838  0.1478
  173MOL   H11921103   0.408   7.252   4.134 -0.5615 -1.6238  0.2275
  173MOL   H12021104   0.487   7.103   4.095  1.7531 -0.3086 -1.2042
  173MOL   H12121105   0.460   7.346   3.924 -1.2720 -0.0566 -1.5234
  173MOL   H12221106   0.597   7.260   3.895  1.0980 -0.9718  1.6936
  174MOL     C121107   5.879   7.340   6.475  0.3032 -0.2801 -0.2381
  174MOL     C221108   5.965   7.234   6.406 -0.4169  0.0518 -0.5839
  174MOL    Cl321109   6.055   7.139   6.535 -0.0853  0.0993 -0.3289
  174MOL     H421110   5.923   7.439   6.484  0.5933 -0.2704 -1.6568
  174MOL     H521111   5.795   7.372   6.414  0.3940 -0.2550 -0.3516
  174MOL     H621112   5.908   7.154   6.358 -1.1986  0.8179 -0.9355
  174MOL     H721113   5.837   7.313   6.571  0.2955 -1.1288 -0.4682
  174MOL     C821114   6.059   7.293   6.304 -0.8066 -0.4380 -0.1708
  174MOL     C921115   6.137   7.187   6.227 -0.2224 -0.0552 -0.3017
  174MOL   Cl1021116   6.278   7.277   6.168 -0.2040 -0.5599 -0.2980
  174MOL    H1121117   6.126   7.362   6.357  0.0236  0.6910 -2.6113
  174MOL    H1221118   6.005   7.355   6.233  0.7451 -0.1831 -1.1615
  174MOL    H1321119   6.177   7.108   6.291  2.8368  2.8984  1.5921
  174MOL    C1421120   6.049   7.127   6.116 -1.0159 -0.3498  0.4252
  174MOL    C1521121   6.122   7.037   6.015  0.2209 -0.2567  0.5022
  174MOL   Cl1621122   6.014   7.006   5.879  0.1132 -0.0107 -0.0587
  174MOL    H1721123   6.008   7.212   6.063 -2.2144  0.4328  2.5349
  174MOL    H1821124   5.973   7.069   6.168 -2.4312  1.8161  0.8108
  174MOL    H1921125   6.206   7.093   5.973  0.7333  0.2251  2.1216
  174MOL    C2021126   6.166   6.907   6.072  0.0300  0.3614  0.1703
  174MOL    C2121127   6.273   6.827   5.987  0.2426 -0.3524  0.4551
  174MOL   Cl2221128   6.218   6.655   5.978 -0.1584 -0.3129  0.2304
  174MOL    H2321129   6.078   6.844   6.081  0.5453 -0.3041  0.6345
  174MOL    H2421130   6.207   6.919   6.173  0.3049  1.6136 -0.0803
  174MOL    H2521131   6.278   6.868   5.886  1.1893  1.8473  1.3724
  174MOL    C2621132   6.416   6.840   6.037  0.3925  0.2152 -0.5023
  174MOL    C2721133   6.480   6.984   6.014  0.0506  0.4378  0.3772
  174MOL   Cl2821134   6.463   7.036   5.847  0.4432  0.3540 -0.3659
  174MOL    H2921135   6.482   6.774   5.981  1.2827  0.5664  0.1228
  174MOL    H3021136   6.415   6.811   6.142 -0.0593 -0.4546 -0.6873
  174MOL    H3121137   6.422   7.047   6.081  2.6011  0.8549  2.2665
  174MOL    C3221138   6.633   6.993   6.051 -0.0033 -0.5228  0.3416
  174MOL    C3321139   6.670   7.050   6.190 -0.7324  0.3165 -0.3418
  174MOL   Cl3421140   6.843   7.051   6.198  0.2531  0.2191  0.0187
  174MOL    H3521141   6.678   7.056   5.975 -1.3544 -0.1935 -0.1952
  174MOL    H3621142   6.679   6.895   6.034 -1.5872 -1.1696 -0.2890
  174MOL    H3721143   6.636   7.154   6.194 -0.0154  0.5378  0.1584
  174MOL    C3821144   6.611   6.972   6.309 -0.3289  0.0412 -0.3837
  174MOL    C3921145   6.632   7.027   6.449 -0.3494  0.6013 -0.3193
  174MOL   Cl4021146   6.615   6.896   6.569 -0.2565  0.1344  0.3966
  174MOL    H4121147   6.640   6.868   6.294  1.6815  0.6900 -1.1345
  174MOL    H4221148   6.502   6.972   6.314 -0.3361 -2.4008  0.0987
  174MOL    H4321149   6.731   7.070   6.459 -0.2900  1.0203 -2.4594
  174MOL    C4421150   6.529   7.145   6.477 -0.2913  0.1619 -0.6608
  174MOL    C4521151   6.554   7.231   6.601  0.5719 -0.0205 -0.2199
  174MOL   Cl4621152   6.453   7.171   6.736  0.2811 -0.0220  0.1631
  174MOL    H4721153   6.430   7.100   6.472  0.3276 -1.5483  1.3507
  174MOL    H4821154   6.538   7.208   6.389 -0.6037  1.0866 -0.0351
  174MOL    H4921155   6.658   7.222   6.632  0.2974 -1.9702  0.1602
  174MOL    C5021156   6.512   7.381   6.593  0.0769 -0.6856 -0.3578
  174MOL    C5121157   6.618   7.473   6.526  1.0952 -1.1277 -0.2792
  174MOL   Cl5221158   6.756   7.478   6.627  0.8913  0.2977  0.1280
  174MOL    H5321159   6.491   7.419   6.693 -1.2563 -2.2716 -0.0221
  174MOL    H5421160   6.416   7.382   6.541 -1.6095 -1.2858  2.6069
  174MOL    H5521161   6.654   7.433   6.432  1.1711  0.4552 -0.9464
  174MOL    C5621162   6.572   7.614   6.499  0.0818 -0.5341 -0.7264
  174MOL    C5721163   6.447   7.634   6.414  0.0423 -0.7033 -0.1997
  174MOL   Cl5821164   6.478   7.558   6.259 -0.2392  0.0312 -0.0643
  174MOL    H5921165   6.657   7.657   6.446 -0.0132  0.3024 -0.2205
  174MOL    H6021166   6.559   7.663   6.596  0.5927 -0.4195 -0.7130
  174MOL    H6121167   6.366   7.589   6.471  0.6424 -2.5959 -0.8087
  174MOL    C6221168   6.412   7.781   6.393 -0.0396  1.1218 -0.1882
  174MOL    C6321169   6.288   7.818   6.313  0.4253  0.7867 -0.2446
  174MOL   Cl6421170   6.292   7.996   6.308 -0.1928 -0.5508  0.5458
  174MOL    H6521171   6.489   7.841   6.346  1.8262 -1.3179 -0.3207
  174MOL    H6621172   6.402   7.824   6.493 -1.9906 -1.8163  0.9413
  174MOL    H6721173   6.304   7.772   6.215 -1.2363  0.9391 -0.6034
  174MOL    C6821174   6.160   7.767   6.371  0.0848 -0.9474  0.4792
  174MOL    C6921175   6.023   7.788   6.301  0.0004 -0.5856 -0.2982
  174MOL   Cl7021176   5.894   7.718   6.404  0.2072 -0.0017  0.1026
  174MOL    H7121177   6.143   7.817   6.466  2.4574  3.0142 -1.0697
  174MOL    H7221178   6.166   7.659   6.382 -1.4048 -1.2523 -1.4493
  174MOL    H7321179   6.009   7.894   6.283  0.5768 -0.4897 -0.1979
  174MOL    C7421180   6.021   7.718   6.165  0.2951  0.0758 -0.1757
  174MOL    C7521181   5.891   7.741   6.084 -0.4073 -0.6197  0.0735
  174MOL   Cl7621182   5.872   7.623   5.947  0.0976 -0.0524  0.0477
  174MOL    H7721183   6.024   7.610   6.184  0.5381 -0.0342 -0.8277
  174MOL    H7821184   6.112   7.732   6.106 -0.7291  0.7841 -1.5989
  174MOL    H7921185   5.807   7.704   6.143 -1.1490  0.4757 -0.2834
  174MOL    C8021186   5.860   7.885   6.034  0.1590  0.4296  0.0370
  174MOL    C8121187   5.967   7.937   5.938 -0.2271  1.0923  0.2595
  174MOL   Cl8221188   6.083   8.044   6.038  0.0708 -0.1243 -0.2800
  174MOL    H8321189   5.853   7.949   6.121  0.0185  0.3035  0.1187
  174MOL    H8421190   5.763   7.879   5.984  0.0365 -1.9720  0.4662
  174MOL    H8521191   6.015   7.843   5.909 -0.2078  0.9743  0.6685
  174MOL    C8621192   5.926   8.024   5.820  1.2330 -0.0636 -0.4244
  174MOL    C8721193   5.884   7.951   5.691 -1.1539 -0.8443  0.0007
  174MOL   Cl8821194   5.989   7.816   5.633  0.1698 -0.1660 -0.0196
  174MOL    H8921195   6.011   8.087   5.792  0.3901 -0.0137 -3.0612
  174MOL    H9021196   5.846   8.089   5.854  0.5501 -0.3486 -1.4656
  174MOL    H9121197   5.791   7.907   5.726 -1.2302 -1.5530 -1.0756
  174MOL    C9221198   5.869   8.066   5.584 -0.2249 -0.3341  0.1123
  174MOL    C9321199   5.829   8.021   5.440 -0.4070  0.0939  0.0023
  174MOL   Cl9421200   5.850   8.149   5.326 -0.0465 -0.1002 -0.0014
  174MOL    H9521201   5.973   8.099   5.586 -0.1135 -0.6937  0.5361
  174MOL    H9621202   5.797   8.143   5.609 -1.4348 -0.3849 -3.0765
  174MOL    H9721203   5.890   7.938   5.405  1.2194  1.5153 -0.5801
  174MOL    C9821204   5.680   7.970   5.425  1.1311  0.0007  0.3452
  174MOL    C9921205   5.647   7.829   5.476  0.1118 -0.1530 -0.5749
  174MOL  Cl10021206   5.738   7.700   5.388  0.2109 -0.0476  0.0424
  174MOL   H10121207   5.657   7.982   5.319  3.0692  1.5175  0.0678
  174MOL   H10221208   5.618   8.037   5.484  0.9390  0.8318 -0.7798
  174MOL   H10321209   5.676   7.815   5.580  0.2084  0.8099 -0.4668
  174MOL   C10421210   5.497   7.806   5.471  0.1438  0.1070  0.0363
  174MOL   C10521211   5.443   7.680   5.546 -0.6388 -0.5690  0.2936
  174MOL  Cl10621212   5.273   7.672   5.490  0.5615  0.3810 -0.3866
  174MOL   H10721213   5.470   7.796   5.366  2.2617  1.1273 -0.6258
  174MOL   H10821214   5.452   7.898   5.509  0.8470  1.1994 -1.7336
  174MOL   H10921215   5.490   7.589   5.509 -2.1065 -1.1888 -0.0786
  174MOL   C11021216   5.451   7.682   5.700 -0.2679  0.1611 -0.0165
  174MOL   C11121217   5.386   7.795   5.778  0.7196  0.3665  0.3858
  174MOL  Cl11221218   5.505   7.932   5.787  0.4181 -0.4906 -0.2758
  174MOL   H11321219   5.554   7.677   5.733 -0.5272  0.6956  0.9089
  174MOL   H11421220   5.395   7.591   5.721 -0.0360  0.0980  0.3248
  174MOL   H11521221   5.293   7.818   5.727  1.6081 -1.3553 -2.1172
  174MOL   C11621222   5.337   7.761   5.918 -0.2922 -0.5795 -0.2351
  174MOL   C11721223   5.450   7.721   6.012 -0.3649 -0.2719  0.1863
  174MOL  Cl11821224   5.390   7.625   6.149  0.0635 -0.1831 -0.3036
  174MOL   H11921225   5.259   7.685   5.909  0.9545 -1.9278  0.1479
  174MOL   H12021226   5.283   7.845   5.963 -0.3579 -0.4362 -0.5831
  174MOL   H12121227   5.522   7.653   5.966  0.8913  0.8862  0.3961
  174MOL   H12221228   5.506   7.804   6.054  0.2258 -1.1543  1.1565
  175MOL     C121229   4.654   6.701   1.269 -0.1049  0.5138 -0.3234
  175MOL     C221230   4.624   6.592   1.371 -0.5940 -0.4391 -0.4979
  175MOL    Cl321231   4.630   6.651   1.536  0.0891 -0.1561 -0.2227
  175MOL     H421232   4.574   6.775   1.274 -0.3948  0.2035 -0.3859
  175MOL     H521233   4.746   6.757   1.286 -0.1362  0.3636  0.3351
  175MOL     H621234   4.524   6.553   1.355 -0.2371 -2.1271  1.2013
  175MOL     H721235   4.644   6.660   1.168  1.1387 -1.2327  0.2271
  175MOL     C821236   4.725   6.476   1.359  0.1805  0.0605 -0.2391
  175MOL     C921237   4.747   6.380   1.481 -0.6768  0.3538  0.3904
  175MOL   Cl1021238   4.876   6.255   1.439 -0.2914 -0.1975 -0.1306
  175MOL    H1121239   4.824   6.512   1.330 -1.2429  2.1401 -2.6421
  175MOL    H1221240   4.704   6.425   1.265  2.4011 -0.1839 -0.6373
  175MOL    H1321241   4.796   6.438   1.559  0.5397  0.9272 -0.7765
  175MOL    C1421242   4.620   6.314   1.532  0.1932 -0.5411 -0.2728
  175MOL    C1521243   4.620   6.281   1.680 -0.2590 -0.3201 -0.0835
  175MOL   Cl1621244   4.665   6.111   1.700 -0.0864  0.2572  0.1868
  175MOL    H1721245   4.586   6.230   1.471 -0.0708 -1.4640  1.1444
  175MOL    H1821246   4.544   6.392   1.527  0.3447 -0.4042 -0.5159
  175MOL    H1921247   4.700   6.336   1.729  0.1177 -1.0838  0.1744
  175MOL    C2021248   4.489   6.292   1.759  0.3470 -0.2165  0.7677
  175MOL    C2121249   4.425   6.435   1.778  0.4238 -0.8178 -0.0018
  175MOL   Cl2221250   4.531   6.532   1.882  0.1698  0.0461 -0.2292
  175MOL    H2321251   4.500   6.251   1.859  0.5881 -1.8215  0.1110
  175MOL    H2421252   4.418   6.224   1.710  0.0331 -1.2315  2.5867
  175MOL    H2521253   4.425   6.479   1.678 -0.7084 -0.6923  0.0451
  175MOL    C2621254   4.280   6.418   1.829 -0.3570 -0.0174  0.2598
  175MOL    C2721255   4.188   6.540   1.836 -0.4598 -0.0290  0.8030
  175MOL   Cl2821256   4.200   6.623   1.674  0.0260  0.4825 -0.1044
  175MOL    H2921257   4.274   6.364   1.923 -1.2653  1.6047  1.1648
  175MOL    H3021258   4.231   6.346   1.762  2.0266 -0.9252 -0.5390
  175MOL    H3121259   4.087   6.500   1.851  0.2696 -2.1525  0.1801
  175MOL    C3221260   4.220   6.648   1.940 -0.6273 -0.3605 -0.3024
  175MOL    C3321261   4.230   6.611   2.085 -0.4347  0.6772 -0.4910
  175MOL   Cl3421262   4.075   6.551   2.145 -0.0749 -0.0862  0.3712
  175MOL    H3521263   4.141   6.724   1.935 -0.6449 -0.2778  1.0367
  175MOL    H3621264   4.304   6.710   1.908 -0.5688 -0.5696 -0.5587
  175MOL    H3721265   4.302   6.530   2.099 -0.9970  0.5199  1.7356
  175MOL    C3821266   4.277   6.728   2.162 -0.3328 -0.6505  0.4388
  175MOL    C3921267   4.426   6.758   2.166 -0.2338  0.0427  0.2748
  175MOL   Cl4021268   4.525   6.627   2.236  0.0504  0.5974 -0.2901
  175MOL    H4121269   4.245   6.719   2.266 -0.4283 -0.0080  0.4667
  175MOL    H4221270   4.229   6.816   2.119  0.2819 -0.7514 -0.4709
  175MOL    H4321271   4.461   6.786   2.066  1.3167 -1.0311  0.4966
  175MOL    C4421272   4.449   6.892   2.245 -0.1509  1.1050 -0.2477
  175MOL    C4521273   4.592   6.929   2.287  0.0923 -0.0442 -0.1672
  175MOL   Cl4621274   4.588   7.067   2.397 -0.0764  0.2053 -0.0848
  175MOL    H4721275   4.393   6.892   2.338  2.9792 -0.1257  1.7338
  175MOL    H4821276   4.411   6.971   2.181 -0.8538  0.0620 -1.1304
  175MOL    H4921277   4.621   6.844   2.348 -0.9608  2.6857  4.3524
  175MOL    C5021278   4.683   6.968   2.161 -0.0804  0.1071 -0.2790
  175MOL    C5121279   4.827   6.936   2.204  0.2075 -0.9475  0.1157
  175MOL   Cl5221280   4.947   7.016   2.096  0.0549  0.0712  0.1770
  175MOL    H5321281   4.676   7.076   2.148 -0.5458 -0.2412 -3.2580
  175MOL    H5421282   4.660   6.919   2.066  0.7154 -3.0663  1.0898
  175MOL    H5521283   4.842   6.985   2.300 -0.4652  1.9743 -1.2407
  175MOL    C5621284   4.864   6.790   2.213  0.5428  0.1775 -0.3140
  175MOL    C5721285   5.000   6.753   2.269 -0.1238  0.0886  0.6156
  175MOL   Cl5821286   5.040   6.587   2.232  0.1810  0.4131 -0.1048
  175MOL    H5921287   4.854   6.743   2.116  0.2494 -0.8733  0.2147
  175MOL    H6021288   4.781   6.736   2.261  0.9426 -3.0000 -3.0350
  175MOL    H6121289   5.078   6.807   2.214  1.2231 -1.5526  0.8621
  175MOL    C6221290   5.029   6.783   2.418 -0.5200 -0.1643 -0.2686
  175MOL    C6321291   4.956   6.698   2.521 -0.8348  0.5124  0.6267
  175MOL   Cl6421292   4.795   6.758   2.528 -0.3685  0.2195 -0.2029
  175MOL    H6521293   5.008   6.888   2.441  0.1750 -0.4523  1.7474
  175MOL    H6621294   5.134   6.767   2.443 -0.4225  0.3254 -0.3448
  175MOL    H6721295   4.946   6.593   2.494 -1.8403  1.1861 -1.7397
  175MOL    C6821296   5.025   6.704   2.661 -0.6983  0.0676 -0.1853
  175MOL    C6921297   4.948   6.636   2.781  0.4024  0.3206  0.2889
  175MOL   Cl7021298   5.026   6.666   2.940  0.2964  0.1912  0.4028
  175MOL    H7121299   5.032   6.810   2.686 -0.1180  0.2524 -1.0919
  175MOL    H7221300   5.125   6.663   2.652 -0.2407  1.1198  0.0069
  175MOL    H7321301   4.854   6.690   2.791  0.3508 -0.0568  2.1926
  175MOL    C7421302   4.922   6.483   2.764  0.0693  0.3006 -0.2560
  175MOL    C7521303   4.796   6.424   2.826 -0.1220  0.4404  0.3177
  175MOL   Cl7621304   4.645   6.514   2.779 -0.1290  0.0465  0.1202
  175MOL    H7721305   5.014   6.425   2.773  0.0508  0.1975 -0.6855
  175MOL    H7821306   4.890   6.453   2.664  0.8372 -3.8147  0.6535
  175MOL    H7921307   4.780   6.326   2.780  0.0903  0.0643  1.0353
  175MOL    C8021308   4.808   6.414   2.979  0.0716  0.1476  0.1829
  175MOL    C8121309   4.728   6.309   3.056 -0.0372 -0.5308 -0.4095
  175MOL   Cl8221310   4.552   6.323   3.024 -0.5558 -0.1962  0.3148
  175MOL    H8321311   4.790   6.514   3.019 -1.0990  1.0138 -2.4311
  175MOL    H8421312   4.910   6.389   3.011 -0.2633 -3.7860 -1.4656
  175MOL    H8521313   4.754   6.212   3.013  2.4598 -0.0346 -0.0538
  175MOL    C8621314   4.746   6.319   3.207 -0.1380  0.2105  0.7007
  175MOL    C8721315   4.685   6.197   3.275  0.0732 -0.8846  0.0138
  175MOL   Cl8821316   4.652   6.241   3.450 -0.4062  0.0779 -0.1185
  175MOL    H8921317   4.707   6.418   3.230  1.7827  1.2056 -0.2077
  175MOL    H9021318   4.853   6.327   3.229  0.2188  0.6095 -1.0504
  175MOL    H9121319   4.590   6.171   3.229 -0.2047  0.1574 -0.0158
  175MOL    C9221320   4.777   6.078   3.283 -0.3694  0.5329  0.2199
  175MOL    C9321321   4.705   5.951   3.241  0.2621 -0.4964  0.2759
  175MOL   Cl9421322   4.601   5.905   3.385 -0.3128  0.1280 -0.3664
  175MOL    H9521323   4.832   6.059   3.375  1.0402 -3.4164 -1.3458
  175MOL    H9621324   4.857   6.106   3.214 -0.2232 -0.1457  0.1188
  175MOL    H9721325   4.645   5.972   3.153  2.6687  1.7763 -0.8851
  175MOL    C9821326   4.801   5.838   3.208  0.1100 -0.3961  0.2185
  175MOL    C9921327   4.890   5.857   3.082  0.4863 -0.0635 -0.4849
  175MOL  Cl10021328   4.790   5.908   2.939  0.2527 -0.0361  0.0253
  175MOL   H10121329   4.739   5.748   3.205  0.1985 -0.4200 -1.4439
  175MOL   H10221330   4.866   5.815   3.292 -2.2135  0.6010  2.3502
  175MOL   H10321331   4.965   5.936   3.088  0.1056  0.1769  1.4844
  175MOL   C10421332   4.953   5.725   3.046  0.5429 -0.4149 -0.3128
  175MOL   C10521333   5.059   5.742   2.936 -0.2858 -1.0521  0.4808
  175MOL  Cl10621334   5.128   5.579   2.923 -0.0368  0.0115  0.0081
  175MOL   H10721335   4.877   5.657   3.008 -0.9727  1.2608 -0.3599
  175MOL   H10821336   4.987   5.676   3.138 -0.3081  0.5339  0.5151
  175MOL   H10921337   5.013   5.775   2.843  5.0327  1.0134 -1.6174
  175MOL   C11021338   5.181   5.830   2.966 -0.1268 -0.1086  0.2005
  175MOL   C11121339   5.286   5.841   2.854 -0.6144  0.0160  0.3911
  175MOL  Cl11221340   5.431   5.930   2.922 -0.4518  0.0182  0.2285
  175MOL   H11321341   5.229   5.783   3.052  1.2826 -0.2990 -0.6726
  175MOL   H11421342   5.160   5.935   2.987  1.7697  0.5348 -1.0258
  175MOL   H11521343   5.323   5.743   2.821  0.6677  0.8994 -0.8905
  175MOL   C11621344   5.235   5.917   2.728  0.2451  0.0592 -0.0608
  175MOL   C11721345   5.351   5.935   2.625 -0.1189 -0.0785  0.5637
  175MOL  Cl11821346   5.288   5.988   2.467  0.3407  0.4312  0.3689
  175MOL   H11921347   5.189   6.010   2.761  0.8270  0.1662  0.4513
  175MOL   H12021348   5.146   5.879   2.678 -0.3423 -1.9696  2.4037
  175MOL   H12121349   5.436   5.999   2.647 -0.2318 -0.6206  2.6680
  175MOL   H12221350   5.391   5.838   2.594  4.2725  2.0123 -0.8221
  176MOL     C121351   8.260   1.570   3.624  0.2041  0.1679  0.7870
  176MOL     C221352   8.258   1.552   3.769  0.3667 -0.3993 -0.3730
  176MOL    Cl321353   8.083   1.538   3.794 -0.0968 -0.0537  0.0458
  176MOL     H421354   8.187   1.500   3.583  1.2619 -1.0346  0.9238
  176MOL     H521355   8.223   1.669   3.597  0.9912  1.3499  3.8924
  176MOL     H621356   8.303   1.456   3.796  1.9153  0.3779 -0.1783
  176MOL     H721357   8.357   1.541   3.583  0.4449 -0.2169  1.6204
  176MOL     C821358   8.303   1.675   3.850  0.0539 -0.1293  0.5751
  176MOL     C921359   8.454   1.707   3.848 -0.4539  0.2123 -0.0038
  176MOL   Cl1021360   0.024   1.557   3.862  0.1714 -0.2641 -0.0784
  176MOL    H1121361   8.271   1.656   3.953  0.2214 -2.6503  0.2004
  176MOL    H1221362   8.241   1.758   3.816  0.5291  0.3374  0.8479
  176MOL    H1321363   8.496   1.748   3.756 -0.5374  2.5929  0.9605
  176MOL    C1421364   8.492   1.826   3.956  0.3151  0.5895  0.1845
  176MOL    C1521365   8.453   1.977   3.922  0.4961  0.9837  0.1368
  176MOL   Cl1621366   0.008   2.027   3.763  0.3567  0.0282 -0.3019
  176MOL    H1721367   0.072   1.819   3.982 -0.0085  0.9299  1.5845
  176MOL    H1821368   8.452   1.798   4.053  1.4128 -1.0046  0.1905
  176MOL    H1921369   8.347   1.985   3.896  0.1505 -3.4189 -0.1042
  176MOL    C2021370   8.497   2.079   4.030  0.9202  0.2444 -0.3436
  176MOL    C2121371   8.428   2.064   4.163  0.3286 -0.0890 -0.0032
  176MOL   Cl2221372   8.280   2.157   4.147 -0.2800 -0.2031  0.1180
  176MOL    H2321373   8.497   2.181   3.991 -0.4468  1.1278  1.9195
  176MOL    H2421374   0.078   2.054   4.039  0.9371  0.2497 -0.5294
  176MOL    H2521375   8.397   1.960   4.169  0.4316 -0.1040  0.2498
  176MOL    C2621376   8.515   2.120   4.280  0.3211  0.0613 -0.6199
  176MOL    C2721377   0.122   2.052   4.316 -0.4687 -0.0518 -0.2044
  176MOL   Cl2821378   0.109   1.873   4.308  0.4688 -0.2023  0.2181
  176MOL    H2921379   8.446   2.122   4.364 -1.8745  1.0239 -2.3524
  176MOL    H3021380   0.003   2.224   4.250  0.8929 -0.0963 -0.9234
  176MOL    H3121381   0.195   2.076   4.239  0.0513  1.2239  0.6753
  176MOL    C3221382   0.182   2.093   4.460  0.9311 -0.1257  0.7440
  176MOL    C3321383   0.218   2.241   4.469  0.0102  0.9087  0.0401
  176MOL   Cl3421384   0.344   2.266   4.343 -0.2433 -0.2426 -0.1027
  176MOL    H3521385   0.273   2.038   4.484  1.0913 -0.5602 -0.8076
  176MOL    H3621386   0.102   2.067   4.530  1.4919 -0.0786  1.4103
  176MOL    H3721387   0.142   2.316   4.450 -0.7472 -0.0694 -0.8422
  176MOL    C3821388   0.274   2.270   4.611  0.1268 -0.5058  0.2299
  176MOL    C3921389   0.281   2.418   4.657 -0.0725 -1.0676 -0.2248
  176MOL   Cl4021390   0.118   2.486   4.679  0.1277  0.1306 -0.0831
  176MOL    H4121391   0.371   2.221   4.614 -0.0606 -0.9117 -0.0912
  176MOL    H4221392   0.208   2.215   4.678  1.8216  1.0406  3.2730
  176MOL    H4321393   0.320   2.411   4.758 -1.7618 -3.1419  0.3209
  176MOL    C4421394   0.370   2.519   4.583 -0.2237 -0.2118 -0.6712
  176MOL    C4521395   0.526   2.483   4.561  0.3050 -0.3302  0.2608
  176MOL   Cl4621396   0.600   2.496   4.722  0.2509 -0.3161  0.2476
  176MOL    H4721397   0.369   2.611   4.642  0.5912 -1.7232  1.7709
  176MOL    H4821398   0.333   2.553   4.487 -0.8556 -0.3965 -0.4964
  176MOL    H4921399   0.542   2.378   4.535  1.6543 -0.2559  0.7575
  176MOL    C5021400   0.591   2.573   4.457 -0.1007 -1.3530 -0.0904
  176MOL    C5121401   0.736   2.534   4.417 -0.2856 -0.0167 -0.4455
  176MOL   Cl5221402   0.788   2.651   4.294  0.0054 -0.4262  0.4541
  176MOL    H5321403   0.589   2.675   4.494  1.6901 -1.3825  0.1363
  176MOL    H5421404   0.524   2.579   4.371 -1.5547  3.2963  1.2410
  176MOL    H5521405   0.808   2.549   4.497  0.9952 -0.9237 -1.4188
  176MOL    C5621406   0.750   2.393   4.363  0.4415  0.3255 -0.1017
  176MOL    C5721407   0.782   2.273   4.454 -0.2638 -0.6187  0.4124
  176MOL   Cl5821408   0.939   2.313   4.533  0.1144  0.3865 -0.0297
  176MOL    H5921409   0.827   2.399   4.286  1.0618 -2.8812  0.1784
  176MOL    H6021410   0.660   2.378   4.303  1.1526 -1.2442 -0.8152
  176MOL    H6121411   0.705   2.258   4.530  0.3747  0.2805  1.2524
  176MOL    C6221412   0.786   2.153   4.357  0.2590  0.0391 -0.2384
  176MOL    C6321413   0.802   2.007   4.418  0.4636 -0.4350 -0.8197
  176MOL   Cl6421414   0.958   1.990   4.501 -0.1081  0.0596 -0.3329
  176MOL    H6521415   0.875   2.173   4.298  0.2146  2.8498  0.5791
  176MOL    H6621416   0.698   2.160   4.292  0.1287 -0.5713 -0.1262
  176MOL    H6721417   0.721   1.990   4.489 -1.4067 -1.0627 -3.0225
  176MOL    C6821418   0.788   1.883   4.323  0.0445  0.5206  0.1752
  176MOL    C6921419   0.666   1.888   4.227  0.6455  0.2770 -0.1821
  176MOL   Cl7021420   0.523   1.876   4.325  0.4902 -0.1336 -0.0132
  176MOL    H7121421   0.794   1.797   4.391 -0.7245  0.8068  0.6147
  176MOL    H7221422   0.875   1.878   4.257 -0.9821 -0.6820 -1.1161
  176MOL    H7321423   0.662   1.980   4.167 -1.5894 -0.3326 -0.9897
  176MOL    C7421424   0.659   1.784   4.121  0.0905  1.0665  0.7008
  176MOL    C7521425   0.766   1.791   4.007 -1.0868  0.6663  0.6586
  176MOL   Cl7621426   0.705   1.914   3.898  0.1330 -0.0518  0.4152
  176MOL    H7721427   0.568   1.784   4.061  2.3877  2.7969 -2.9917
  176MOL    H7821428   0.649   1.693   4.181  2.0673  0.6294  0.3914
  176MOL    H7921429   0.863   1.824   4.043 -1.7925  2.6865  0.8112
  176MOL    C8021430   0.794   1.657   3.930 -0.4797 -0.4290  0.7752
  176MOL    C8121431   0.856   1.542   4.019 -0.5924  0.2565 -0.1722
  176MOL   Cl8221432   0.994   1.597   4.110  0.2944  0.3979  0.0028
  176MOL    H8321433   0.854   1.684   3.843 -0.0066  0.6924  1.4338
  176MOL    H8421434   0.700   1.618   3.891 -0.2360 -0.5322  0.2810
  176MOL    H8521435   0.794   1.521   4.106 -0.3209  0.4909  0.0825
  176MOL    C8621436   0.892   1.410   3.946  0.3196 -0.2242  0.1946
  176MOL    C8721437   0.772   1.321   3.901 -0.6086  0.1690 -0.2710
  176MOL   Cl8821438   0.688   1.259   4.045  0.0567 -0.2091  0.0191
  176MOL    H8921439   0.957   1.363   4.019  1.8036 -0.6484 -1.3639
  176MOL    H9021440   0.955   1.425   3.858  3.5636 -1.5149  2.2412
  176MOL    H9121441   0.698   1.388   3.859 -0.3511  0.9702  0.5239
  176MOL    C9221442   0.814   1.210   3.801 -0.6314  0.5033  0.3961
  176MOL    C9321443   0.943   1.134   3.837 -0.2151 -0.4269 -0.1443
  176MOL   Cl9421444   0.992   1.043   3.694  0.0927  0.0308 -0.4159
  176MOL    H9521445   0.847   1.248   3.705  1.1590 -1.4060  0.2110
  176MOL    H9621446   0.731   1.141   3.788 -1.3037  1.6091 -1.3628
  176MOL    H9721447   1.017   1.210   3.865 -0.0582 -1.2037  1.5751
  176MOL    C9821448   0.922   1.037   3.957  0.8333 -0.0478 -0.3777
  176MOL    C9921449   1.052   0.962   3.996 -1.0737  0.3431 -0.2675
  176MOL  Cl10021450   1.011   0.857   4.131  0.0495 -0.0140 -0.2394
  176MOL   H10121451   0.844   0.965   3.933  0.0596  0.7378 -0.2712
  176MOL   H10221452   0.899   1.079   4.055  2.3204  0.6780 -0.3214
  176MOL   H10321453   1.078   0.894   3.915 -0.3043  1.4005 -0.9172
  176MOL   C10421454   1.169   1.052   4.034 -0.3988  0.4771  0.2329
  176MOL   C10521455   1.279   1.072   3.933  0.1528  0.0577  0.2563
  176MOL  Cl10621456   1.323   0.918   3.859 -0.3263  0.4556 -0.0797
  176MOL   H10721457   1.214   0.997   4.117 -0.5919 -1.4878 -0.9295
  176MOL   H10821458   1.133   1.145   4.078  0.9311  0.6154  1.0477
  176MOL   H10921459   1.252   1.143   3.855 -2.0016  0.0204  0.9450
  176MOL   C11021460   1.405   1.137   3.996 -0.2188 -0.4561 -0.1737
  176MOL   C11121461   1.385   1.282   4.060 -0.4502 -0.1628  0.3297
  176MOL  Cl11221462   1.289   1.381   3.951 -0.0995 -0.4862 -0.0294
  176MOL   H11321463   1.485   1.162   3.926  0.5125 -1.2861  0.3468
  176MOL   H11421464   1.449   1.064   4.065  1.4345 -0.5141 -1.2639
  176MOL   H11521465   1.338   1.271   4.158 -0.7896 -2.0279 -0.0108
  176MOL   C11621466   1.531   1.345   4.081  0.7588  0.6130  0.6676
  176MOL   C11721467   1.540   1.480   4.150  0.4487 -0.0690 -0.3891
  176MOL  Cl11821468   1.572   1.458   4.322 -0.3884 -0.1132 -0.2833
  176MOL   H11921469   1.588   1.361   3.990  0.7507  2.5944  0.9739
  176MOL   H12021470   1.580   1.270   4.143  1.8926  2.4509  2.0480
  176MOL   H12121471   1.618   1.542   4.107  0.0204  1.2839  0.7493
  176MOL   H12221472   1.445   1.533   4.148  0.3612 -0.2656 -1.4772
  177MOL     C121473   8.383   6.112   2.008 -0.3618 -0.1036 -0.1662
  177MOL     C221474   8.426   5.975   1.953  0.0790 -0.8190 -0.3302
  177MOL    Cl321475   8.501   6.010   1.792  0.4732  0.0158 -0.3157
  177MOL     H421476   8.331   6.103   2.104 -1.3295 -0.4849 -0.7194
  177MOL     H521477   8.471   6.176   2.007  1.5248 -2.6537 -2.1112
  177MOL     H621478   8.505   5.931   2.014 -1.9311 -0.9396  2.2547
  177MOL     H721479   8.307   6.153   1.942 -0.7271  0.1031  0.3718
  177MOL     C821480   8.314   5.883   1.919 -0.1932  0.3005  0.1191
  177MOL     C921481   8.365   5.745   1.874 -0.8729 -0.7693 -0.3557
  177MOL   Cl1021482   8.284   5.709   1.714  0.0565 -0.0911 -0.2706
  177MOL    H1121483   8.254   5.938   1.847 -1.6811  1.0547  1.9024
  177MOL    H1221484   8.262   5.875   2.014  2.0626  1.6738  1.5046
  177MOL    H1321485   8.474   5.742   1.863 -0.7464  0.4121  0.4755
  177MOL    C1421486   8.327   5.621   1.963  0.4143 -0.0532  0.4606
  177MOL    C1521487   8.367   5.616   2.107 -0.0217 -0.2479 -0.1073
  177MOL   Cl1621488   0.016   5.643   2.129 -0.5250  0.0286 -0.2432
  177MOL    H1721489   8.344   5.526   1.914  1.7840  0.1114  0.5940
  177MOL    H1821490   8.218   5.624   1.969  0.4275  0.0467  0.6728
  177MOL    H1921491   8.318   5.696   2.162 -0.1550  0.7552 -1.6516
  177MOL    C2021492   8.319   5.487   2.176 -1.3094  0.3798 -0.3964
  177MOL    C2121493   8.362   5.471   2.324  0.6409  0.7348 -0.5353
  177MOL   Cl2221494   8.303   5.315   2.372 -0.0280 -0.0038  0.1329
  177MOL    H2321495   8.364   5.405   2.121 -1.6540  0.5207 -0.8889
  177MOL    H2421496   8.211   5.479   2.164 -1.2274 -0.7234 -0.4152
  177MOL    H2521497   8.471   5.472   2.319  0.6880  3.2179  0.1239
  177MOL    C2621498   8.301   5.582   2.416 -0.4252  0.3846 -0.4688
  177MOL    C2721499   8.388   5.700   2.473 -0.6095 -0.2961 -0.5124
  177MOL   Cl2821500   0.000   5.654   2.575 -0.3269  0.0086 -0.4682
  177MOL    H2921501   8.260   5.543   2.509  1.0030  0.2715  0.1189
  177MOL    H3021502   8.207   5.617   2.372  0.2386 -1.5915 -3.6906
  177MOL    H3121503   8.442   5.752   2.393 -1.4522  1.4905  0.0517
  177MOL    C3221504   8.301   5.806   2.559 -0.3943  0.6592 -0.2956
  177MOL    C3321505   8.204   5.890   2.472 -0.0603  0.4808 -0.0291
  177MOL   Cl3421506   8.297   5.997   2.367  0.3224 -0.2986 -0.0954
  177MOL    H3521507   8.368   5.874   2.611  1.0514 -1.9843  1.4124
  177MOL    H3621508   8.254   5.759   2.645  0.7275 -0.8532 -0.4839
  177MOL    H3721509   8.128   5.835   2.415  0.2558 -0.3273  0.3167
  177MOL    C3821510   8.133   5.985   2.577 -0.2118  0.9093  0.7888
  177MOL    C3921511   8.053   5.929   2.685 -0.2319  0.3449 -0.3156
  177MOL   Cl4021512   7.912   5.825   2.620 -0.4991 -0.4277 -0.0152
  177MOL    H4121513   8.074   6.047   2.510 -0.6734 -0.2466  0.1151
  177MOL    H4221514   8.209   6.045   2.628  1.0457  0.1799 -0.2058
  177MOL    H4321515   8.120   5.869   2.747  0.3939 -1.6994 -2.8589
  177MOL    C4421516   7.995   6.043   2.777 -0.1985  0.8331  0.3613
  177MOL    C4521517   8.088   6.141   2.846  0.1032 -0.2914 -0.6669
  177MOL   Cl4621518   8.212   6.047   2.929  0.0628 -0.7579 -0.6805
  177MOL    H4721519   7.937   5.994   2.854 -0.9424  0.2539 -0.5585
  177MOL    H4821520   7.920   6.097   2.720  0.4021 -0.8300 -2.0895
  177MOL    H4921521   8.137   6.201   2.769 -0.5218  0.1894 -0.6824
  177MOL    C5021522   8.010   6.222   2.943 -0.5240  0.1183 -0.2025
  177MOL    C5121523   7.900   6.313   2.894  0.1415 -0.0165 -0.2205
  177MOL   Cl5221524   7.979   6.433   2.788  0.0622  0.1245  0.0691
  177MOL    H5321525   8.070   6.299   2.993  1.0401  1.2176 -3.5699
  177MOL    H5421526   7.977   6.158   3.024 -0.3998 -0.1880 -0.3908
  177MOL    H5521527   7.823   6.266   2.833 -0.8680 -1.0509  1.7817
  177MOL    C5621528   7.848   6.376   3.023  0.1506 -0.5593 -0.0240
  177MOL    C5721529   7.753   6.490   2.993  0.4181  0.2403 -0.3760
  177MOL   Cl5821530   7.667   6.509   3.154  0.1632  0.1687 -0.1751
  177MOL    H5921531   7.926   6.415   3.088 -2.5050  1.0522  2.3193
  177MOL    H6021532   7.808   6.296   3.087 -0.5138  0.5440  0.9549
  177MOL    H6121533   7.823   6.572   2.975 -1.0535  1.7011  0.4001
  177MOL    C6221534   7.645   6.472   2.882  0.7713  0.3157 -0.0321
  177MOL    C6321535   7.574   6.606   2.850 -0.0232 -0.2333 -0.6068
  177MOL   Cl6421536   7.399   6.565   2.811  0.4680  0.3657 -0.4972
  177MOL    H6521537   7.573   6.405   2.929 -1.4191  2.0812 -0.7824
  177MOL    H6621538   7.680   6.420   2.792 -1.6003 -2.0005  0.3146
  177MOL    H6721539   7.566   6.676   2.933  0.3170  0.1513 -0.9004
  177MOL    C6821540   7.628   6.678   2.731 -0.2360  0.0933  0.1734
  177MOL    C6921541   7.759   6.763   2.755  0.3715 -0.0355  0.3037
  177MOL   Cl7021542   7.712   6.909   2.849  0.0228  0.2446 -0.0560
  177MOL    H7121543   7.550   6.734   2.679  2.1901  1.1553 -2.4160
  177MOL    H7221544   7.655   6.598   2.662  1.9396  0.3403  0.7168
  177MOL    H7321545   7.843   6.711   2.802 -1.0278 -0.3331  2.5516
  177MOL    C7421546   7.800   6.811   2.615  0.1864  0.0729 -0.2789
  177MOL    C7521547   7.939   6.872   2.583  0.8978  0.1134 -0.1399
  177MOL   Cl7621548   8.077   6.766   2.640 -0.0885 -0.1985 -0.0904
  177MOL    H7721549   7.719   6.868   2.569 -1.2538 -0.0809  1.9571
  177MOL    H7821550   7.811   6.723   2.551  0.6150 -0.0745 -0.0046
  177MOL    H7921551   7.954   6.884   2.476 -1.6578 -1.2535 -0.6882
  177MOL    C8021552   7.945   7.020   2.648 -0.2435 -0.5317 -0.0554
  177MOL    C8121553   8.055   7.112   2.585 -0.5896  0.7322  0.1826
  177MOL   Cl8221554   8.060   7.260   2.682  0.1070 -0.1023 -0.1493
  177MOL    H8321555   7.963   7.009   2.755 -0.1551 -0.2244 -0.0372
  177MOL    H8421556   7.854   7.079   2.637  0.2976  0.3311 -0.0173
  177MOL    H8521557   8.149   7.058   2.599 -1.1816 -0.4166 -0.1885
  177MOL    C8621558   8.030   7.142   2.436  0.0142 -0.8107  0.1470
  177MOL    C8721559   8.142   7.211   2.358 -0.1877 -0.6245  0.4449
  177MOL   Cl8821560   8.079   7.371   2.308  0.1414  0.2362  0.3678
  177MOL    H8921561   7.945   7.209   2.432  0.8131  0.0663 -2.6690
  177MOL    H9021562   7.983   7.055   2.389 -2.1397  0.0226  0.6913
  177MOL    H9121563   8.223   7.234   2.427 -0.4016 -1.4049  0.9605
  177MOL    C9221564   8.193   7.131   2.242 -0.2870  0.3476 -0.1082
  177MOL    C9321565   8.269   7.008   2.287 -0.9340 -0.0102 -0.1820
  177MOL   Cl9421566   8.405   7.064   2.383 -0.4926  0.1288 -0.1739
  177MOL    H9521567   8.269   7.193   2.192 -0.9695  2.2613  1.1900
  177MOL    H9621568   8.119   7.119   2.163  1.8667 -0.1038 -2.1211
  177MOL    H9721569   8.210   6.940   2.350 -0.8854  1.0569  1.0325
  177MOL    C9821570   8.320   6.909   2.177 -0.7286 -0.6093 -0.5594
  177MOL    C9921571   8.218   6.872   2.061  0.2447  0.7308 -0.7528
  177MOL  Cl10021572   8.070   6.804   2.136 -0.1966 -0.1975  0.1749
  177MOL   H10121573   8.343   6.820   2.235  0.1409  1.9958  3.2387
  177MOL   H10221574   8.409   6.949   2.128  0.1585 -0.7586  0.9185
  177MOL   H10321575   8.170   6.954   2.008  2.8016  1.6903 -1.6801
  177MOL   C10421576   8.272   6.772   1.954 -0.3816 -0.3467  0.7439
  177MOL   C10521577   8.411   6.803   1.887 -0.5169 -0.0995  0.2329
  177MOL  Cl10621578   8.388   6.971   1.819  0.0084  0.0960  0.2134
  177MOL   H10721579   8.206   6.768   1.868  1.0127  2.9080 -0.5575
  177MOL   H10821580   8.276   6.675   2.005  0.4514  0.0937  1.5210
  177MOL   H10921581   8.498   6.797   1.953 -0.1606 -1.6764 -0.3675
  177MOL   C11021582   8.453   6.698   1.779  0.0514  0.2553  0.7933
  177MOL   C11121583   0.051   6.738   1.699  1.0762  0.2742  0.1687
  177MOL  Cl11221584   0.077   6.614   1.571 -0.6131 -0.0627 -0.0783
  177MOL   H11321585   8.376   6.695   1.702  1.5166 -0.9615 -0.6687
  177MOL   H11421586   8.473   6.599   1.820  0.1327 -0.8880 -1.9223
  177MOL   H11521587   0.025   6.830   1.646  0.0352 -1.1606 -1.9257
  177MOL   C11621588   0.180   6.753   1.781  0.8110 -0.0382  0.3072
  177MOL   C11721589   0.287   6.843   1.713 -0.0384  0.4727  0.0919
  177MOL  Cl11821590   0.220   7.006   1.701 -0.0259  0.0867  0.1893
  177MOL   H11921591   0.235   6.659   1.775 -0.7176 -0.9220  0.0028
  177MOL   H12021592   0.174   6.782   1.886 -0.0260 -0.1060  0.2809
  177MOL   H12121593   0.383   6.859   1.762 -0.9894  1.1795  1.7759
  177MOL   H12221594   0.316   6.804   1.615  2.0567  1.5947  0.2508
  178MOL     C121595   2.990   1.009   1.645 -1.0707  0.3434  0.0598
  178MOL     C221596   3.132   1.055   1.606 -0.3728  0.0991  0.2071
  178MOL    Cl321597   3.259   0.939   1.680  0.0643  0.3944 -0.0454
  178MOL     H421598   2.906   1.068   1.609 -2.1788 -1.6664 -0.7077
  178MOL     H521599   2.953   0.921   1.593 -2.1674  0.9079 -0.1246
  178MOL     H621600   3.146   1.056   1.498 -1.8448  0.7231  0.0039
  178MOL     H721601   2.972   1.005   1.753 -2.4535  3.8206  0.0008
  178MOL     C821602   3.157   1.189   1.664 -0.0946  0.5187 -0.1489
  178MOL     C921603   3.066   1.304   1.620  0.4342  0.2019  0.8257
  178MOL   Cl1021604   3.120   1.340   1.456 -0.0272  0.0814 -0.0665
  178MOL    H1121605   3.259   1.226   1.648  0.0508  0.5445  0.8096
  178MOL    H1221606   3.160   1.176   1.772 -3.1862 -3.2391 -0.4238
  178MOL    H1321607   2.966   1.261   1.609 -0.2109  1.8436 -0.0505
  178MOL    C1421608   3.064   1.427   1.711 -0.2836  0.4951  0.0633
  178MOL    C1521609   2.960   1.528   1.661 -0.1933 -0.1024  0.1468
  178MOL   Cl1621610   2.947   1.649   1.794 -0.1537 -0.2994 -0.6204
  178MOL    H1721611   3.158   1.480   1.725 -0.6353  0.6662  1.9097
  178MOL    H1821612   3.023   1.405   1.810  3.2659 -0.0980  1.4856
  178MOL    H1921613   2.998   1.591   1.581 -0.1611 -0.6984 -0.3113
  178MOL    C2021614   2.817   1.478   1.629 -0.1525  0.4102  0.0536
  178MOL    C2121615   2.711   1.577   1.586 -0.8465  0.0970 -0.3983
  178MOL   Cl2221616   2.552   1.516   1.643  0.3261  0.0342  0.2618
  178MOL    H2321617   2.780   1.425   1.717  2.4719 -1.0914  0.2883
  178MOL    H2421618   2.831   1.409   1.546  1.8721  1.4480 -0.5059
  178MOL    H2521619   2.725   1.674   1.634  0.7012 -1.1021  1.6550
  178MOL    C2621620   2.690   1.594   1.435  0.0918 -0.0989  0.0640
  178MOL    C2721621   2.808   1.655   1.350 -0.0954  0.5316 -0.1728
  178MOL   Cl2821622   2.852   1.809   1.429  0.1218 -0.1767  0.1631
  178MOL    H2921623   2.607   1.662   1.421 -1.1236 -2.0630 -2.4734
  178MOL    H3021624   2.667   1.493   1.401  1.5082 -0.2198 -0.5815
  178MOL    H3121625   2.898   1.594   1.351 -0.2096  0.3643 -0.0577
  178MOL    C3221626   2.755   1.688   1.211  0.0710  0.3339  0.0836
  178MOL    C3321627   2.736   1.566   1.121  0.2606 -0.5418  0.9345
  178MOL   Cl3421628   2.866   1.451   1.139 -0.2118  0.2106  0.5274
  178MOL    H3521629   2.810   1.766   1.159  1.2497 -0.6189 -0.1063
  178MOL    H3621630   2.654   1.728   1.220  0.2273  0.8549 -0.4536
  178MOL    H3721631   2.633   1.533   1.136 -0.9192  1.0754 -2.8814
  178MOL    C3821632   2.740   1.604   0.970 -0.6427 -0.5018  0.7634
  178MOL    C3921633   2.641   1.706   0.923 -0.1753 -0.7429 -0.7938
  178MOL   Cl4021634   2.478   1.647   0.931 -0.2695 -0.1646 -0.2622
  178MOL    H4121635   2.734   1.517   0.903  0.1310  1.0247 -1.3632
  178MOL    H4221636   2.837   1.651   0.953 -0.1674 -2.0038 -0.9717
  178MOL    H4321637   2.641   1.796   0.985 -0.7341 -0.5251 -1.1116
  178MOL    C4421638   2.674   1.742   0.775  0.1818 -0.3441 -0.0499
  178MOL    C4521639   2.585   1.854   0.709  0.2839  0.5175 -0.2644
  178MOL   Cl4621640   2.648   1.858   0.545 -0.1387  0.0145  0.2446
  178MOL    H4721641   2.666   1.661   0.703 -0.0658  0.7123 -1.2225
  178MOL    H4821642   2.780   1.771   0.779 -0.2962  1.4652  0.0064
  178MOL    H4921643   2.481   1.821   0.704  0.6179 -0.2189 -3.4561
  178MOL    C5021644   2.608   1.987   0.774  0.6380 -0.4957  0.3803
  178MOL    C5121645   2.553   2.113   0.706  0.8190 -0.2233  0.1369
  178MOL   Cl5221646   2.575   2.232   0.830  0.0507 -0.0925  0.3761
  178MOL    H5321647   2.712   2.004   0.800 -0.0161  2.7313  1.1378
  178MOL    H5421648   2.542   1.986   0.861 -0.6492 -1.0470 -0.5780
  178MOL    H5521649   2.620   2.148   0.627 -1.2866 -0.9821 -2.0440
  178MOL    C5621650   2.400   2.104   0.662  0.1465  0.1021  0.2524
  178MOL    C5721651   2.362   2.205   0.556  0.1495 -0.1661 -0.0482
  178MOL   Cl5821652   2.178   2.204   0.525  0.1739 -0.0267  0.4089
  178MOL    H5921653   2.340   2.119   0.752  0.7869  1.5632  0.4554
  178MOL    H6021654   2.374   2.002   0.636  0.1097  0.2778 -0.4004
  178MOL    H6121655   2.390   2.305   0.588 -0.3529  0.0232 -0.1981
  178MOL    C6221656   2.427   2.155   0.423 -0.0927  0.2651 -0.1675
  178MOL    C6321657   2.388   2.228   0.291 -0.6820 -0.3001 -0.0091
  178MOL   Cl6421658   2.469   2.162   0.144 -0.3645 -0.3514  0.4582
  178MOL    H6521659   2.397   2.054   0.398 -0.5535  0.6571 -1.2316
  178MOL    H6621660   2.536   2.152   0.435  0.0142 -1.4685 -1.5161
  178MOL    H6721661   2.281   2.212   0.282 -0.5574 -0.0975 -2.0009
  178MOL    C6821662   2.417   2.382   0.296  0.2989 -0.1880 -0.1137
  178MOL    C6921663   2.349   2.463   0.172  0.3304 -0.5391 -0.0607
  178MOL   Cl7021664   2.429   2.625   0.188  0.2005  0.4108  0.2767
  178MOL    H7121665   2.523   2.405   0.296  0.3846 -0.3717 -2.6548
  178MOL    H7221666   2.380   2.423   0.390  2.1618  2.7501 -0.5783
  178MOL    H7321667   2.377   2.424   0.074 -1.4366  1.0177 -1.2158
  178MOL    C7421668   2.196   2.474   0.181 -1.0220 -0.2267 -0.1506
  178MOL    C7521669   2.138   2.549   0.064 -0.1815 -0.6297 -0.4621
  178MOL   Cl7621670   1.957   2.576   0.078 -0.1428 -0.3620 -0.1101
  178MOL    H7721671   2.196   2.528   0.276  2.1360  0.0767 -0.2420
  178MOL    H7821672   2.152   2.375   0.181 -0.3703 -0.5192 -1.2935
  178MOL    H7921673   2.179   2.649   0.054  0.4452 -1.0408 -2.3079
  178MOL    C8021674   2.163   2.484   8.444  1.2530 -0.1697  0.3291
  178MOL    C8121675   2.104   2.339   8.413  0.6656 -0.0424  0.3382
  178MOL   Cl8221676   2.236   2.224   8.449  0.3512  0.3445  0.0334
  178MOL    H8321677   2.264   2.483   8.403  0.7187  0.1609 -1.0186
  178MOL    H8421678   2.117   2.552   8.372  0.5265 -0.4361  0.5364
  178MOL    H8521679   2.022   2.318   8.482 -1.3321 -3.8551 -2.9079
  178MOL    C8621680   2.034   2.323   8.279  0.3056  0.3736 -0.5093
  178MOL    C8721681   2.123   2.310   8.152 -0.2409 -0.1991  0.0006
  178MOL   Cl8821682   2.218   2.463   8.129  0.3390  0.3155  0.3913
  178MOL    H8921683   1.951   2.392   8.270 -2.7368 -3.0364 -0.0224
  178MOL    H9021684   1.986   2.225   8.279 -1.4872  1.1945 -3.0742
  178MOL    H9121685   2.187   2.226   8.176  1.6116  0.9582 -0.7070
  178MOL    C9221686   2.035   2.276   8.026  0.1524  0.2571  0.2888
  178MOL    C9321687   2.108   2.214   7.904 -0.5664 -0.1637 -0.4513
  178MOL   Cl9421688   2.223   2.335   7.837  0.1405  0.2029 -0.0120
  178MOL    H9521689   1.972   2.362   8.003 -0.1881  0.1944  0.9895
  178MOL    H9621690   1.970   2.195   8.058 -0.4217  0.2681 -0.8390
  178MOL    H9721691   2.172   2.130   7.930  0.6428  0.7238 -0.5211
  178MOL    C9821692   2.010   2.183   7.788 -0.1402 -0.7423  0.2319
  178MOL    C9921693   1.906   2.078   7.812 -0.1922 -0.3655 -0.4520
  178MOL  Cl10021694   1.994   1.916   7.832  0.1635 -0.1152 -0.1991
  178MOL   H10121695   2.072   2.163   7.700  1.0490 -0.1888  0.9302
  178MOL   H10221696   1.962   2.278   7.764 -0.0983 -0.8073 -0.1136
  178MOL   H10321697   1.850   2.090   7.905  1.5725  1.0896  0.4536
  178MOL   C10421698   1.813   2.082   7.693 -0.0145  0.5878  0.0463
  178MOL   C10521699   1.707   1.971   7.674 -0.3521  0.4105 -0.5886
  178MOL  Cl10621700   1.641   2.004   7.513 -0.1038 -0.2584  0.3004
  178MOL   H10721701   1.866   2.072   7.598 -1.5345 -3.4864 -0.4954
  178MOL   H10821702   1.759   2.176   7.697 -0.0625  0.6207 -1.1267
  178MOL   H10921703   1.765   1.879   7.673 -0.4469  0.3526 -1.0475
  178MOL   C11021704   1.591   1.966   7.777 -0.2931 -0.0652 -0.0604
  178MOL   C11121705   1.533   1.817   7.775 -0.8418 -0.5379 -0.6006
  178MOL  Cl11221706   1.368   1.815   7.846  0.1480 -0.2493  0.3726
  178MOL   H11321707   1.516   2.041   7.752  0.6555  1.7445  2.3696
  178MOL   H11421708   1.628   2.002   7.873  0.9606  2.8448 -1.5645
  178MOL   H11521709   1.527   1.788   7.670 -1.3129 -0.8871 -0.4785
  178MOL   C11621710   1.611   1.715   7.866 -0.5243  0.1839 -0.1853
  178MOL   C11721711   1.545   1.569   7.887  0.4932  0.2882  0.0006
  178MOL  Cl11821712   1.527   1.495   7.730  0.3605 -0.3420  0.1960
  178MOL   H11921713   1.619   1.764   7.963  0.4093 -0.4316  0.0589
  178MOL   H12021714   1.714   1.707   7.831 -0.6765 -0.7717 -0.4301
  178MOL   H12121715   1.602   1.499   7.948 -1.5029 -0.0438  1.4991
  178MOL   H12221716   1.453   1.589   7.942  0.3615  1.3242 -0.5786
  179MOL     C121717   5.065   7.087   7.494  0.4001 -0.7504  0.4668
  179MOL     C221718   4.971   7.201   7.525  0.2162 -0.7414 -0.0911
  179MOL    Cl321719   5.052   7.321   7.621 -0.2834  0.2353 -0.2450
  179MOL     H421720   5.157   7.114   7.442  0.4354  2.2910  1.9616
  179MOL     H521721   5.088   7.034   7.587  0.0833 -2.5926 -0.4840
  179MOL     H621722   4.954   7.250   7.429 -0.1059 -0.5509  0.0614
  179MOL     H721723   5.002   7.023   7.433  0.2158 -0.8773  0.7891
  179MOL     C821724   4.838   7.136   7.587 -0.4929  0.9049  0.8129
  179MOL     C921725   4.719   7.224   7.592  0.4589  0.7054 -0.4010
  179MOL   Cl1021726   4.664   7.257   7.425 -0.3964 -0.3134 -0.0028
  179MOL    H1121727   4.866   7.100   7.686 -0.4085 -0.8277  0.1743
  179MOL    H1221728   4.809   7.048   7.530 -0.6575  1.1191  0.5651
  179MOL    H1321729   4.643   7.161   7.637 -1.2328  1.8182 -1.6232
  179MOL    C1421730   4.730   7.363   7.668  0.4166  0.1889  0.0839
  179MOL    C1521731   4.741   7.338   7.822 -0.7136 -0.3838 -0.4994
  179MOL   Cl1621732   4.598   7.250   7.894 -0.0911  0.0560  0.2985
  179MOL    H1721733   4.646   7.429   7.648 -0.9523 -2.5369 -3.7733
  179MOL    H1821734   4.815   7.418   7.626  0.6738 -0.5369 -0.3522
  179MOL    H1921735   4.824   7.268   7.831 -0.7268 -0.2455  0.7439
  179MOL    C2021736   4.765   7.454   7.917 -0.0683 -1.4318  0.2743
  179MOL    C2121737   4.884   7.549   7.898  0.9202 -0.1264  0.0079
  179MOL   Cl2221738   5.044   7.484   7.950 -0.1808  0.3465  0.0366
  179MOL    H2321739   4.767   7.412   8.017 -0.9743 -0.2259  0.8058
  179MOL    H2421740   4.673   7.512   7.917  1.0997  0.4538 -0.5589
  179MOL    H2521741   4.896   7.576   7.793  0.1700  2.4959  0.5559
  179MOL    C2621742   4.861   7.674   7.978  0.5853 -0.0599 -0.3754
  179MOL    C2721743   4.748   7.766   7.929 -0.3967  0.4990 -0.4424
  179MOL   Cl2821744   4.772   7.804   7.758 -0.0675  0.0358 -0.2977
  179MOL    H2921745   4.948   7.737   7.961  0.9735 -0.7445 -0.9527
  179MOL    H3021746   4.854   7.655   8.085  1.1812  1.5651 -0.0294
  179MOL    H3121747   4.655   7.709   7.933  0.0638 -0.2443 -0.1657
  179MOL    C3221748   4.731   7.898   8.006 -0.7279 -0.6193 -0.5457
  179MOL    C3321749   4.677   7.868   8.150 -0.3328  0.1201  0.3660
  179MOL   Cl3421750   4.510   7.817   8.125  0.3443 -0.0798 -0.2470
  179MOL    H3521751   4.662   7.965   7.954 -0.2107  0.8381  0.6050
  179MOL    H3621752   4.832   7.939   8.013 -0.9532 -0.2263  0.5250
  179MOL    H3721753   4.738   7.786   8.187  0.8809  0.6257 -0.4794
  179MOL    C3821754   4.678   7.980   8.249  0.6518 -0.0830 -0.0027
  179MOL    C3921755   4.576   8.097   8.225  0.0203  1.2666  0.5503
  179MOL   Cl4021756   4.669   8.233   8.157  0.4393  0.0886  0.5918
  179MOL    H4121757   4.781   8.018   8.255  0.6742 -0.4161  2.1894
  179MOL    H4221758   4.645   7.927   8.337  0.0432  0.1531 -0.0908
  179MOL    H4321759   4.491   8.069   8.162  0.6826  0.9222 -0.1953
  179MOL    C4421760   4.515   8.137   8.349  0.1367  0.0856  0.2206
  179MOL    C4521761   4.398   8.044   8.401  0.0302 -0.2101 -0.6647
  179MOL   Cl4621762   4.237   8.081   8.335 -0.1963  0.1638  0.1852
  179MOL    H4721763   4.458   8.228   8.330 -4.2343 -2.9712 -2.0334
  179MOL    H4821764   4.595   8.159   8.420 -0.6809  1.5375  0.7075
  179MOL    H4921765   4.407   7.939   8.372  0.3974 -0.2051 -0.5671
  179MOL    C5021766   4.377   8.032   0.030 -0.0656 -0.0503  0.2356
  179MOL    C5121767   4.384   8.172   0.111  0.7470 -0.2940 -0.6104
  179MOL   Cl5221768   4.389   8.124   0.284 -0.1279 -0.0072  0.0035
  179MOL    H5321769   4.465   7.971   0.051  1.3359  1.5779 -0.7942
  179MOL    H5421770   4.284   7.976   0.044 -1.0837  1.9675  1.7769
  179MOL    H5521771   4.480   8.220   0.097  0.4372  1.2253  2.0484
  179MOL    C5621772   4.284   8.288   0.095  0.0190  0.3109 -1.2918
  179MOL    C5721773   4.287   8.408   0.193 -0.3942  0.5045  1.0219
  179MOL   Cl5821774   4.165   0.006   0.136  0.1990 -0.3667  0.0059
  179MOL    H5921775   4.183   8.249   0.110  0.1284  0.9174  1.3446
  179MOL    H6021776   4.284   8.322   8.517 -1.4368 -1.2022 -1.8044
  179MOL    H6121777   4.258   8.375   0.293 -2.0782  1.7486  0.9767
  179MOL    C6221778   4.422   8.475   0.198 -0.4163  0.0459  0.3379
  179MOL    C6321779   4.444   0.040   0.323 -0.1758 -1.2381 -0.2843
  179MOL   Cl6421780   4.448   8.454   0.460  0.0952  0.1051 -0.2940
  179MOL    H6521781   4.444   0.001   0.105 -3.6918 -0.7838 -0.9805
  179MOL    H6621782   4.498   8.397   0.201 -0.4980 -0.1329 -1.6586
  179MOL    H6721783   4.546   0.076   0.315 -0.9108  0.9000 -0.2756
  179MOL    C6821784   4.345   0.152   0.345 -0.4277  0.3339 -0.6257
  179MOL    C6921785   4.354   0.260   0.236  0.1634  0.2445  0.7124
  179MOL   Cl7021786   4.514   0.330   0.246  0.1366 -0.0607 -0.0750
  179MOL    H7121787   4.352   0.192   0.446  2.9556 -0.1362 -0.6173
  179MOL    H7221788   4.242   0.114   0.347 -0.7912  1.3552  0.7324
  179MOL    H7321789   4.351   0.212   0.138 -0.6515  0.2070  0.7534
  179MOL    C7421790   4.243   0.369   0.248  0.0033 -0.6407 -0.7877
  179MOL    C7521791   4.218   0.472   0.133 -0.4324 -0.0184  0.6117
  179MOL   Cl7621792   4.210   0.391   8.498 -0.0731  0.3291 -0.0571
  179MOL    H7721793   4.245   0.425   0.342 -2.3743  1.8049 -2.1209
  179MOL    H7821794   4.145   0.322   0.252 -0.5265  0.4832 -0.1372
  179MOL    H7921795   4.121   0.521   0.140  0.6408  2.0756  1.3599
  179MOL    C8021796   4.325   0.583   0.131 -0.0571 -0.1464 -0.0400
  179MOL    C8121797   4.277   0.728   0.144 -0.2123 -0.5195 -0.4095
  179MOL   Cl8221798   4.194   0.743   0.307 -0.1024 -0.2905  0.1711
  179MOL    H8321799   4.392   0.578   0.045 -1.2544 -2.0149 -0.8818
  179MOL    H8421800   4.394   0.566   0.213 -0.9043 -3.4588  0.0326
  179MOL    H8521801   4.365   0.790   0.161 -0.8122 -0.2637  1.8987
  179MOL    C8621802   4.190   0.789   0.032  0.7743 -0.7240  0.0770
  179MOL    C8721803   4.264   0.831   8.431  0.3373 -0.1071  0.0212
  179MOL   Cl8821804   4.398   0.947   8.464 -0.0560  0.2727  0.2540
  179MOL    H8921805   4.143   0.881   0.069  2.1876 -0.4630  1.2756
  179MOL    H9021806   4.105   0.724   0.013  0.7929 -1.2288  1.6990
  179MOL    H9121807   4.306   0.736   8.396  1.0019 -0.6041  2.1305
  179MOL    C9221808   4.175   0.890   8.322 -0.2824  0.5717  0.2661
  179MOL    C9321809   4.107   0.790   8.228  0.1883 -0.2009 -0.2716
  179MOL   Cl9421810   4.235   0.726   8.124  0.1844 -0.1772 -0.2783
  179MOL    H9521811   4.242   0.938   8.250  0.2310 -2.1779 -1.1689
  179MOL    H9621812   4.115   0.972   8.362  0.5189  1.5978 -0.6017
  179MOL    H9721813   4.067   0.700   8.275  0.6363 -0.2163  0.0870
  179MOL    C9821814   3.997   0.859   8.144  0.3513 -0.3831  0.2523
  179MOL    C9921815   3.861   0.832   8.207  0.7913  0.4405 -0.1593
  179MOL  Cl10021816   3.813   0.667   8.163  0.1422 -0.0804  0.4704
  179MOL   H10121817   3.998   0.808   8.048 -1.0166 -1.0494  0.5682
  179MOL   H10221818   4.007   0.962   8.112 -0.9285 -1.3951 -3.6779
  179MOL   H10321819   3.868   0.838   8.316  1.1621 -1.8828 -0.0299
  179MOL   C10421820   3.753   0.928   8.155  0.2476 -0.7232  1.0025
  179MOL   C10521821   3.769   1.081   8.183 -0.8740 -0.5297 -0.6574
  179MOL  Cl10621822   3.719   1.118   8.350 -0.1546 -0.1951  0.0361
  179MOL   H10721823   3.656   0.888   8.183 -0.6019 -0.4097 -1.4109
  179MOL   H10821824   3.757   0.911   8.048  0.9777 -1.1825  1.0981
  179MOL   H10921825   3.871   1.117   8.171 -1.0891  0.0233 -0.8586
  179MOL   C11021826   3.678   1.161   8.087  0.1189 -0.2373 -0.3131
  179MOL   C11121827   3.646   1.310   8.123  0.1358 -0.2057 -0.0961
  179MOL  Cl11221828   3.534   1.368   7.995 -0.3157 -0.0878 -0.7083
  179MOL   H11321829   3.583   1.113   8.063  1.1974 -1.8337 -1.5033
  179MOL   H11421830   3.741   1.153   7.998 -0.2205 -3.8345 -0.3281
  179MOL   H11521831   3.590   1.320   8.216 -0.9349 -0.6319 -0.6832
  179MOL   C11621832   3.770   1.398   8.123 -0.1997 -0.4525  0.6865
  179MOL   C11721833   3.744   1.545   8.140  0.3055 -0.6391 -0.0736
  179MOL  Cl11821834   3.898   1.631   8.122 -0.0617  0.1376 -0.3012
  179MOL   H11921835   3.822   1.369   8.032  0.1270  0.6276  0.5147
  179MOL   H12021836   3.846   1.366   8.194  0.4232 -0.3949  0.0551
  179MOL   H12121837   3.681   1.573   8.056  1.5950 -1.8631 -1.4795
  179MOL   H12221838   3.694   1.582   8.230  0.5633  2.6405 -1.2069
  180MOL     C121839   4.192   7.789   3.696 -0.1091 -0.1748 -0.6181
  180MOL     C221840   4.240   7.783   3.552  0.3517  0.3040  0.2401
  180MOL    Cl321841   4.285   7.615   3.511 -0.0771 -0.4916 -0.0594
  180MOL     H421842   4.145   7.883   3.725  1.4267 -0.7063  4.0897
  180MOL     H521843   4.125   7.704   3.703  0.8646 -0.7893  1.9844
  180MOL     H621844   4.150   7.810   3.496 -0.2252 -2.7402 -0.4210
  180MOL     H721845   4.276   7.771   3.764 -1.4136  1.2230  1.4262
  180MOL     C821846   4.366   7.875   3.533  0.3980  0.5189 -0.2130
  180MOL     C921847   4.347   8.027   3.522 -0.4682  0.4356  0.1017
  180MOL   Cl1021848   4.250   8.066   3.384  0.4490 -0.0872 -0.0718
  180MOL    H1121849   4.424   7.835   3.450  0.4205  2.6856 -1.2838
  180MOL    H1221850   4.432   7.857   3.618  0.3850 -3.6114 -0.9806
  180MOL    H1321851   4.298   8.078   3.606  0.3903  0.3261  0.6652
  180MOL    C1421852   4.487   8.079   3.489 -0.2294  0.2886 -0.0174
  180MOL    C1521853   4.505   8.228   3.450  0.2714  0.5007 -0.2378
  180MOL   Cl1621854   4.668   8.258   3.378  0.3942 -0.1089  0.1955
  180MOL    H1721855   4.515   8.027   3.397 -3.2575 -0.3049 -0.6375
  180MOL    H1821856   4.556   8.043   3.565  0.3406 -1.2626 -1.2323
  180MOL    H1921857   4.444   8.250   3.363  0.6781  1.0744 -0.3802
  180MOL    C2021858   4.481   8.327   3.564  0.2494 -0.1341  0.1536
  180MOL    C2121859   4.439   8.473   3.529 -0.4124 -0.2043 -0.1192
  180MOL   Cl2221860   4.273   8.466   3.450  0.3400  0.1422 -0.1825
  180MOL    H2321861   4.573   8.346   3.619  0.2514  1.2417 -0.2921
  180MOL    H2421862   4.408   8.281   3.629  1.6539 -1.6193  0.7007
  180MOL    H2521863   4.427   0.014   3.615 -4.1509  0.9798 -1.4592
  180MOL    C2621864   4.527   0.028   3.428  0.1365 -0.4931  0.7902
  180MOL    C2721865   4.671   0.068   3.479  0.4303 -0.3906  0.2585
  180MOL   Cl2821866   4.661   0.209   3.590  0.2016 -0.0823 -0.3909
  180MOL    H2921867   4.484   0.122   3.393  0.8459  0.6448  2.9043
  180MOL    H3021868   4.534   8.500   3.333 -1.2862  1.3959 -0.4082
  180MOL    H3121869   4.722   8.516   3.536 -0.2359  0.1879  1.6807
  180MOL    C3221870   4.774   0.100   3.367  0.6734 -0.1876  1.1827
  180MOL    C3321871   4.729   0.210   3.268  0.8771  0.5474 -0.1448
  180MOL   Cl3421872   4.635   0.147   3.128 -0.2421 -0.2091 -0.0068
  180MOL    H3521873   4.788   0.004   3.317 -0.1393 -0.1328  0.8390
  180MOL    H3621874   4.869   0.119   3.416  1.8814  0.3009 -1.2599
  180MOL    H3721875   4.661   0.273   3.325  0.1074 -2.2758  2.1281
  180MOL    C3821876   4.839   0.303   3.210 -0.2150  0.4498 -0.4716
  180MOL    C3921877   4.787   0.444   3.166 -0.8895  0.3640  0.1204
  180MOL   Cl4021878   4.755   0.539   3.313 -0.1209 -0.0060 -0.6015
  180MOL    H4121879   4.880   0.237   3.134 -1.5714 -0.4663 -0.4174
  180MOL    H4221880   4.918   0.304   3.286 -1.0516 -1.2127  0.4727
  180MOL    H4321881   4.873   0.492   3.119 -0.7555  0.3016  0.3016
  180MOL    C4421882   4.672   0.451   3.072  0.2616  0.0866 -0.3008
  180MOL    C4521883   4.625   0.592   3.037 -0.8706  0.4461  0.5943
  180MOL   Cl4621884   4.469   0.577   2.958 -0.2024 -0.1173 -0.2224
  180MOL    H4721885   4.584   0.405   3.116  1.1885 -1.0012  0.4302
  180MOL    H4821886   4.709   0.391   2.989  0.3655 -0.1461 -0.0870
  180MOL    H4921887   4.595   0.649   3.125 -1.5969  1.6886 -0.4353
  180MOL    C5021888   4.709   0.678   2.937 -0.6687 -0.6721  0.2371
  180MOL    C5121889   4.732   0.614   2.801  0.5699  0.2558 -0.0913
  180MOL   Cl5221890   4.889   0.537   2.810 -0.7019  0.1318  0.0779
  180MOL    H5321891   4.799   0.714   2.987 -1.6820  0.7075  1.0984
  180MOL    H5421892   4.651   0.769   2.923  1.2352  0.6622  0.7340
  180MOL    H5521893   4.653   0.543   2.779 -0.2067  0.6198  1.4079
  180MOL    C5621894   4.724   0.722   2.689  0.0892  0.7848 -0.4422
  180MOL    C5721895   4.761   0.674   2.547 -0.0987 -0.5118  0.6941
  180MOL   Cl5821896   4.773   0.815   2.430 -0.3482 -0.0166 -0.1046
  180MOL    H5921897   4.803   0.796   2.704 -0.0952  0.7158  0.8762
  180MOL    H6021898   4.626   0.768   2.699 -0.7479 -1.1623  0.4693
  180MOL    H6121899   4.855   0.619   2.560 -0.1105 -0.4896  0.8697
  180MOL    C6221900   4.667   0.574   2.478  0.2732  0.5632 -0.0247
  180MOL    C6321901   4.715   0.502   2.340 -0.3430  0.0508  0.0984
  180MOL   Cl6421902   4.579   0.402   2.290  0.3816 -0.1051  0.2333
  180MOL    H6521903   4.571   0.624   2.472  0.7285  1.5563  0.8289
  180MOL    H6621904   4.654   0.501   2.558  1.4588 -0.2812 -0.5899
  180MOL    H6721905   4.720   0.584   2.268  0.9606  0.0993  0.2309
  180MOL    C6821906   4.847   0.433   2.354  0.1141  0.2649 -0.9820
  180MOL    C6921907   4.891   0.383   2.209  0.1642  0.3121 -0.2580
  180MOL   Cl7021908   5.019   0.274   2.256  0.3711 -0.2057 -0.2712
  180MOL    H7121909   4.849   0.357   2.433 -1.7690 -0.1535 -1.3090
  180MOL    H7221910   4.915   0.510   2.391 -1.4537  0.2584  2.0904
  180MOL    H7321911   4.816   0.324   2.156 -0.4033 -1.5490  2.5318
  180MOL    C7421912   4.958   0.490   2.113  0.3643 -0.7440  0.6341
  180MOL    C7521913   5.020   0.428   1.985 -0.1639 -0.2242 -0.4431
  180MOL   Cl7621914   5.135   0.535   1.914 -0.0725 -0.3466 -0.4371
  180MOL    H7721915   5.037   0.538   2.171  0.3017  0.5258 -0.3149
  180MOL    H7821916   4.884   0.562   2.078  0.1261 -1.3849 -0.1855
  180MOL    H7921917   5.068   0.335   2.015 -0.2422 -0.1574 -0.1089
  180MOL    C8021918   4.916   0.383   1.879 -0.0440  0.2073 -0.2128
  180MOL    C8121919   4.896   0.229   1.861  0.3980 -0.6858 -0.1847
  180MOL   Cl8221920   5.045   0.148   1.817  0.2473  0.4526  0.4662
  180MOL    H8321921   4.935   0.420   1.777 -4.8761 -0.0294 -1.3131
  180MOL    H8421922   4.818   0.426   1.899 -0.3171  0.2801 -1.6353
  180MOL    H8521923   4.871   0.195   1.961  1.0051  0.2461  0.2894
  180MOL    C8621924   4.798   0.206   1.744 -0.2215  0.2841 -0.1177
  180MOL    C8721925   4.659   0.263   1.770  1.2850 -0.3978 -0.2527
  180MOL   Cl8821926   4.590   0.196   1.930 -0.0462 -0.3265  0.3428
  180MOL    H8921927   4.804   0.103   1.710 -2.4603  0.7612 -2.1511
  180MOL    H9021928   4.832   0.264   1.658  0.7851 -1.6908 -1.0905
  180MOL    H9121929   4.657   0.371   1.786 -0.3220 -0.5263  0.5361
  180MOL    C9221930   4.562   0.209   1.666 -0.7424  0.0658 -0.2421
  180MOL    C9321931   4.590   0.272   1.526  0.4858  0.0717  0.1660
  180MOL   Cl9421932   4.551   0.445   1.540 -0.3248 -0.0469  0.1487
  180MOL    H9521933   4.460   0.224   1.701 -1.1208  1.2472 -1.7964
  180MOL    H9621934   4.572   0.101   1.663  0.8043  0.1575  0.8701
  180MOL    H9721935   4.691   0.264   1.487  0.5470  1.8685 -0.0790
  180MOL    C9821936   4.487   0.223   1.420 -0.5303  0.0828 -0.7321
  180MOL    C9921937   4.507   0.293   1.283 -0.1144  0.3489  0.5995
  180MOL  Cl10021938   4.381   0.215   1.166 -0.0560  0.3171  0.1921
  180MOL   H10121939   4.386   0.248   1.452 -0.2066 -0.0380  0.4191
  180MOL   H10221940   4.483   0.114   1.418 -0.5980  0.0830 -0.5595
  180MOL   H10321941   4.473   0.396   1.290 -1.1398 -0.0748  1.8930
  180MOL   C10421942   4.642   0.273   1.216 -0.1419  0.4535 -0.5608
  180MOL   C10521943   4.655   0.319   1.070  0.1942  0.3767  0.1938
  180MOL  Cl10621944   4.822   0.299   1.022  0.2667  0.5592 -0.1337
  180MOL   H10721945   4.673   0.169   1.229 -3.8462 -0.5078  1.3635
  180MOL   H10821946   4.714   0.337   1.266 -1.4198  0.9575  0.6865
  180MOL   H10921947   4.598   0.256   1.002 -0.0982  1.8862 -1.0061
  180MOL   C11021948   4.610   0.463   1.050 -0.2315  0.1938  0.2739
  180MOL   C11121949   4.632   0.521   0.906 -0.1146 -0.4395  0.2737
  180MOL  Cl11221950   4.615   0.696   0.904 -0.1874  0.0081 -0.2056
  180MOL   H11321951   4.668   0.532   1.111  0.2145 -1.4021  1.7019
  180MOL   H11421952   4.504   0.480   1.069 -0.0345  0.8752  0.7825
  180MOL   H11521953   4.737   0.516   0.876 -0.1523 -1.3757  0.2872
  180MOL   C11621954   4.549   0.463   0.796  0.0966 -0.5301  0.3593
  180MOL   C11721955   4.583   0.511   0.658 -0.1919  0.2621  0.4719
  180MOL  Cl11821956   4.460   0.426   0.559 -0.2013  0.0948 -0.1042
  180MOL   H11921957   4.442   0.475   0.813 -0.9678 -3.2739 -3.6801
  180MOL   H12021958   4.568   0.356   0.784  1.3539 -0.1047 -1.6938
  180MOL   H12121959   4.582   0.619   0.638  0.4243  0.3874  1.0755
  180MOL   H12221960   4.684   0.482   0.628 -0.6718 -0.9909  0.0553
  181MOL     C121961   6.234   0.490   5.391  0.1616  0.5685 -0.1271
  181MOL     C221962   6.311   0.583   5.307 -0.0860 -0.3308  0.0474
  181MOL    Cl321963   6.423   0.488   5.208 -0.1490 -0.4733  0.0989
  181MOL     H421964   6.177   0.548   5.464  0.7237  0.6546  0.2463
  181MOL     H521965   6.164   0.426   5.337 -0.9227  0.3556  1.5128
  181MOL     H621966   6.238   0.626   5.238  0.2451 -2.0897 -1.4299
  181MOL     H721967   6.291   0.421   5.453  0.1672  0.0937 -0.6595
  181MOL     C821968   6.392   0.687   5.390 -0.0488  0.2872 -0.1401
  181MOL     C921969   6.313   0.795   5.469 -0.0694 -0.3368 -0.0465
  181MOL   Cl1021970   6.211   0.893   5.362 -0.4276  0.0475  0.1571
  181MOL    H1121971   6.459   0.734   5.317 -0.1692  0.8312  0.0966
  181MOL    H1221972   6.457   0.639   5.462  0.2040  1.0675  0.1589
  181MOL    H1321973   6.236   0.760   5.538  0.6128 -1.3838  0.1843
  181MOL    C1421974   6.411   0.884   5.550 -0.2041 -0.0250 -0.4129
  181MOL    C1521975   6.347   0.994   5.631  0.3175 -0.1426 -0.5899
  181MOL   Cl1621976   6.472   1.078   5.731 -0.2173  0.2170 -0.3095
  181MOL    H1721977   6.478   0.928   5.477  2.3877 -1.7429  0.8487
  181MOL    H1821978   6.477   0.820   5.608  2.1577  0.0233 -2.9307
  181MOL    H1921979   6.306   1.066   5.560  2.7193  0.5417 -1.3449
  181MOL    C2021980   6.236   0.955   5.733  0.2384 -0.2278  0.1816
  181MOL    C2121981   6.266   0.885   5.861 -0.1413 -0.0614 -0.4301
  181MOL   Cl2221982   6.304   0.716   5.831 -0.3015 -0.1285 -0.3841
  181MOL    H2321983   6.148   0.911   5.686  0.2781 -1.3820  1.1460
  181MOL    H2421984   6.199   1.054   5.759 -2.4327 -0.9234 -0.7490
  181MOL    H2521985   6.361   0.921   5.901  0.3815 -1.4266 -0.3998
  181MOL    C2621986   6.152   0.883   5.964  0.7839  0.1498 -0.1892
  181MOL    C2721987   6.170   0.881   6.117 -0.5569  0.2429 -1.3039
  181MOL   Cl2821988   6.298   0.990   6.170 -0.2079  0.0750  0.0638
  181MOL    H2921989   6.078   0.810   5.932  1.4712 -1.0864  1.0300
  181MOL    H3021990   6.102   0.980   5.954  0.6117  0.1366  0.4861
  181MOL    H3121991   6.082   0.912   6.174  1.3552 -1.0684  2.5595
  181MOL    C3221992   6.213   0.733   6.151  0.1911  0.0267  0.2773
  181MOL    C3321993   6.094   0.623   6.150  0.3032  0.0443  0.3109
  181MOL   Cl3421994   5.981   0.643   6.278 -0.3520 -0.0345  0.1178
  181MOL    H3521995   6.249   0.741   6.253  0.7188  0.0340  0.0893
  181MOL    H3621996   6.298   0.707   6.088 -1.4311 -1.3165 -1.4187
  181MOL    H3721997   6.037   0.629   6.058  0.3658 -0.5646  0.2255
  181MOL    C3821998   6.147   0.480   6.179  0.1246 -0.2044 -0.9312
  181MOL    C3921999   6.241   0.416   6.071  0.3692  0.1288  0.2168
  181MOL   Cl4022000   6.141   0.316   5.960  0.1144 -0.0246 -0.0466
  181MOL    H4122001   6.059   0.415   6.184 -0.1065  0.1558 -0.2046
  181MOL    H4222002   6.194   0.458   6.274  0.0005  0.9693 -0.5849
  181MOL    H4322003   6.293   0.491   6.013  0.0623 -0.3907 -0.7321
  181MOL    C4422004   6.345   0.320   6.133 -0.6570  0.4134 -0.2963
  181MOL    C4522005   6.453   0.402   6.215 -0.5115 -0.1481 -0.3402
  181MOL   Cl4622006   6.565   0.478   6.099 -0.4555  0.5480  0.5913
  181MOL    H4722007   6.402   0.277   6.051 -1.4598  0.4475 -0.8839
  181MOL    H4822008   6.301   0.237   6.189  1.8201  0.3589  1.6203
  181MOL    H4922009   6.411   0.491   6.264  0.3440  0.5557 -0.8658
  181MOL    C5022010   6.531   0.321   6.309  0.0424 -0.1578 -0.0639
  181MOL    C5122011   6.464   0.314   6.448 -0.2355  0.2779 -0.1002
  181MOL   Cl5222012   6.583   0.244   6.562 -0.4869 -0.4388  0.0581
  181MOL    H5322013   6.625   0.375   6.317 -0.1522  0.0247  1.0699
  181MOL    H5422014   6.545   0.219   6.273  3.3748  0.1223  0.2888
  181MOL    H5522015   6.448   0.414   6.487 -0.3070 -0.0665  0.7764
  181MOL    C5622016   6.327   0.240   6.458 -0.6458  0.1010  0.5914
  181MOL    C5722017   6.284   0.203   6.604  0.0009  0.4214  0.4137
  181MOL   Cl5822018   6.133   0.103   6.598  0.2957 -0.0987  0.3285
  181MOL    H5922019   6.335   0.151   6.397  1.3114  0.4462  0.3342
  181MOL    H6022020   6.252   0.305   6.413 -2.3686 -2.0655  0.2520
  181MOL    H6122021   6.362   0.148   6.658  0.8304  1.3659  0.1965
  181MOL    C6222022   6.261   0.336   6.684  0.9497  0.3268  0.1416
  181MOL    C6322023   6.221   0.315   6.835 -0.2138  0.9822  0.1776
  181MOL   Cl6422024   6.196   0.477   6.894 -0.5907 -0.0716 -0.2355
  181MOL    H6522025   6.184   0.394   6.635 -0.0051 -1.4520 -0.5161
  181MOL    H6622026   6.353   0.395   6.676 -0.2273  1.8313 -2.6036
  181MOL    H6722027   6.123   0.268   6.832  0.1155  0.3878 -1.1411
  181MOL    C6822028   6.319   0.230   6.924 -0.1689  0.0900 -0.3421
  181MOL    C6922029   6.284   0.080   6.922  0.4201  0.2375 -0.2358
  181MOL   Cl7022030   6.128   0.061   7.001  0.3227 -0.1656  0.0057
  181MOL    H7122031   6.306   0.271   7.025 -1.6196  1.1555 -0.9401
  181MOL    H7222032   6.422   0.246   6.893 -0.7447  2.9030 -0.8683
  181MOL    H7322033   6.276   0.040   6.821  2.3924  0.9013 -0.6723
  181MOL    C7422034   6.394   8.520   6.991 -0.1748  0.0903  0.1076
  181MOL    C7522035   6.537   8.496   6.925 -0.2033  0.5138  0.8339
  181MOL   Cl7622036   6.520   8.453   6.751  0.7158 -0.4926 -0.0141
  181MOL    H7722037   6.351   8.420   7.003  1.3628 -0.5851 -0.0099
  181MOL    H7822038   6.405   0.028   7.095 -2.5832  0.7636  0.1933
  181MOL    H7922039   6.597   0.062   6.930 -0.6006  0.9345 -1.7565
  181MOL    C8022040   6.613   8.374   6.996 -0.3247  0.2589 -0.7073
  181MOL    C8122041   6.657   8.409   7.144  0.3756  0.7693  0.1896
  181MOL   Cl8222042   6.748   0.034   7.147 -0.0350  0.4208 -0.0400
  181MOL    H8322043   6.701   8.368   6.932  0.6320  2.9609  0.3036
  181MOL    H8422044   6.563   8.278   7.008 -1.4058  0.5459 -2.6502
  181MOL    H8522045   6.574   8.433   7.211  0.7693 -0.6902  1.2251
  181MOL    C8622046   6.755   8.302   7.206 -0.0472 -0.0429 -0.2060
  181MOL    C8722047   6.793   8.314   7.352  0.4100 -0.4933  0.2768
  181MOL   Cl8822048   6.930   8.201   7.390  0.2770  0.0199  0.0202
  181MOL    H8922049   6.845   8.290   7.147  0.2139  0.4895  0.0864
  181MOL    H9022050   6.709   8.203   7.202 -2.0919  0.8349  0.6992
  181MOL    H9122051   6.839   8.411   7.366 -0.2735 -0.3572  1.6771
  181MOL    C9222052   6.680   8.307   7.458 -0.6011 -0.8047  0.4483
  181MOL    C9322053   6.593   8.176   7.464  0.8912 -0.0852  0.0762
  181MOL   Cl9422054   6.486   8.160   7.321 -0.1526  0.1413 -0.1721
  181MOL    H9522055   6.629   8.402   7.440  1.2281  0.1610  0.2030
  181MOL    H9622056   6.730   8.318   7.555 -0.4240  1.2209  0.1560
  181MOL    H9722057   6.652   8.086   7.482  1.4396  0.7069  2.4155
  181MOL    C9822058   6.498   8.191   7.583  0.0294 -0.0619 -0.1457
  181MOL    C9922059   6.570   8.188   7.714 -0.1868  0.1398 -0.5765
  181MOL  Cl10022060   6.607   8.021   7.746  0.2207  0.0578 -0.1117
  181MOL   H10122061   6.426   8.109   7.583  1.7702 -1.6127  0.0409
  181MOL   H10222062   6.441   8.284   7.578 -2.6149 -1.5042  1.5002
  181MOL   H10322063   6.660   8.246   7.731 -0.3059  0.2738 -0.4062
  181MOL   C10422064   6.470   8.209   7.827 -0.8245 -0.6355  0.3298
  181MOL   C10522065   6.460   8.358   7.857 -0.0234 -0.5392  0.0188
  181MOL  Cl10622066   6.607   8.426   7.909  0.2410 -0.6801  0.0814
  181MOL   H10722067   6.494   8.154   7.919  0.8690 -0.7519 -0.1682
  181MOL   H10822068   6.376   8.168   7.791  0.1140 -1.9252 -0.6891
  181MOL   H10922069   6.436   8.412   7.765 -4.3679 -0.7943  0.8930
  181MOL   C11022070   6.346   8.388   7.954  0.3161 -0.5881 -0.4290
  181MOL   C11122071   6.202   8.368   7.906  0.5496  0.4760 -0.2109
  181MOL  Cl11222072   6.160   8.477   7.769  0.3727  0.0761  0.0552
  181MOL   H11322073   6.349   8.486   8.002  1.8734 -0.2831 -1.1363
  181MOL   H11422074   6.370   8.322   8.038  2.0951 -0.0836 -0.5322
  181MOL   H11522075   6.184   8.264   7.876 -0.0581  0.4336  0.2988
  181MOL   C11622076   6.114   8.396   8.028 -0.2621  0.1938 -0.4274
  181MOL   C11722077   5.963   8.363   8.012  0.4102  0.1568 -0.2270
  181MOL  Cl11822078   5.952   8.186   8.049  0.0742  0.0379 -0.1393
  181MOL   H11922079   6.119   8.502   8.053 -1.6836 -0.3261  2.2183
  181MOL   H12022080   6.149   8.330   8.108 -1.5795 -1.7005 -1.3646
  181MOL   H12122081   5.904   8.412   8.090 -0.6114  0.2516 -1.0475
  181MOL   H12222082   5.923   8.382   7.913  1.3783 -1.6419 -0.9917
  182MOL     C122083   1.742   7.881   2.513  0.1041  0.6332 -0.4606
  182MOL     C222084   1.847   7.950   2.596  0.7083  0.6451 -0.2880
  182MOL    Cl322085   1.982   7.986   2.490 -0.1462  0.0066  0.2991
  182MOL     H422086   1.792   7.791   2.478 -1.9191 -0.9432  0.5623
  182MOL     H522087   1.648   7.850   2.559 -0.0491  2.1315  0.2553
  182MOL     H622088   1.804   8.043   2.633 -0.4698  0.4386 -1.0886
  182MOL     H722089   1.717   7.944   2.428 -0.2473 -0.3361 -1.0807
  182MOL     C822090   1.887   7.851   2.714 -0.4305 -0.0227 -0.0345
  182MOL     C922091   2.007   7.901   2.799 -0.0162 -0.4376  0.6150
  182MOL   Cl1022092   2.063   7.777   2.918 -0.0095 -0.2307  0.0491
  182MOL    H1122093   1.921   7.753   2.681  0.2709 -0.0346  0.7180
  182MOL    H1222094   1.798   7.840   2.776 -0.2125  0.3341  0.3478
  182MOL    H1322095   2.095   7.916   2.735  1.0390  0.9911  2.3389
  182MOL    C1422096   1.989   8.031   2.883  0.0814  0.2860 -0.6313
  182MOL    C1522097   1.868   8.026   2.984 -0.4694  0.4732 -0.5060
  182MOL   Cl1622098   1.720   8.104   2.923  0.1396  0.1458 -0.1281
  182MOL    H1722099   1.976   8.118   2.818  2.9259 -0.8564 -2.8467
  182MOL    H1822100   2.091   8.040   2.921 -0.3881 -2.7986  1.5452
  182MOL    H1922101   1.842   7.923   3.011 -0.5965  0.2288 -1.5359
  182MOL    C2022102   1.905   8.104   3.122 -0.2145  0.4628 -0.0934
  182MOL    C2122103   2.030   8.043   3.204  0.0419 -0.7163 -0.6824
  182MOL   Cl2222104   1.997   7.879   3.249  0.0621  0.1911  0.5066
  182MOL    H2322105   1.825   8.110   3.196  0.9140 -0.1864  1.2061
  182MOL    H2422106   1.925   8.203   3.082  0.2376 -0.1784 -1.4947
  182MOL    H2522107   2.113   8.021   3.137 -0.7077 -0.3290 -1.7500
  182MOL    C2622108   2.062   8.126   3.329  0.0003 -0.5538 -0.3593
  182MOL    C2722109   2.137   8.255   3.288 -0.2569  0.1540 -0.0300
  182MOL   Cl2822110   2.311   8.216   3.284 -0.4437  0.0016 -0.4048
  182MOL    H2922111   2.129   8.065   3.389  0.2397 -0.4702 -0.5353
  182MOL    H3022112   1.965   8.149   3.372 -1.5652  0.6672 -4.2934
  182MOL    H3122113   2.115   8.290   3.187 -0.8801 -0.5481 -0.1466
  182MOL    C3222114   2.110   8.362   3.384 -0.6694 -0.4734 -1.4107
  182MOL    C3322115   2.091   8.512   3.337 -0.2816 -0.8136 -0.6956
  182MOL   Cl3422116   1.970   8.515   3.200 -0.0439 -0.5396 -0.1310
  182MOL    H3522117   2.185   8.361   3.463 -1.5063 -1.7392 -0.6062
  182MOL    H3622118   2.012   8.350   3.431 -0.3269 -2.3890 -1.1852
  182MOL    H3722119   2.045   0.050   3.413  0.5728 -1.7020  0.6004
  182MOL    C3822120   2.223   0.058   3.298  0.7158 -0.3379  0.2646
  182MOL    C3922121   2.331   0.058   3.400 -0.2171 -0.5303 -0.1794
  182MOL   Cl4022122   2.269   0.132   3.551  0.2682 -0.4737 -0.1419
  182MOL    H4122123   2.193   0.160   3.271 -1.0032 -0.8814  0.0945
  182MOL    H4222124   2.268   0.016   3.208  1.8847 -0.8712  1.0813
  182MOL    H4322125   2.357   8.481   3.428 -1.4317 -1.0580 -0.9256
  182MOL    C4422126   2.451   0.146   3.361  0.5038 -0.4114  0.7279
  182MOL    C4522127   2.534   0.093   3.238 -0.6414 -0.0720  0.2215
  182MOL   Cl4622128   2.622   8.465   3.297  0.4579 -0.0971  0.0556
  182MOL    H4722129   2.505   0.161   3.454 -2.4101  0.8200  2.2834
  182MOL    H4822130   2.415   0.246   3.339  0.4498  0.0373  2.7812
  182MOL    H4922131   2.484   0.076   3.143  1.4966 -0.0035 -0.9251
  182MOL    C5022132   2.642   0.203   3.199  0.3953 -0.5735  0.0732
  182MOL    C5122133   2.702   0.189   3.056 -0.1947 -0.7253  0.3058
  182MOL   Cl5222134   2.578   0.201   2.928 -0.5437 -0.5101 -0.0509
  182MOL    H5322135   2.718   0.192   3.277  0.5281 -1.5456 -0.1771
  182MOL    H5422136   2.605   0.305   3.209 -1.2993 -1.1422 -0.2113
  182MOL    H5522137   2.757   0.283   3.046 -1.8393  0.5738  3.0837
  182MOL    C5622138   2.787   0.061   3.027 -0.1007  0.5483  0.1160
  182MOL    C5722139   2.935   0.045   3.079 -0.2928 -0.1496 -0.3824
  182MOL   Cl5822140   3.042   0.179   3.044  0.3194 -0.3141  0.4435
  182MOL    H5922141   2.784   0.040   2.920  0.4425 -1.0494  0.3957
  182MOL    H6022142   2.729   8.500   3.060 -0.0341  1.0012  1.4063
  182MOL    H6122143   2.940   0.053   3.187 -0.2406  0.8606 -0.4576
  182MOL    C6222144   2.993   8.434   3.034 -0.3072  0.5162  0.1148
  182MOL    C6322145   3.089   8.365   3.127  0.0346 -0.0448 -0.5564
  182MOL   Cl6422146   3.178   8.230   3.044  0.1576  0.1956  0.0775
  182MOL    H6522147   3.037   8.451   2.935  0.3427  0.1024  0.3363
  182MOL    H6622148   2.904   8.372   3.023  0.6969 -1.2417  1.8262
  182MOL    H6722149   3.160   8.440   3.162  2.0614 -2.7369  1.3472
  182MOL    C6822150   3.002   8.306   3.246  0.2136 -0.1808  0.2696
  182MOL    C6922151   3.063   8.206   3.335  0.2031 -0.1553 -0.0388
  182MOL   Cl7022152   2.964   8.167   3.484 -0.1577 -0.0174 -0.0432
  182MOL    H7122153   2.911   8.255   3.215 -0.4110 -0.4353  2.4506
  182MOL    H7222154   2.961   8.391   3.300  0.5368  0.1788 -0.0435
  182MOL    H7322155   3.067   8.116   3.272  0.6616  0.3943 -0.8072
  182MOL    C7422156   3.205   8.249   3.384 -0.2365  0.0627  0.3383
  182MOL    C7522157   3.289   8.138   3.458  0.2509 -0.1371  0.4647
  182MOL   Cl7622158   3.432   8.214   3.538 -0.1368  0.3374  0.1052
  182MOL    H7722159   3.184   8.338   3.443 -0.6380  1.3047 -1.6365
  182MOL    H7822160   3.272   8.282   3.304 -0.4680 -0.4744 -0.0782
  182MOL    H7922161   3.226   8.094   3.535 -0.0016  0.2740  0.4966
  182MOL    C8022162   3.349   8.027   3.366  0.4247 -0.0110 -0.0336
  182MOL    C8122163   3.450   7.933   3.434 -0.2405  0.0031 -0.0675
  182MOL   Cl8222164   3.508   7.810   3.326  0.0723 -0.1173  0.6035
  182MOL    H8322165   3.396   8.073   3.279  1.2763 -1.1506 -0.1850
  182MOL    H8422166   3.267   7.971   3.320 -0.2800  3.4339 -3.2400
  182MOL    H8522167   3.542   7.984   3.462 -0.9145  0.1305  2.0659
  182MOL    C8622168   3.399   7.860   3.567 -0.0396 -0.8114  0.2589
  182MOL    C8722169   3.285   7.772   3.537 -1.0750 -0.4030  0.2056
  182MOL   Cl8822170   3.125   7.854   3.538 -0.1318 -0.0206  0.0562
  182MOL    H8922171   3.371   7.926   3.648  0.2912  0.1008 -0.3644
  182MOL    H9022172   3.490   7.818   3.610  0.5074 -0.8511 -0.9171
  182MOL    H9122173   3.308   7.731   3.438  0.8833 -3.1349  1.7242
  182MOL    C9222174   3.279   7.645   3.624 -0.0822  0.1524 -0.0126
  182MOL    C9322175   3.405   7.542   3.622 -0.3868 -0.2815  0.3966
  182MOL   Cl9422176   3.424   7.466   3.464  0.2282  0.4753 -0.2323
  182MOL    H9522177   3.185   7.593   3.606 -0.3142  0.1019  1.3064
  182MOL    H9622178   3.267   7.681   3.726  0.5334  1.6132 -0.4452
  182MOL    H9722179   3.500   7.583   3.655 -0.4506 -0.6734  1.0869
  182MOL    C9822180   3.368   7.410   3.703 -0.1364  0.1922 -0.4705
  182MOL    C9922181   3.333   7.435   3.852 -0.0635 -0.1917  0.2915
  182MOL  Cl10022182   3.476   7.502   3.929  0.1967 -0.1056 -0.4861
  182MOL   H10122183   3.449   7.338   3.693 -0.4462 -0.0306 -1.3680
  182MOL   H10222184   3.281   7.358   3.663  0.2058 -0.3785 -0.4702
  182MOL   H10322185   3.251   7.506   3.864  0.1754  0.2089 -0.4186
  182MOL   C10422186   3.285   7.315   3.930 -0.7110  0.4214  0.4454
  182MOL   C10522187   3.154   7.241   3.885 -0.6832  0.3965 -0.0882
  182MOL  Cl10622188   3.019   7.347   3.894 -0.0090 -0.2138  0.4966
  182MOL   H10722189   3.278   7.330   4.037 -3.0959 -0.9691  0.5163
  182MOL   H10822190   3.362   7.237   3.920  1.8339  2.8174  0.6652
  182MOL   H10922191   3.158   7.207   3.782 -2.3610  1.0471 -0.3822
  182MOL   C11022192   3.117   7.116   3.967 -0.0081 -0.6418  0.6095
  182MOL   C11122193   3.192   6.993   3.913 -0.0472  0.7808  0.1322
  182MOL  Cl11222194   3.123   6.946   3.767 -0.3173 -0.1678 -0.0967
  182MOL   H11322195   3.010   7.096   3.961 -0.2741 -0.1266  3.0856
  182MOL   H11422196   3.142   7.124   4.073  0.3417 -0.9212  0.5465
  182MOL   H11522197   3.296   7.024   3.898 -0.0925  0.2986 -1.3138
  182MOL   C11622198   3.169   6.875   4.003 -0.7594 -0.0688  0.1021
  182MOL   C11722199   3.263   6.759   3.991  0.0473  0.2997 -0.1202
  182MOL  Cl11822200   3.192   6.614   4.053 -0.0136 -0.1955 -0.0264
  182MOL   H11922201   3.070   6.833   3.984 -0.6527 -0.4091  0.2808
  182MOL   H12022202   3.175   6.889   4.111  0.3645  0.5305 -0.0336
  182MOL   H12122203   3.288   6.748   3.885 -0.7178  1.0489 -0.3757
  182MOL   H12222204   3.359   6.770   4.042 -1.0306 -0.3790  2.1193
  183MOL     C122205   7.514   4.094   7.419  0.2494 -0.3049 -0.4347
  183MOL     C222206   7.437   3.964   7.401 -0.7154  0.0355  0.2413
  183MOL    Cl322207   7.275   4.015   7.361 -0.6382  0.2648  0.0643
  183MOL     H422208   7.487   4.140   7.514  0.9905  1.2981 -0.9884
  183MOL     H522209   7.622   4.077   7.421  0.4698  0.9368 -1.5494
  183MOL     H622210   7.464   3.905   7.314 -0.2651  0.1015  0.3383
  183MOL     H722211   7.485   4.163   7.340  0.9125  1.9179  1.2147
  183MOL     C822212   7.436   3.879   7.532 -0.1237 -0.0806  0.5001
  183MOL     C922213   7.578   3.851   7.588  0.2542 -0.2798 -1.4393
  183MOL   Cl1022214   7.672   3.759   7.472  0.0742 -0.4530  0.0913
  183MOL    H1122215   7.390   3.782   7.517  1.6833 -1.0230  0.8718
  183MOL    H1222216   7.378   3.928   7.610  0.3774 -0.3031  1.0157
  183MOL    H1322217   7.633   3.941   7.617  0.3489 -0.6850 -0.3572
  183MOL    C1422218   7.562   3.770   7.724  0.0265 -0.0490 -0.1583
  183MOL    C1522219   7.536   3.865   7.848  0.9370  0.2365 -0.3098
  183MOL   Cl1622220   7.674   3.968   7.872 -0.0901 -0.1174  0.1698
  183MOL    H1722221   7.654   3.715   7.743  0.3689  0.2316 -0.9772
  183MOL    H1822222   7.477   3.702   7.721  0.3705 -0.6182  2.2108
  183MOL    H1922223   7.451   3.923   7.814  1.7050  0.4766 -1.8324
  183MOL    C2022224   7.493   3.779   7.969 -0.0773  0.4631  0.0981
  183MOL    C2122225   7.398   3.851   8.067  0.1066  0.0784 -0.0593
  183MOL   Cl2222226   7.500   3.945   8.185 -0.1742  0.2844 -0.3044
  183MOL    H2322227   7.584   3.740   8.015 -0.0265  0.6145  0.1281
  183MOL    H2422228   7.451   3.690   7.922  1.5772  0.3006 -1.1452
  183MOL    H2522229   7.338   3.923   8.011  0.0013 -0.6039 -0.8368
  183MOL    C2622230   7.319   3.748   8.142 -0.0462  0.1843  0.2423
  183MOL    C2722231   7.211   3.806   8.228 -0.4417 -0.0907 -0.4840
  183MOL   Cl2822232   7.139   3.677   8.338  0.1561  0.1649 -0.1633
  183MOL    H2922233   7.384   3.691   8.208  1.8415  1.6938 -0.2581
  183MOL    H3022234   7.279   3.675   8.071 -0.9622  0.9149 -0.0143
  183MOL    H3122235   7.260   3.885   8.285 -1.9088 -0.8567  1.9571
  183MOL    C3222236   7.100   3.865   8.138  0.4657  0.6342 -0.3180
  183MOL    C3322237   6.977   3.927   8.204 -0.2311  0.0228  0.3099
  183MOL   Cl3422238   6.873   4.007   8.078 -0.3842  0.2592  0.3105
  183MOL    H3522239   7.061   3.787   8.073 -0.7727 -0.5368  1.7746
  183MOL    H3622240   7.141   3.934   8.065  0.7991 -0.4270 -1.1497
  183MOL    H3722241   6.922   3.840   8.240  0.6381 -0.6357  0.0638
  183MOL    C3822242   6.996   4.024   8.320  0.5498  0.4572 -0.4060
  183MOL    C3922243   7.064   4.151   8.282 -0.1009  0.1811  1.0311
  183MOL   Cl4022244   7.230   4.151   8.340  0.0332 -0.2638  0.0673
  183MOL    H4122245   7.062   3.971   8.389  0.0755 -1.6969 -1.5520
  183MOL    H4222246   6.901   4.048   8.368  0.7846  1.7565 -0.5725
  183MOL    H4322247   7.067   4.157   8.173  1.4667  1.9638  1.1574
  183MOL    C4422248   6.990   4.279   8.328 -0.5809  0.0190  0.0832
  183MOL    C4522249   6.853   4.316   8.256  0.0323  0.7283  0.5373
  183MOL   Cl4622250   6.901   4.327   8.091 -0.0310 -0.3731 -0.3028
  183MOL    H4722251   7.060   4.362   8.321 -0.1337 -0.2160  1.6415
  183MOL    H4822252   6.984   4.265   8.436  0.2308 -1.4613 -0.0400
  183MOL    H4922253   6.790   4.228   8.268 -0.9226  1.3990  0.4986
  183MOL    C5022254   6.788   4.444   8.297 -0.5160 -0.0320  0.2453
  183MOL    C5122255   6.635   4.454   8.281  0.3433 -0.4283 -0.0517
  183MOL   Cl5222256   6.555   4.317   8.360  0.1382 -0.0126 -0.2976
  183MOL    H5322257   6.822   4.529   8.237 -1.5581  1.4817  1.7647
  183MOL    H5422258   6.820   4.457   8.400  1.7613 -0.2946 -0.3990
  183MOL    H5522259   6.606   4.540   8.341  1.4078 -0.2629  0.2184
  183MOL    C5622260   6.575   4.467   8.141  0.1103 -0.2491 -0.9378
  183MOL    C5722261   6.606   4.600   8.068 -0.1418  0.5604  0.6795
  183MOL   Cl5822262   6.529   4.734   8.154 -0.0467 -0.1492  0.0080
  183MOL    H5922263   6.466   4.464   8.152  0.0643  1.4121 -0.7182
  183MOL    H6022264   6.616   4.382   8.088  0.1174  0.8446 -2.7317
  183MOL    H6122265   6.711   4.625   8.082  0.6282 -1.9733 -0.0987
  183MOL    C6222266   6.566   4.600   7.914  0.1162  0.6745 -0.0706
  183MOL    C6322267   6.662   4.514   7.829 -0.1352 -0.3426  0.0578
  183MOL   Cl6422268   6.830   4.578   7.826  0.4017  0.4125  0.3269
  183MOL    H6522269   6.579   4.703   7.882 -0.9762  1.0055  0.5529
  183MOL    H6622270   6.461   4.577   7.894  0.9122 -0.0225 -3.8718
  183MOL    H6722271   6.678   4.415   7.873  1.5868 -0.0572  0.0990
  183MOL    C6822272   6.610   4.503   7.683  0.7522 -0.3535  0.1044
  183MOL    C6922273   6.684   4.398   7.594 -1.3296 -1.2549 -0.3808
  183MOL   Cl7022274   6.616   4.408   7.430 -0.2442 -0.5859  0.0981
  183MOL    H7122275   6.614   4.599   7.631  2.9967 -0.1259  0.6539
  183MOL    H7222276   6.506   4.469   7.682  0.8085 -0.5788 -2.9804
  183MOL    H7322277   6.790   4.419   7.582 -1.0249 -2.7641 -0.3982
  183MOL    C7422278   6.654   4.256   7.637 -0.0352 -0.3051 -0.4984
  183MOL    C7522279   6.708   4.137   7.555  0.7525 -0.5703  0.3015
  183MOL   Cl7622280   6.612   3.991   7.597  0.0197 -0.2072 -0.1947
  183MOL    H7722281   6.546   4.241   7.639 -0.3318  1.8810  0.6372
  183MOL    H7822282   6.693   4.256   7.738 -0.3070  0.2003 -0.3930
  183MOL    H7922283   6.684   4.153   7.450 -1.1536  2.5401  1.1392
  183MOL    C8022284   6.855   4.113   7.581 -0.2805 -0.5855  0.4862
  183MOL    C8122285   6.885   4.063   7.719  0.4394  0.1731 -0.1865
  183MOL   Cl8222286   6.927   4.195   7.827  0.2703 -0.2231 -0.5404
  183MOL    H8322287   6.917   4.201   7.564  1.1129 -1.1734  2.4042
  183MOL    H8422288   6.895   4.044   7.507  2.8801  1.7236 -0.0661
  183MOL    H8522289   6.801   4.004   7.755  2.3178 -1.1090  2.2685
  183MOL    C8622290   7.012   3.978   7.724 -0.0098 -0.3254  0.0715
  183MOL    C8722291   6.984   3.822   7.735  0.4943  0.0757  0.5208
  183MOL   Cl8822292   7.135   3.748   7.792 -0.2527 -0.1780  0.0239
  183MOL    H8922293   7.077   4.008   7.807 -1.2803 -0.4502  1.1401
  183MOL    H9022294   7.071   4.000   7.635  1.0103 -0.7233  0.6441
  183MOL    H9122295   6.905   3.797   7.806 -1.7649 -0.0318 -1.9100
  183MOL    C9222296   6.934   3.760   7.605 -0.5928  0.6011  0.0974
  183MOL    C9322297   6.872   3.619   7.620  0.5249 -0.0511  0.0272
  183MOL   Cl9422298   6.876   3.536   7.462 -0.4987 -0.2384  0.0141
  183MOL    H9522299   7.016   3.761   7.533  1.4025 -0.8951  2.2767
  183MOL    H9622300   6.851   3.815   7.560  0.2157  2.2540  0.6273
  183MOL    H9722301   6.929   3.561   7.692  0.6505  0.1729  0.1069
  183MOL    C9822302   6.722   3.619   7.666 -0.4683  0.0008 -0.2048
  183MOL    C9922303   6.654   3.483   7.699  0.4503  0.0106 -0.6997
  183MOL  Cl10022304   6.582   3.411   7.555 -0.0016 -0.3664  0.0711
  183MOL   H10122305   6.658   3.659   7.587 -0.7187  1.7477  0.8625
  183MOL   H10222306   6.707   3.681   7.754  2.8869  1.3681 -0.5477
  183MOL   H10322307   6.723   3.411   7.742  0.1011 -0.6743 -1.2855
  183MOL   C10422308   6.541   3.503   7.806  0.5928 -0.2463  0.6252
  183MOL   C10522309   6.460   3.382   7.864  0.8012 -0.1979 -0.6241
  183MOL  Cl10622310   6.314   3.447   7.943 -0.1470 -0.1845 -0.1476
  183MOL   H10722311   6.476   3.572   7.752  0.5172 -0.6650  0.1744
  183MOL   H10822312   6.564   3.563   7.894 -2.1932 -0.3570  1.4865
  183MOL   H10922313   6.427   3.325   7.777 -0.6603 -0.0015 -0.2217
  183MOL   C11022314   6.540   3.301   7.965  0.8261  0.4294 -0.3470
  183MOL   C11122315   6.461   3.188   8.047  0.0463  0.5216  0.5759
  183MOL  Cl11222316   6.566   3.122   8.179 -0.3540  0.1203 -0.1910
  183MOL   H11322317   6.571   3.369   8.045 -1.8475 -0.0020  1.1139
  183MOL   H11422318   6.626   3.250   7.920  0.3741  0.0848 -0.8238
  183MOL   H11522319   6.368   3.223   8.091  0.5334 -0.0291  2.1056
  183MOL   C11622320   6.425   3.057   7.961 -0.3017  0.0191  0.5572
  183MOL   C11722321   6.330   2.946   8.016  0.2405 -0.1931  0.5082
  183MOL  Cl11822322   6.292   2.833   7.880  0.0356 -0.2325  0.3311
  183MOL   H11922323   6.521   3.018   7.928  0.6039  1.0982  1.8813
  183MOL   H12022324   6.389   3.093   7.864 -1.2923  0.2075  0.9927
  183MOL   H12122325   6.382   2.890   8.094 -2.1072 -0.9325  1.6004
  183MOL   H12222326   6.234   2.984   8.051 -0.8810 -2.4573 -0.0128
  184MOL     C122327   7.802   8.052   7.806  0.1082 -0.1399 -0.0542
  184MOL     C222328   7.792   8.037   7.651 -0.3538  0.9635 -0.3470
  184MOL    Cl322329   7.950   8.063   7.593  0.4294  0.0901 -0.4373
  184MOL     H422330   7.867   7.974   7.844 -3.3356 -2.9730  0.3183
  184MOL     H522331   7.849   8.147   7.831  0.5343  0.5470 -3.2853
  184MOL     H622332   7.754   7.939   7.619 -0.1880  1.7716 -3.2237
  184MOL     H722333   7.703   8.042   7.852  0.5982  0.8335  1.2755
  184MOL     C822334   7.705   8.143   7.580 -0.3131 -0.8601  0.7870
  184MOL     C922335   7.719   8.143   7.426  0.1376 -0.3369  0.0554
  184MOL   Cl1022336   7.621   8.288   7.377 -0.0091 -0.1557 -0.0174
  184MOL    H1122337   7.741   8.240   7.615 -1.8141 -0.3327  0.8935
  184MOL    H1222338   7.607   8.135   7.627 -0.0987 -0.2710  1.3404
  184MOL    H1322339   7.823   8.159   7.398 -0.8725  1.1663 -3.0229
  184MOL    C1422340   7.655   8.022   7.345 -0.2081 -0.1754 -0.6486
  184MOL    C1522341   7.703   8.013   7.198 -0.2033 -0.5014 -0.1993
  184MOL   Cl1622342   7.592   7.910   7.110 -0.2291 -0.3164  0.3125
  184MOL    H1722343   7.547   8.033   7.350 -0.0901  0.1144  1.7053
  184MOL    H1822344   7.674   7.923   7.389  1.7663  0.5019  0.0775
  184MOL    H1922345   7.702   8.113   7.153  1.7420 -0.2730  0.1972
  184MOL    C2022346   7.849   7.958   7.177 -0.3058 -0.2456  0.8236
  184MOL    C2122347   7.894   7.967   7.026 -0.0156 -0.5753 -0.3655
  184MOL   Cl2222348   8.030   7.859   7.029 -0.3247 -0.1282  0.0653
  184MOL    H2322349   7.866   7.855   7.210 -2.1982 -0.9720 -0.3436
  184MOL    H2422350   7.919   8.019   7.233 -0.6187  1.5065 -0.6455
  184MOL    H2522351   7.826   7.915   6.958  0.0990 -1.1866 -0.0242
  184MOL    C2622352   7.948   8.102   6.969 -0.2525  0.4183 -0.1475
  184MOL    C2722353   7.968   8.107   6.818 -0.3818  0.2433 -0.8271
  184MOL   Cl2822354   8.073   8.242   6.759 -0.0377  0.3359  0.1285
  184MOL    H2922355   8.038   8.129   7.025 -2.8197  1.6327  3.5351
  184MOL    H3022356   7.892   8.190   6.999 -0.2948 -0.1558  1.4838
  184MOL    H3122357   8.023   8.015   6.798 -1.3688 -0.9072  1.5890
  184MOL    C3222358   7.840   8.117   6.730 -0.3496  0.8243 -0.1423
  184MOL    C3322359   7.747   8.236   6.749 -0.3817 -0.5917  0.5437
  184MOL   Cl3422360   7.658   8.209   6.902 -0.0066 -0.2381  0.0613
  184MOL    H3522361   7.783   8.027   6.752 -1.7289  2.1975  2.1379
  184MOL    H3622362   7.870   8.121   6.626 -0.2061  1.0470 -0.0933
  184MOL    H3722363   7.810   8.322   6.774 -0.9988 -0.4606  1.6666
  184MOL    C3822364   7.654   8.261   6.621  0.8333  0.2296  0.8398
  184MOL    C3922365   7.581   8.399   6.620  0.2265  0.0394  0.3152
  184MOL   Cl4022366   7.445   8.383   6.742 -0.5280 -0.2566 -0.3738
  184MOL    H4122367   7.588   8.174   6.612  2.1895 -0.5905 -2.0600
  184MOL    H4222368   7.717   8.260   6.532  2.4183  0.6966  1.9376
  184MOL    H4322369   7.652   8.472   6.658  0.1894 -0.2993  1.0491
  184MOL    C4422370   7.531   8.435   6.476 -0.5898  0.5233  0.4400
  184MOL    C4522371   7.633   8.484   6.373  0.2907 -0.8680  0.3179
  184MOL   Cl4622372   7.683   0.119   6.425 -0.0545 -0.0386  0.1843
  184MOL    H4722373   7.443   8.500   6.473 -0.9252  0.0254 -1.2859
  184MOL    H4822374   7.484   8.347   6.432 -0.5175  0.1817  1.0506
  184MOL    H4922375   7.719   8.416   6.376 -0.2262 -1.5576 -0.3352
  184MOL    C5022376   7.576   8.503   6.232  0.3725  0.2408  0.3369
  184MOL    C5122377   7.566   8.379   6.147  0.3131  0.0591 -0.3283
  184MOL   Cl5222378   7.726   8.343   6.079  0.3729  0.3099 -0.0951
  184MOL    H5322379   7.629   0.049   6.168 -0.7867  0.5295 -0.3278
  184MOL    H5422380   7.479   0.027   6.241 -0.3182 -1.5132  2.7419
  184MOL    H5522381   7.532   8.300   6.213 -2.0641  0.2129 -1.3294
  184MOL    C5622382   7.465   8.382   6.029 -0.0683 -0.2216 -0.4955
  184MOL    C5722383   7.396   8.241   6.005  0.4713 -1.1041 -0.1220
  184MOL   Cl5822384   7.514   8.125   5.949 -0.2268  0.1961  0.3010
  184MOL    H5922385   7.504   8.422   5.936  3.1655 -0.0090  0.9126
  184MOL    H6022386   7.382   8.445   6.063 -0.8829 -0.9346 -1.1295
  184MOL    H6122387   7.355   8.199   6.096 -1.9464  0.4848 -0.4360
  184MOL    C6222388   7.290   8.244   5.887  0.1290 -0.5647  0.4335
  184MOL    C6322389   7.156   8.314   5.922  0.6666 -0.2953 -0.2795
  184MOL   Cl6422390   7.087   8.222   6.059 -0.0979 -0.1598  0.3101
  184MOL    H6522391   7.266   8.143   5.855  0.5476 -0.7774  0.7884
  184MOL    H6622392   7.333   8.289   5.797 -1.3525 -1.3713 -0.6989
  184MOL    H6722393   7.179   8.411   5.965 -1.8679 -0.6895  2.1921
  184MOL    C6822394   7.062   8.318   5.803 -0.5986  0.2763  0.3707
  184MOL    C6922395   6.921   8.386   5.811 -0.2957  0.3863  0.1733
  184MOL   Cl7022396   6.936   0.040   5.847  0.5020 -0.0278 -0.0859
  184MOL    H7122397   7.043   8.221   5.755 -0.0652  1.0799 -1.5353
  184MOL    H7222398   7.118   8.366   5.722 -1.1368 -1.7817 -1.2741
  184MOL    H7322399   6.881   8.385   5.709  0.3436 -0.5078 -0.0781
  184MOL    C7422400   6.826   8.328   5.923 -0.1314 -0.3073 -0.1796
  184MOL    C7522401   6.775   8.188   5.886 -0.8452  0.6106  1.1165
  184MOL   Cl7622402   6.668   8.207   5.740 -0.2054 -0.1401  0.2210
  184MOL    H7722403   6.746   8.402   5.931  0.2573  0.0754  0.1252
  184MOL    H7822404   6.874   8.342   6.020  0.5279 -2.4421 -0.1735
  184MOL    H7922405   6.851   8.118   5.852 -1.3709  1.1541 -1.2507
  184MOL    C8022406   6.683   8.134   5.993  0.0626 -0.6419 -0.5185
  184MOL    C8122407   6.751   8.079   6.110 -0.1128 -0.0655 -0.1475
  184MOL   Cl8222408   6.808   7.917   6.067 -0.0385 -0.2850  0.0963
  184MOL    H8322409   6.631   8.049   5.949 -2.5672  1.2991 -1.2901
  184MOL    H8422410   6.608   8.208   6.020  0.8510  0.3174 -0.9015
  184MOL    H8522411   6.839   8.139   6.131  0.6158 -1.6860  1.5723
  184MOL    C8622412   6.665   8.070   6.241 -0.0839 -0.4469 -0.2954
  184MOL    C8722413   6.711   8.172   6.346  0.4849  0.5712 -0.3344
  184MOL   Cl8822414   6.587   8.161   6.474 -0.4075 -0.0019  0.3304
  184MOL    H8922415   6.686   7.974   6.288 -0.3710  0.0787  0.9085
  184MOL    H9022416   6.565   8.074   6.199 -0.9546  0.7223  1.8429
  184MOL    H9122417   6.809   8.142   6.383 -0.0403 -0.1555  0.4806
  184MOL    C9222418   6.725   8.316   6.307 -0.2918 -0.1325 -0.2041
  184MOL    C9322419   6.783   8.411   6.409  0.0467  0.5000  0.3141
  184MOL   Cl9422420   6.749   0.047   6.339  0.0591  0.0436  0.4025
  184MOL    H9522421   6.624   8.354   6.289  0.4228  1.0104 -1.9736
  184MOL    H9622422   6.797   8.325   6.225  1.9222 -2.4378  1.4259
  184MOL    H9722423   6.731   8.408   6.504 -1.1853 -1.2147 -0.3988
  184MOL    C9822424   6.943   8.397   6.407 -0.5297 -0.0446 -0.5964
  184MOL    C9922425   7.011   8.496   6.507  0.0962  0.3593 -0.0483
  184MOL  Cl10022426   7.187   8.473   6.495  0.2345  0.2466  0.1083
  184MOL   H10122427   6.980   8.421   6.307 -2.4795  2.2628 -0.8206
  184MOL   H10222428   6.974   8.295   6.428  1.8109  1.1047  1.8613
  184MOL   H10322429   6.997   0.074   6.475 -1.6446  0.2358  0.2553
  184MOL   C10422430   6.965   8.472   6.658  0.2697 -0.6036 -0.5226
  184MOL   C10522431   6.993   0.066   6.749  0.1416 -0.2137 -0.6421
  184MOL  Cl10622432   7.022   0.015   6.919  0.2721  0.0663  0.1690
  184MOL   H10722433   7.022   8.388   6.698  0.7531  0.5025  1.1036
  184MOL   H10822434   6.862   8.437   6.664  0.4376 -1.0044  0.0666
  184MOL   H10922435   7.083   0.120   6.721  0.4583 -1.6295 -2.4607
  184MOL   C11022436   6.874   0.163   6.740  0.4591 -0.4681 -0.1656
  184MOL   C11122437   6.884   0.280   6.848  0.4630  0.2504 -0.4928
  184MOL  Cl11222438   6.720   0.357   6.848 -0.1202 -0.4020  0.5350
  184MOL   H11322439   6.782   0.105   6.748 -0.3456  0.7594 -0.3060
  184MOL   H11422440   6.878   0.206   6.640 -0.5932 -0.0729 -0.0476
  184MOL   H11522441   6.887   0.244   6.951  0.8655  0.7029 -0.3466
  184MOL   C11622442   7.001   0.382   6.835  0.4950 -0.1506  0.2675
  184MOL   C11722443   7.024   0.469   6.968 -0.0973 -0.4346  1.1563
  184MOL  Cl11822444   6.926   0.621   6.997 -0.0321 -0.2438  0.5225
  184MOL   H11922445   6.988   0.446   6.748  1.9278 -1.8923 -1.2638
  184MOL   H12022446   7.080   0.309   6.821  1.3579  0.8234  0.0206
  184MOL   H12122447   6.995   0.413   7.058 -1.4272 -1.4761  0.1153
  184MOL   H12222448   7.128   0.499   6.977 -0.6096  1.8674 -0.2878
  185MOL     C122449   6.358   2.085   7.500 -0.5251 -0.9040 -0.2468
  185MOL     C222450   6.279   2.122   7.625 -0.0080  0.7829 -0.0702
  185MOL    Cl322451   6.113   2.167   7.571 -0.0658 -0.3504  0.4767
  185MOL     H422452   6.455   2.045   7.528  0.6544  1.9661 -0.0071
  185MOL     H522453   6.304   2.013   7.438 -0.2827 -0.4290 -1.0295
  185MOL     H622454   6.274   2.025   7.675 -1.6453  0.7513 -0.2469
  185MOL     H722455   6.372   2.167   7.429  0.4784 -0.3607  0.5814
  185MOL     C822456   6.342   2.225   7.724  0.4911  0.0665 -0.6500
  185MOL     C922457   6.485   2.187   7.775  0.1845  0.1083 -0.0806
  185MOL   Cl1022458   6.486   2.031   7.868 -0.1177  0.2009 -0.0360
  185MOL    H1122459   6.274   2.232   7.809 -2.2346 -1.0325 -2.6171
  185MOL    H1222460   6.339   2.324   7.679 -3.6422  0.6611  0.7023
  185MOL    H1322461   6.556   2.169   7.695  0.7229 -0.0676  0.4317
  185MOL    C1422462   6.545   2.279   7.877 -0.1660 -0.2933  0.3065
  185MOL    C1522463   6.543   2.434   7.845  0.4623  0.2466  0.2044
  185MOL   Cl1622464   6.634   2.467   7.695 -0.2152  0.0685 -0.1603
  185MOL    H1722465   6.650   2.253   7.890 -0.2385 -0.4212  0.6486
  185MOL    H1822466   6.490   2.279   7.971  1.1045  0.7605  1.0807
  185MOL    H1922467   6.443   2.472   7.825 -0.6053 -1.5656  1.8583
  185MOL    C2022468   6.608   2.521   7.968  0.2204 -0.1382  0.2095
  185MOL    C2122469   6.583   2.671   7.975 -0.0421 -0.3961  0.4402
  185MOL   Cl2222470   6.610   2.752   7.818 -0.3244  0.0505 -0.2005
  185MOL    H2322471   6.717   2.511   7.967  0.3854  1.2389  1.8245
  185MOL    H2422472   6.581   2.482   8.066  0.9612  0.0718  0.4986
  185MOL    H2522473   6.477   2.685   7.998  0.4630  2.5967  1.1391
  185MOL    C2622474   6.670   2.745   8.080 -0.2342  0.8227 -0.5482
  185MOL    C2722475   6.660   2.714   8.233  0.0698 -0.0559  0.1004
  185MOL   Cl2822476   6.486   2.716   8.282 -0.1938 -0.1419  0.1054
  185MOL    H2922477   6.638   2.849   8.073  0.7035  1.0461 -1.5924
  185MOL    H3022478   6.774   2.738   8.049 -0.6941  0.4823 -2.0392
  185MOL    H3122479   6.699   2.613   8.252 -2.0410 -1.5303 -2.9803
  185MOL    C3222480   6.737   2.823   8.316  0.0405  0.5793  0.1851
  185MOL    C3322481   6.774   2.791   8.460  0.1016  0.2825 -0.6853
  185MOL   Cl3422482   6.826   2.615   8.475  0.5068 -0.2672 -0.0472
  185MOL    H3522483   6.690   2.921   8.310  1.2586  1.2201  0.8118
  185MOL    H3622484   6.830   2.839   8.262  0.3492 -2.3496 -0.1898
  185MOL    H3722485   6.860   2.855   8.475 -1.4775  1.8600  2.0235
  185MOL    C3822486   6.663   2.820   0.043 -0.6894  0.1354 -0.6717
  185MOL    C3922487   6.651   2.968   0.073  0.5347  0.3198  0.1653
  185MOL   Cl4022488   6.813   3.038   0.120  0.1113 -0.1923  0.4589
  185MOL    H4122489   6.703   2.774   0.133 -1.4748 -1.0586 -0.9176
  185MOL    H4222490   6.570   2.773   0.011 -0.6109 -0.1893 -0.4265
  185MOL    H4322491   6.610   3.024   8.514 -1.3634 -2.2928 -0.7327
  185MOL    C4422492   6.560   2.991   0.196  0.3298 -0.2584  0.0243
  185MOL    C4522493   6.410   2.961   0.165 -0.0434 -0.1597  0.1441
  185MOL   Cl4622494   6.340   3.092   0.070 -0.0986 -0.3453 -0.3317
  185MOL    H4722495   6.567   3.096   0.227 -1.0998  0.1780 -1.1083
  185MOL    H4822496   6.596   2.940   0.286 -1.4732 -0.8763  0.4220
  185MOL    H4922497   6.395   2.877   0.098 -0.2737  1.1511 -1.4889
  185MOL    C5022498   6.316   2.940   0.287  0.8025  0.2129  0.2490
  185MOL    C5122499   6.176   2.867   0.262 -0.5153 -0.1455  0.5988
  185MOL   Cl5222500   6.199   2.719   0.166 -0.1376 -0.0863 -0.4594
  185MOL    H5322501   6.306   3.039   0.332 -1.9898  0.0222  0.1317
  185MOL    H5422502   6.363   2.866   0.350 -1.7396 -0.0009  1.9720
  185MOL    H5522503   6.138   2.830   0.357 -0.9096  2.6448  1.5727
  185MOL    C5622504   6.064   2.952   0.202  0.5394 -0.3298 -0.2546
  185MOL    C5722505   6.003   3.084   0.264  0.0108  0.0027  0.0940
  185MOL   Cl5822506   5.969   3.051   0.433  0.1895  0.1299 -0.4481
  185MOL    H5922507   5.979   2.883   0.203  0.4110 -0.1912 -1.2033
  185MOL    H6022508   6.094   2.971   0.099 -0.5498 -2.2464 -0.9423
  185MOL    H6122509   6.079   3.162   0.255  1.3572 -1.3228 -0.0922
  185MOL    C6222510   5.876   3.124   0.187 -0.4370  0.0871  0.7819
  185MOL    C6322511   5.887   3.143   0.036  0.0100 -0.2791  0.7730
  185MOL   Cl6422512   6.030   3.236   8.513 -0.3840 -0.0076  0.0229
  185MOL    H6522513   5.839   3.215   0.234 -0.7847  0.3623 -0.0021
  185MOL    H6622514   5.793   3.056   0.208 -1.3376  0.7149 -0.6557
  185MOL    H6722515   5.893   3.049   8.507  0.4345  0.3195 -0.2471
  185MOL    C6822516   5.765   3.220   8.501  0.0337  0.6562 -0.2863
  185MOL    C6922517   5.633   3.136   8.488 -0.1593  0.2725 -0.8399
  185MOL   Cl7022518   5.662   3.011   8.371 -0.3945  0.7114 -0.3201
  185MOL    H7122519   5.786   3.246   8.397 -0.0178 -1.2271 -0.7984
  185MOL    H7222520   5.744   3.301   0.045 -0.8508  1.5006 -1.5310
  185MOL    H7322521   5.612   3.094   0.061 -3.1176  1.4888 -0.9202
  185MOL    C7422522   5.505   3.214   8.447  0.1291  0.4361  0.3217
  185MOL    C7522523   5.447   3.309   0.036 -0.6983  1.4771 -0.4823
  185MOL   Cl7622524   5.386   3.197   0.170 -0.0032 -0.3151 -0.8871
  185MOL    H7722525   5.436   3.137   8.412  1.4148 -1.4642  1.8154
  185MOL    H7822526   5.521   3.276   8.359 -0.7052 -1.2899 -1.0751
  185MOL    H7922527   5.534   3.364   0.072 -0.8674  1.3749  0.0720
  185MOL    C8022528   5.338   3.409   8.520  0.2731 -0.3069  0.3266
  185MOL    C8122529   5.303   3.520   0.100  0.0897 -0.3630 -0.0368
  185MOL   Cl8222530   5.140   3.588   0.071 -0.2433  0.2143  0.0814
  185MOL    H8322531   5.248   3.350   8.507  1.0054 -1.5000  0.5809
  185MOL    H8422532   5.364   3.453   8.423  1.0253  2.6485  1.7882
  185MOL    H8522533   5.287   3.460   0.189  2.1183 -0.4152  0.2971
  185MOL    C8622534   5.403   3.636   0.101 -0.0224  0.3945 -0.2513
  185MOL    C8722535   5.499   3.631   0.225  0.8441 -0.3423  0.0960
  185MOL   Cl8822536   5.398   3.638   0.374  0.0773 -0.1410 -0.5814
  185MOL    H8922537   5.357   3.735   0.107 -0.4666  0.1448  0.5414
  185MOL    H9022538   5.463   3.642   0.010  0.3638  1.0574  0.0427
  185MOL    H9122539   5.545   3.532   0.236 -1.0817 -1.4354 -1.3320
  185MOL    C9222540   5.605   3.748   0.226  0.3170 -0.4055  0.2147
  185MOL    C9322541   5.691   3.754   0.359 -0.7828 -0.1037 -0.5247
  185MOL   Cl9422542   5.797   3.895   0.344  0.2586 -0.1710  0.0567
  185MOL    H9522543   5.551   3.842   0.219  0.2981 -0.5427 -2.0380
  185MOL    H9622544   5.670   3.738   0.138 -0.9475 -3.8747 -0.4279
  185MOL    H9722545   5.624   3.778   0.441  0.4203  1.7567 -0.0431
  185MOL    C9822546   5.773   3.628   0.383  0.9059  0.8949  0.0356
  185MOL    C9922547   5.905   3.609   0.304 -0.2887  0.2910  0.6779
  185MOL  Cl10022548   5.859   3.531   0.152 -0.1503 -0.0114  0.1500
  185MOL   H10122549   5.715   3.536   0.380  1.1977  0.7424 -1.1741
  185MOL   H10222550   5.804   3.636   0.487  0.6147  0.7060  0.1378
  185MOL   H10322551   5.956   3.702   0.280 -1.0787  0.0278 -2.2507
  185MOL   C10422552   5.992   3.505   0.377 -0.0073  0.0048  0.5182
  185MOL   C10522553   6.124   3.455   0.315 -0.3163  0.2694 -0.3780
  185MOL  Cl10622554   6.183   3.325   0.415 -0.0390  0.1888 -0.1071
  185MOL   H10722555   5.937   3.412   0.391 -1.4626  0.8600  0.5738
  185MOL   H10822556   6.002   3.537   0.480 -1.7859 -0.8724  0.9875
  185MOL   H10922557   6.105   3.408   0.218  1.4061 -0.9973 -0.1314
  185MOL   C11022558   6.226   3.564   0.285 -0.2684 -1.3331 -0.1808
  185MOL   C11122559   6.362   3.513   0.235 -0.2457 -1.1152  0.6430
  185MOL  Cl11222560   6.470   3.654   0.201  0.4244  0.3415  0.0391
  185MOL   H11322561   6.255   3.615   0.377 -2.0615 -0.3655 -0.1385
  185MOL   H11422562   6.189   3.646   0.224 -0.5251 -0.5110  1.0601
  185MOL   H11522563   6.413   3.446   0.304  1.1712 -1.8124 -1.0428
  185MOL   C11622564   6.352   3.429   0.110  0.0223  0.7630 -0.1733
  185MOL   C11722565   6.294   3.497   8.515 -0.2982 -0.1744 -0.4820
  185MOL  Cl11822566   6.300   3.398   8.366 -0.1246  0.3720 -0.2831
  185MOL   H11922567   6.292   3.338   0.119  0.5943  0.1641 -2.2499
  185MOL   H12022568   6.455   3.405   0.081 -0.2515 -0.2614 -0.3301
  185MOL   H12122569   6.190   3.516   0.016 -0.4183 -0.7067 -0.5540
  185MOL   H12222570   6.350   3.589   8.497 -1.8928  0.8892 -0.0682
  186MOL     C122571   0.477   6.960   0.561  0.6414  0.4528  0.6934
  186MOL     C222572   0.560   7.034   0.663  0.0989  0.3419  0.4396
  186MOL    Cl322573   0.461   7.039   0.812 -0.3560  0.2888  0.2334
  186MOL     H422574   0.468   6.853   0.578 -3.2258  0.5820 -0.1644
  186MOL     H522575   0.381   7.011   0.557  0.2604 -0.3896 -1.3877
  186MOL     H622576   0.648   6.974   0.687  1.1246  1.8511  0.4958
  186MOL     H722577   0.509   6.967   0.457 -1.1884  0.3435  0.1086
  186MOL     C822578   0.603   7.176   0.620  0.3734 -0.1853 -0.3000
  186MOL     C922579   0.733   7.225   0.692  0.3524 -0.2733 -0.3804
  186MOL   Cl1022580   0.715   7.238   0.871 -0.2650 -0.0692 -0.1806
  186MOL    H1122581   0.520   7.239   0.654 -0.9108 -1.3100 -1.2704
  186MOL    H1222582   0.611   7.169   0.511 -1.4629 -2.0183 -0.3519
  186MOL    H1322583   0.808   7.148   0.679  2.1994  1.4275 -0.1458
  186MOL    C1422584   0.792   7.352   0.628  0.2744  0.0898 -0.3628
  186MOL    C1522585   0.931   7.392   0.685  0.7651 -0.1614  0.1768
  186MOL   Cl1622586   0.991   7.539   0.603  0.1679  0.2726  0.3349
  186MOL    H1722587   0.730   7.442   0.629  0.5129  0.2583 -0.5336
  186MOL    H1822588   0.808   7.343   0.520  0.2691  1.3733 -0.4784
  186MOL    H1922589   0.913   7.427   0.787 -2.7915 -2.4095  0.4290
  186MOL    C2022590   1.034   7.274   0.688 -0.1337  0.1453 -0.0915
  186MOL    C2122591   1.178   7.311   0.736 -0.8620  0.3256 -0.6742
  186MOL   Cl2222592   1.291   7.191   0.679  0.0676 -0.1332  0.1368
  186MOL    H2322593   1.043   7.223   0.592 -0.7655  0.9279 -0.5660
  186MOL    H2422594   0.989   7.211   0.765  1.1634  2.4155  2.6454
  186MOL    H2522595   1.210   7.402   0.686  0.8128  0.8565  1.2770
  186MOL    C2622596   1.194   7.329   0.891  0.1733 -0.0589  0.1383
  186MOL    C2722597   1.312   7.408   0.938 -0.7484  0.8654 -0.4876
  186MOL   Cl2822598   1.354   7.359   1.109 -0.1025 -0.1023 -0.1490
  186MOL    H2922599   1.211   7.229   0.930 -0.0082  0.4247  1.4844
  186MOL    H3022600   1.105   7.365   0.941  0.5696 -0.4446  1.1470
  186MOL    H3122601   1.399   7.374   0.882 -0.8776 -0.7811  0.2870
  186MOL    C3222602   1.303   7.564   0.918  0.6503 -0.0459 -0.1395
  186MOL    C3322603   1.417   7.642   0.989 -0.2697 -0.0806 -0.1180
  186MOL   Cl3422604   1.373   7.814   0.986 -0.0685  0.0132 -0.1904
  186MOL    H3522605   1.203   7.593   0.948  1.0532  0.9592  0.2638
  186MOL    H3622606   1.314   7.590   0.813 -0.3456  0.1860 -0.1843
  186MOL    H3722607   1.416   7.613   1.094  0.4526 -3.2463 -0.9183
  186MOL    C3822608   1.558   7.618   0.928  0.4504 -0.4169 -0.0336
  186MOL    C3922609   1.674   7.677   1.015  0.2469 -0.4215  0.1956
  186MOL   Cl4022610   1.818   7.693   0.915  0.1787 -0.0027  0.0441
  186MOL    H4122611   1.557   7.678   0.837  1.1744  2.4683  1.7836
  186MOL    H4222612   1.578   7.513   0.909  1.7218  0.2737 -2.7950
  186MOL    H4322613   1.653   7.779   1.045  1.9246  0.2961 -0.9707
  186MOL    C4422614   1.706   7.581   1.133 -0.2400  0.0307  0.2840
  186MOL    C4522615   1.721   7.655   1.269  0.4840 -0.2597  0.3148
  186MOL   Cl4622616   1.787   7.553   1.389  0.0071 -0.5088  0.0270
  186MOL    H4722617   1.797   7.532   1.096 -1.2612 -0.8011 -1.1999
  186MOL    H4822618   1.631   7.502   1.140 -0.6594  0.3106 -0.8848
  186MOL    H4922619   1.794   7.734   1.253 -1.5386  1.3221 -1.3269
  186MOL    C5022620   1.584   7.706   1.322 -0.1528 -0.1427 -0.8168
  186MOL    C5122621   1.580   7.812   1.432  0.1991  0.2710 -0.0704
  186MOL   Cl5222622   1.471   7.749   1.556 -0.0310 -0.0040 -0.2871
  186MOL    H5322623   1.526   7.620   1.354 -1.2531  0.5600 -0.8888
  186MOL    H5422624   1.524   7.759   1.247 -2.6923  0.8272  1.8076
  186MOL    H5522625   1.677   7.811   1.484  1.2053 -0.0321 -1.9082
  186MOL    C5622626   1.544   7.954   1.403  0.2856 -0.6176 -0.3128
  186MOL    C5722627   1.633   8.029   1.293 -0.3263  0.5735 -0.3209
  186MOL   Cl5822628   1.790   8.062   1.356 -0.0773 -0.4294 -0.3444
  186MOL    H5922629   1.560   8.013   1.493  0.8518  0.7194 -1.2735
  186MOL    H6022630   1.438   7.967   1.379  0.9087  1.3701 -2.1703
  186MOL    H6122631   1.642   7.960   1.208  3.1653 -0.6319  0.9671
  186MOL    C6222632   1.560   8.157   1.257  0.1523 -0.0189  0.1065
  186MOL    C6322633   1.442   8.149   1.157  0.2375  0.3535 -0.2341
  186MOL   Cl6422634   1.507   8.089   0.998  0.3173 -0.2355 -0.3836
  186MOL    H6522635   1.632   8.223   1.208  0.0749  0.4087  0.5607
  186MOL    H6622636   1.541   8.216   1.347 -1.1241  0.0875 -0.2124
  186MOL    H6722637   1.374   8.072   1.192  0.1092  0.8284  0.5670
  186MOL    C6822638   1.360   8.280   1.135  0.0415 -0.2071  0.2643
  186MOL    C6922639   1.277   8.319   1.259 -0.2628 -0.3242 -0.2330
  186MOL   Cl7022640   1.153   8.188   1.291 -0.1072  0.1942 -0.3761
  186MOL    H7122641   1.284   8.264   1.059 -0.9367 -0.4510  1.2799
  186MOL    H7222642   1.433   8.356   1.108 -0.5900  0.0852 -0.6521
  186MOL    H7322643   1.337   8.321   1.350  0.6435 -1.7678 -0.7687
  186MOL    C7422644   1.192   8.444   1.239  0.0396  0.3957 -0.2820
  186MOL    C7522645   1.256   0.060   1.233  0.2651 -0.2109  0.0868
  186MOL   Cl7622646   1.348   0.094   1.385 -0.2970  0.0949  0.1251
  186MOL    H7722647   1.123   8.451   1.322  1.8890  1.8549  1.1895
  186MOL    H7822648   1.142   8.436   1.143 -0.0756  0.6137 -0.2405
  186MOL    H7922649   1.333   0.064   1.156 -0.1760 -0.6505 -0.3761
  186MOL    C8022650   1.154   0.171   1.225  0.0168 -0.2723  0.3353
  186MOL    C8122651   1.068   0.163   1.093 -0.6706 -0.4752  0.0603
  186MOL   Cl8222652   1.182   0.144   0.962  0.2474 -0.2579 -0.1027
  186MOL    H8322653   1.198   0.269   1.247 -0.9029 -0.1236  1.5540
  186MOL    H8422654   1.087   0.163   1.310 -0.6637 -0.3553 -0.2024
  186MOL    H8522655   1.002   0.076   1.089  0.5159 -1.6078  3.5379
  186MOL    C8622656   0.975   0.282   1.071 -0.2291 -0.4228  0.6702
  186MOL    C8722657   0.853   0.297   1.162  0.5864 -0.1185 -0.4287
  186MOL   Cl8822658   0.898   0.331   1.331 -0.1176 -0.0302 -0.4396
  186MOL    H8922659   0.953   0.282   0.965  0.5789 -1.2572  0.4971
  186MOL    H9022660   1.033   0.373   1.086  2.7246 -1.7473 -2.2044
  186MOL    H9122661   0.797   0.388   1.140 -1.5279 -1.2470  0.0947
  186MOL    C9222662   0.756   0.175   1.155  0.1752 -0.1261  0.2070
  186MOL    C9322663   0.717   0.123   1.016  0.3031  0.5499 -0.2459
  186MOL   Cl9422664   0.634   0.246   0.924  0.5215 -0.1847 -0.0798
  186MOL    H9522665   0.666   0.216   1.201 -0.3714 -1.3349  0.2218
  186MOL    H9622666   0.799   0.105   1.226  1.7124  1.1376  0.5673
  186MOL    H9722667   0.799   0.101   0.948  2.6827 -0.4805  2.8234
  186MOL    C9822668   0.624   8.524   1.015 -0.9143  0.3775 -0.3695
  186MOL    C9922669   0.696   8.389   1.025  0.3915 -0.5144 -0.3063
  186MOL  Cl10022670   0.786   8.357   0.871 -0.3028  0.0197 -0.2579
  186MOL   H10122671   0.562   8.518   0.926  1.3643 -0.6787 -1.9120
  186MOL   H10222672   0.558   0.019   1.100 -0.2279 -0.3586  0.3437
  186MOL   H10322673   0.756   8.401   1.115  0.7004 -1.2754 -0.4096
  186MOL   C10422674   0.593   8.280   1.057 -0.4916 -0.7534 -0.2454
  186MOL   C10522675   0.639   8.140   1.008  0.1366  0.3781 -0.5625
  186MOL  Cl10622676   0.524   8.012   1.066  0.0992  0.2242  0.1298
  186MOL   H10722677   0.493   8.297   1.017 -1.3099 -2.6464  0.9382
  186MOL   H10822678   0.573   8.282   1.164 -0.2155 -1.4016 -0.1793
  186MOL   H10922679   0.631   8.131   0.900 -0.9348 -1.4199 -0.3587
  186MOL   C11022680   0.778   8.097   1.063 -0.9237 -0.1929 -0.3243
  186MOL   C11122681   0.831   7.965   1.009  0.7855  0.0822  0.1600
  186MOL  Cl11222682   0.975   7.922   1.099  0.0980 -0.2270 -0.0484
  186MOL   H11322683   0.779   8.102   1.172  1.1454  0.9461 -0.3862
  186MOL   H11422684   0.849   8.174   1.035 -0.4849 -0.4822 -0.0182
  186MOL   H11522685   0.763   7.880   1.019  1.1231 -0.0291  1.6479
  186MOL   C11622686   0.862   7.971   0.861 -0.3126  0.2678  0.1320
  186MOL   C11722687   0.885   7.821   0.797  0.0279  0.1514 -0.2222
  186MOL  Cl11822688   0.739   7.760   0.728  0.0525 -0.0289 -0.0615
  186MOL   H11922689   0.951   8.028   0.832 -1.3449  1.3229 -1.0388
  186MOL   H12022690   0.777   8.016   0.809  0.4993 -1.1335 -2.5094
  186MOL   H12122691   0.952   7.831   0.712 -0.9336 -0.1721 -1.0236
  186MOL   H12222692   0.934   7.747   0.860  0.1908  0.2694 -0.2095
  187MOL     C122693   0.550   4.039   7.097  0.0363 -0.0897 -0.4229
  187MOL     C222694   0.645   4.150   7.147 -0.1418  1.1392  0.4223
  187MOL    Cl322695   0.741   4.202   7.005 -0.2281 -0.1402 -0.4640
  187MOL     H422696   0.455   4.059   7.145  1.2883 -0.4696  2.3209
  187MOL     H522697   0.541   4.040   6.988 -1.8933  0.1198 -0.2682
  187MOL     H622698   0.581   4.235   7.170  1.3185  2.6562 -1.0038
  187MOL     H722699   0.586   3.936   7.107  0.4557 -0.0379 -1.2711
  187MOL     C822700   0.754   4.122   7.263  0.3190  0.3358 -0.4973
  187MOL     C922701   0.854   4.234   7.301  0.5905  0.1488  0.2955
  187MOL   Cl1022702   0.931   4.175   7.448  0.2721  0.0802  0.2296
  187MOL    H1122703   0.820   4.039   7.236 -0.0891  0.3381 -1.5333
  187MOL    H1222704   0.691   4.093   7.348  1.4399  1.6467  0.7978
  187MOL    H1322705   0.934   4.229   7.227 -0.6506  0.1618 -1.0728
  187MOL    C1422706   0.793   4.376   7.317 -0.4960 -0.4145  0.8106
  187MOL    C1522707   0.913   4.482   7.310 -0.1945  0.1870  0.0315
  187MOL   Cl1622708   0.845   4.629   7.379 -0.4546  0.4192 -0.3634
  187MOL    H1722709   0.750   4.389   7.416  0.9857 -0.4036  1.4561
  187MOL    H1822710   0.708   4.401   7.253 -0.9182 -1.4924  0.9470
  187MOL    H1922711   0.995   4.459   7.379 -0.0542  2.0985  0.5235
  187MOL    C2022712   0.961   4.500   7.162 -0.7170 -0.4051 -0.1471
  187MOL    C2122713   1.098   4.574   7.143 -0.0907 -0.1382  0.6285
  187MOL   Cl2222714   1.119   4.603   6.971 -0.4586 -0.3680  0.1502
  187MOL    H2322715   0.884   4.547   7.101  1.1037 -0.4256 -2.5662
  187MOL    H2422716   0.976   4.400   7.120  1.9557 -0.1408  0.0792
  187MOL    H2522717   1.088   4.671   7.192  4.1638  0.6412  0.1631
  187MOL    C2622718   1.214   4.500   7.206  0.2806  0.1624 -0.2777
  187MOL    C2722719   1.351   4.565   7.213 -0.8099  0.4146 -0.5837
  187MOL   Cl2822720   1.474   4.445   7.241  0.1203  0.0291  0.0348
  187MOL    H2922721   1.216   4.409   7.145 -0.2641  1.1305 -1.7643
  187MOL    H3022722   1.184   4.471   7.306 -0.8922 -2.6057 -1.3854
  187MOL    H3122723   1.372   4.624   7.123 -1.3317  1.3012 -0.1229
  187MOL    C3222724   1.348   4.660   7.340 -0.3637 -0.9979  0.3479
  187MOL    C3322725   1.481   4.732   7.368 -0.6878 -0.2061  0.1117
  187MOL   Cl3422726   1.469   4.819   7.528  0.6497  0.1074 -0.1215
  187MOL    H3522727   1.312   4.609   7.429 -0.0686 -0.6068  0.6911
  187MOL    H3622728   1.277   4.741   7.318 -1.8266 -1.4456  3.1516
  187MOL    H3722729   1.555   4.657   7.398 -0.1839  0.8408  1.5871
  187MOL    C3822730   1.543   4.820   7.254  0.0147  0.4756 -0.4101
  187MOL    C3922731   1.461   4.940   7.191  0.0625 -0.4463 -0.1725
  187MOL   Cl4022732   1.332   4.890   7.075  0.2503 -0.0040  0.1624
  187MOL    H4122733   1.579   4.753   7.177 -1.6781 -0.8332 -0.0860
  187MOL    H4222734   1.635   4.852   7.303 -0.3231  3.0601 -1.4004
  187MOL    H4322735   1.406   4.985   7.274 -0.3100 -1.7887  0.3340
  187MOL    C4422736   1.557   5.044   7.128  0.9950  0.6015 -0.4997
  187MOL    C4522737   1.481   5.163   7.064 -0.0545  0.0046  0.6388
  187MOL   Cl4622738   1.598   5.261   6.978  0.2637  0.3532  0.0054
  187MOL    H4722739   1.609   4.993   7.047 -0.7840 -0.4761 -0.9948
  187MOL    H4822740   1.636   5.071   7.199  0.1827 -0.6000  0.8892
  187MOL    H4922741   1.411   5.126   6.989 -0.2144 -2.2240  1.8102
  187MOL    C5022742   1.415   5.261   7.169  0.4289  0.1315  0.6960
  187MOL    C5122743   1.374   5.398   7.132  0.8852 -0.5105 -0.3022
  187MOL   Cl5222744   1.310   5.475   7.278 -0.0563 -0.2507 -0.3455
  187MOL    H5322745   1.483   5.276   7.253  0.1722 -0.9366  1.0947
  187MOL    H5422746   1.337   5.211   7.226  1.0151  0.1801  1.5538
  187MOL    H5522747   1.459   5.456   7.096 -0.5580  0.5663 -1.9935
  187MOL    C5622748   1.269   5.414   7.021 -0.2427 -0.7895  0.4147
  187MOL    C5722749   1.132   5.352   7.049  0.6488 -1.2336 -0.0733
  187MOL   Cl5822750   1.144   5.176   7.008  0.3335 -0.0784 -0.4143
  187MOL    H5922751   1.314   5.370   6.932  1.0955  1.4480 -0.0623
  187MOL    H6022752   1.261   5.519   6.993 -1.5260 -0.8106  0.6465
  187MOL    H6122753   1.095   5.344   7.151  1.6402  1.7954  0.5666
  187MOL    C6222754   1.031   5.419   6.949 -0.1423  0.1113 -0.6283
  187MOL    C6322755   0.941   5.525   7.019  0.2701 -0.3696 -0.0572
  187MOL   Cl6422756   0.809   5.569   6.908 -0.3873 -0.1874  0.0642
  187MOL    H6522757   0.971   5.336   6.913 -0.3106  1.0457 -2.5792
  187MOL    H6622758   1.090   5.454   6.864  1.5384  1.3355  1.0034
  187MOL    H6722759   0.883   5.478   7.098 -2.3021  0.3414 -1.4751
  187MOL    C6822760   1.017   5.655   7.057 -0.2473 -0.1758  0.9641
  187MOL    C6922761   0.932   5.769   7.114 -0.2009  0.1104 -0.0367
  187MOL   Cl7022762   1.012   5.925   7.082  0.2378 -0.3285  0.1333
  187MOL    H7122763   1.087   5.689   6.981 -1.0410  1.5340  0.9772
  187MOL    H7222764   1.081   5.617   7.136  0.7740 -1.9058 -0.6683
  187MOL    H7322765   0.831   5.776   7.074  1.2883 -0.4826 -4.0749
  187MOL    C7422766   0.921   5.751   7.265 -0.5536 -0.3303  0.7251
  187MOL    C7522767   0.821   5.848   7.331 -0.0947 -0.1180 -0.2310
  187MOL   Cl7622768   0.830   5.810   7.501  0.0288 -0.0452  0.0067
  187MOL    H7722769   1.023   5.764   7.303  0.1068 -1.5145 -0.5756
  187MOL    H7822770   0.887   5.651   7.293 -1.7111  0.2482  1.3904
  187MOL    H7922771   0.856   5.951   7.325  2.7497 -1.1586 -2.1728
  187MOL    C8022772   0.674   5.853   7.277  0.2387 -0.3688  0.0779
  187MOL    C8122773   0.585   5.728   7.311 -0.5622  0.6677 -0.5198
  187MOL   Cl8222774   0.638   5.571   7.231  0.4284 -0.2375 -0.1562
  187MOL    H8322775   0.666   5.885   7.173 -1.4540 -1.3709 -0.1258
  187MOL    H8422776   0.617   5.935   7.323 -0.1202 -1.2615  1.2437
  187MOL    H8522777   0.585   5.709   7.418  1.0298  1.0067 -0.4381
  187MOL    C8622778   0.432   5.740   7.273  0.6706 -0.5863 -0.3772
  187MOL    C8722779   0.360   5.850   7.354 -0.7723  0.0636 -0.4271
  187MOL   Cl8822780   0.391   5.845   7.532 -0.0676  0.2225  0.2590
  187MOL    H8922781   0.385   5.647   7.306  0.0946 -0.8318 -1.8449
  187MOL    H9022782   0.426   5.750   7.164  2.3742  1.7248 -0.2991
  187MOL    H9122783   0.411   5.942   7.325 -2.4365  0.9575 -0.5572
  187MOL    C9222784   0.209   5.872   7.337 -0.0670  0.1846  0.2977
  187MOL    C9322785   0.138   5.899   7.204  0.1559 -0.0245 -0.3727
  187MOL   Cl9422786   0.151   5.746   7.106 -0.0376  0.4430 -0.6312
  187MOL    H9522787   0.185   5.947   7.412  0.4209  1.3421 -0.6981
  187MOL    H9622788   0.154   5.783   7.370  0.2117  0.5349  1.7463
  187MOL    H9722789   0.033   5.919   7.225  0.4647 -0.0643  1.3556
  187MOL    C9822790   0.192   6.015   7.116  0.2567 -0.6595 -0.1434
  187MOL    C9922791   0.158   6.160   7.161 -0.0607  0.4733  0.0771
  187MOL  Cl10022792   0.228   6.202   7.314 -0.4840 -0.3381  0.1967
  187MOL   H10122793   0.151   6.002   7.016  0.2788 -0.0130 -0.2387
  187MOL   H10222794   0.298   6.004   7.094  0.7318  1.6107  0.8887
  187MOL   H10322795   0.205   6.227   7.089  1.8734  0.8397  1.6062
  187MOL   C10422796   0.002   6.182   7.166  0.2506 -0.4474  0.1975
  187MOL   C10522797   8.485   6.323   7.192 -0.0305 -0.3497 -0.4831
  187MOL  Cl10622798   8.318   6.310   7.259  0.0292  0.0799  0.1291
  187MOL   H10722799   8.489   6.113   7.241  0.9646  0.6444  1.5732
  187MOL   H10822800   8.485   6.135   7.077  1.9109  0.0059 -0.8573
  187MOL   H10922801   0.027   6.374   7.260 -0.4747 -0.9680  0.4261
  187MOL   C11022802   8.468   6.397   7.057  0.5771 -0.9869  0.2914
  187MOL   C11122803   0.061   6.477   6.992  1.0360 -0.5724  0.6316
  187MOL  Cl11222804   0.136   6.607   7.091 -0.0459 -0.3151 -0.0284
  187MOL   H11322805   8.395   6.477   7.077 -0.0537 -1.4794 -0.0260
  187MOL   H11422806   8.421   6.338   6.979 -0.2042  1.0690 -0.8500
  187MOL   H11522807   0.149   6.413   6.982 -0.4132 -2.1620 -3.0435
  187MOL   C11622808   0.013   6.537   6.861 -0.1175  0.2299  0.3767
  187MOL   C11722809   0.121   6.627   6.787 -0.0146  0.2970 -0.0653
  187MOL  Cl11822810   0.058   6.686   6.626 -0.2028 -0.3685  0.3364
  187MOL   H11922811   8.446   6.593   6.866  0.7309  2.1858 -3.4737
  187MOL   H12022812   8.513   6.455   6.794  1.6532  0.2770 -0.3938
  187MOL   H12122813   0.154   6.716   6.840  1.8021  0.7503 -1.9162
  187MOL   H12222814   0.210   6.568   6.765 -0.2840 -0.3859  0.6420
  188MOL     C122815   4.928   3.919   3.785 -0.7215 -0.3361 -0.0155
  188MOL     C222816   4.917   4.074   3.798  0.2266  0.3052  0.1374
  188MOL    Cl322817   4.784   4.121   3.900 -0.4422  0.0536 -0.0821
  188MOL     H422818   4.838   3.870   3.749 -0.8317 -0.2994  0.2088
  188MOL     H522819   5.014   3.887   3.727 -0.7546  0.3968 -0.4807
  188MOL     H622820   5.010   4.112   3.842  0.9544 -3.3014  1.8527
  188MOL     H722821   4.948   3.874   3.882 -1.1461 -0.5432 -0.0242
  188MOL     C822822   4.901   4.130   3.652 -0.3702  0.1431 -0.3696
  188MOL     C922823   4.912   4.283   3.628  0.6523 -0.2520  0.8732
  188MOL   Cl1022824   5.070   4.331   3.690 -0.3831  0.3025 -0.0847
  188MOL    H1122825   4.801   4.094   3.627 -0.1187 -0.9920  0.2327
  188MOL    H1222826   4.974   4.074   3.595  2.6073 -0.2223  3.6459
  188MOL    H1322827   4.909   4.288   3.519 -2.3300 -1.9014  0.8433
  188MOL    C1422828   4.799   4.372   3.685 -0.5143 -0.6050 -0.0935
  188MOL    C1522829   4.779   4.500   3.604  0.2648  0.5104 -0.2317
  188MOL   Cl1622830   4.731   4.465   3.438 -0.2795 -0.4824  0.2661
  188MOL    H1722831   4.826   4.400   3.787 -0.3382 -0.0842 -0.2780
  188MOL    H1822832   4.705   4.317   3.681 -1.7876  1.2280  2.7364
  188MOL    H1922833   4.697   4.541   3.663 -0.3206 -1.5063  0.3988
  188MOL    C2022834   4.906   4.596   3.603  0.0905 -0.1916  0.7391
  188MOL    C2122835   4.864   4.744   3.595  0.1148  0.2442 -0.1767
  188MOL   Cl2222836   4.812   4.778   3.428  0.4224 -0.3040 -0.0791
  188MOL    H2322837   4.969   4.570   3.518 -2.4814 -0.6446 -1.0989
  188MOL    H2422838   4.959   4.589   3.698 -1.2891  2.0177  1.7239
  188MOL    H2522839   4.776   4.767   3.655 -0.6078  2.0045 -1.8427
  188MOL    C2622840   4.985   4.829   3.631 -0.0737 -0.4738 -0.2712
  188MOL    C2722841   4.953   4.982   3.631 -0.1099  0.9350  0.0116
  188MOL   Cl2822842   5.104   5.082   3.660 -0.0226 -0.0071 -0.2756
  188MOL    H2922843   5.066   4.808   3.561  0.6079  2.9604 -0.6154
  188MOL    H3022844   5.021   4.804   3.731  1.1143  0.8698 -0.3398
  188MOL    H3122845   4.929   5.014   3.530 -1.3134  0.2792  0.0827
  188MOL    C3222846   4.842   5.029   3.730  0.2342 -0.1605 -0.1820
  188MOL    C3322847   4.797   5.175   3.717 -0.6094  0.9700  0.2061
  188MOL   Cl3422848   4.688   5.210   3.858  0.1075 -0.0499 -0.2607
  188MOL    H3522849   4.865   5.006   3.834  0.3745 -0.5395 -0.2949
  188MOL    H3622850   4.753   4.972   3.703  0.1177 -0.5222  0.9681
  188MOL    H3722851   4.882   5.242   3.725  0.6212 -0.4213 -1.0429
  188MOL    C3822852   4.715   5.200   3.584  0.3728 -0.1729  0.4295
  188MOL    C3922853   4.665   5.352   3.562 -0.1523 -0.0396 -0.6661
  188MOL   Cl4022854   4.514   5.382   3.655 -0.0760  0.3626  0.0708
  188MOL    H4122855   4.646   5.122   3.550 -0.8948  2.3214 -3.0709
  188MOL    H4222856   4.800   5.187   3.518  0.9601  1.4159  0.8495
  188MOL    H4322857   4.739   5.421   3.603 -0.0760 -1.7285  2.2425
  188MOL    C4422858   4.627   5.379   3.416  0.1862 -0.5055 -0.0273
  188MOL    C4522859   4.733   5.364   3.309 -0.3350 -0.1276  0.2261
  188MOL   Cl4622860   4.859   5.493   3.321  0.1703  0.1469 -0.2529
  188MOL    H4722861   4.591   5.481   3.407 -1.4022 -1.1378 -0.9445
  188MOL    H4822862   4.540   5.316   3.397  0.2138 -0.0886 -1.6157
  188MOL    H4922863   4.778   5.265   3.320 -0.6708 -0.2177  0.8048
  188MOL    C5022864   4.686   5.356   3.161 -0.1628  0.3038  0.2613
  188MOL    C5122865   4.580   5.255   3.120 -0.4126  0.5078  0.8526
  188MOL   Cl5222866   4.617   5.094   3.194 -0.0703  0.2025 -0.0618
  188MOL    H5322867   4.778   5.332   3.107 -0.3451  0.5664 -0.1637
  188MOL    H5422868   4.656   5.456   3.132  2.3355  1.1748  0.5881
  188MOL    H5522869   4.479   5.286   3.147 -0.5670  0.4167  0.3906
  188MOL    C5622870   4.587   5.241   2.964 -0.4699  0.5050 -0.2391
  188MOL    C5722871   4.557   5.366   2.876  0.6519  0.4171 -0.3478
  188MOL   Cl5822872   4.377   5.375   2.882  0.0087 -0.0309  0.3473
  188MOL    H5922873   4.537   5.151   2.927  1.4001 -0.4375 -0.5005
  188MOL    H6022874   4.691   5.211   2.950 -0.4309  0.2067  0.6728
  188MOL    H6122875   4.603   5.451   2.927 -0.8262  2.2210 -1.9869
  188MOL    C6222876   4.585   5.342   2.725  0.7546 -0.1296  0.2232
  188MOL    C6322877   4.570   5.465   2.632  0.0917  0.1295 -0.2244
  188MOL   Cl6422878   4.588   5.416   2.465  0.2948  0.0491  0.1678
  188MOL    H6522879   4.535   5.251   2.692  1.8567 -0.7371  0.1972
  188MOL    H6622880   4.685   5.307   2.702  0.8703 -1.4087  2.5385
  188MOL    H6722881   4.471   5.506   2.652 -0.9210 -1.9175 -0.8952
  188MOL    C6822882   4.682   5.570   2.663  0.2996  0.1130 -0.1073
  188MOL    C6922883   4.651   5.704   2.592  0.4910 -0.1677  0.0385
  188MOL   Cl7022884   4.801   5.793   2.613  0.0645 -0.2516 -0.1044
  188MOL    H7122885   4.775   5.523   2.632 -0.8633 -1.7265 -0.8868
  188MOL    H7222886   4.678   5.593   2.769  1.3308 -1.5799  0.3152
  188MOL    H7322887   4.632   5.700   2.484  0.4761 -0.8937  0.0638
  188MOL    C7422888   4.537   5.780   2.666  0.2303 -0.1808  0.0162
  188MOL    C7522889   4.446   5.865   2.575  0.3276 -0.0133  0.4679
  188MOL   Cl7622890   4.396   5.751   2.445  0.0734 -0.2161  0.2168
  188MOL    H7722891   4.587   5.838   2.744 -0.4948 -0.3539  0.6113
  188MOL    H7822892   4.472   5.714   2.724 -0.2525  0.4758  0.2284
  188MOL    H7922893   4.351   5.884   2.624  0.2590 -3.0739  1.6378
  188MOL    C8022894   4.516   5.985   2.509 -0.5771  0.2842  0.8365
  188MOL    C8122895   4.581   6.096   2.593 -0.5357  0.1259  0.0197
  188MOL   Cl8222896   4.499   6.145   2.744  0.0135  0.1044 -0.0758
  188MOL    H8322897   4.446   6.033   2.441  1.4083  0.8393 -0.8694
  188MOL    H8422898   4.597   5.948   2.446  1.4914  3.3144  1.6046
  188MOL    H8522899   4.676   6.070   2.639 -0.8231 -0.1054  0.4851
  188MOL    C8622900   4.608   6.222   2.510 -0.0191 -0.2782  0.4264
  188MOL    C8722901   4.708   6.204   2.393  0.1669  0.1673  0.0216
  188MOL   Cl8822902   4.865   6.170   2.472  0.1841 -0.0463  0.1190
  188MOL    H8922903   4.644   6.306   2.570  1.2404  0.0785 -0.7870
  188MOL    H9022904   4.510   6.251   2.471  0.7128  0.2471 -1.0957
  188MOL    H9122905   4.681   6.124   2.325  0.0034  0.0820  0.1853
  188MOL    C9222906   4.719   6.337   2.313  0.4196 -0.2426  0.6248
  188MOL    C9322907   4.653   6.333   2.164 -0.2510 -0.0040 -0.0185
  188MOL   Cl9422908   4.481   6.278   2.174 -0.1357  0.1268 -0.1811
  188MOL    H9522909   4.820   6.376   2.325  1.6691 -3.3071  0.5873
  188MOL    H9622910   4.653   6.408   2.363 -0.4157  0.0610 -0.8972
  188MOL    H9722911   4.655   6.425   2.104  0.7190 -0.0055 -0.0092
  188MOL    C9822912   4.732   6.235   2.074  0.3328 -0.5718  0.4951
  188MOL    C9922913   4.876   6.262   2.034  0.0514 -0.1207  0.2316
  188MOL  Cl10022914   4.903   6.414   1.933  0.2682 -0.2261  0.0943
  188MOL   H10122915   4.678   6.231   1.980  2.0590 -1.7975 -0.4615
  188MOL   H10222916   4.722   6.136   2.119 -3.3728 -0.8173 -0.7029
  188MOL   H10322917   4.939   6.272   2.123 -0.2803 -1.1095  0.5845
  188MOL   C10422918   4.933   6.149   1.943 -0.4143 -0.0118 -0.0482
  188MOL   C10522919   4.943   6.000   1.999 -0.3037 -0.3621  0.1364
  188MOL  Cl10622920   5.030   5.986   2.150  0.2192  0.1846  0.3238
  188MOL   H10722921   5.027   6.187   1.904 -0.1984  0.2515  0.7061
  188MOL   H10822922   4.873   6.139   1.853 -2.1699 -1.1075  1.2015
  188MOL   H10922923   4.843   5.967   2.030  0.5390 -1.2483  2.0056
  188MOL   C11022924   4.995   5.882   1.909 -0.0767  0.2357 -0.1631
  188MOL   C11122925   4.918   5.870   1.776  0.2902 -0.1401 -0.2815
  188MOL  Cl11222926   4.760   5.807   1.809 -0.5370 -0.1911 -0.5671
  188MOL   H11322927   4.989   5.786   1.960 -0.1268  1.3266  1.9529
  188MOL   H11422928   5.100   5.899   1.889 -0.5406  0.2996 -2.6263
  188MOL   H11522929   4.905   5.968   1.730 -1.0120  0.9727  2.3580
  188MOL   C11622930   4.985   5.766   1.682  0.4048  0.1442  0.4488
  188MOL   C11722931   4.919   5.740   1.543  0.9868 -0.6928  0.0569
  188MOL  Cl11822932   5.009   5.622   1.433 -0.1366 -0.2924  0.0617
  188MOL   H11922933   4.993   5.668   1.730 -2.0776 -1.1126 -1.5830
  188MOL   H12022934   5.086   5.803   1.669 -0.1744  1.7511  0.4366
  188MOL   H12122935   4.820   5.698   1.561  0.7448 -1.1998 -2.2943
  188MOL   H12222936   4.905   5.832   1.487 -0.4601  0.1285  1.6960
  189MOL     C122937   2.735   1.813   2.432  0.1091 -0.1270  0.2220
  189MOL     C222938   2.883   1.830   2.394 -0.2228  0.3125  0.2510
  189MOL    Cl322939   2.894   1.826   2.217  0.3742 -0.1985 -0.3856
  189MOL     H422940   2.670   1.873   2.369  0.2235  1.5319  1.6287
  189MOL     H522941   2.704   1.713   2.402 -2.4403  1.4262 -2.5712
  189MOL     H622942   2.904   1.932   2.427  2.2700  0.3267 -1.2107
  189MOL     H722943   2.715   1.821   2.539  3.6828  0.4321  0.9021
  189MOL     C822944   2.971   1.724   2.455  0.7879 -0.7080  0.5487
  189MOL     C922945   3.109   1.716   2.406  0.8930 -0.2821 -0.1631
  189MOL   Cl1022946   3.182   1.572   2.480  0.3193  0.4568  0.4377
  189MOL    H1122947   2.923   1.627   2.443  0.7728 -0.8538  1.7624
  189MOL    H1222948   2.971   1.739   2.563 -1.8378  2.2100  0.2422
  189MOL    H1322949   3.118   1.703   2.298 -0.2338 -0.7163 -0.2123
  189MOL    C1422950   3.187   1.849   2.440  0.9032 -0.1654  0.3253
  189MOL    C1522951   3.331   1.846   2.419  0.3155  0.6169  0.7061
  189MOL   Cl1622952   3.410   1.973   2.519 -0.0525 -0.1709  0.0820
  189MOL    H1722953   3.176   1.868   2.547 -0.2572  3.3622 -0.3659
  189MOL    H1822954   3.144   1.933   2.386 -1.5582  0.2794  2.8586
  189MOL    H1922955   3.373   1.750   2.451  0.7616  0.5021 -0.1952
  189MOL    C2022956   3.361   1.868   2.267 -0.2682 -0.6780  0.5631
  189MOL    C2122957   3.507   1.840   2.228 -0.7565 -0.3779  0.8365
  189MOL   Cl2222958   3.531   1.664   2.259  0.0042 -0.1642  0.0796
  189MOL    H2322959   3.316   1.964   2.241 -1.2026 -1.0613  0.7247
  189MOL    H2422960   3.301   1.793   2.215  2.2729 -2.2530 -0.1617
  189MOL    H2522961   3.520   1.853   2.120 -0.1042  0.0532  0.9621
  189MOL    C2622962   3.615   1.918   2.297  0.7274  0.4169 -0.3015
  189MOL    C2722963   3.619   2.074   2.287  0.0906  0.6452 -0.5928
  189MOL   Cl2822964   3.585   2.123   2.121 -0.2487 -0.3100  0.2623
  189MOL    H2922965   3.713   1.889   2.260  0.1863 -1.4994 -0.3217
  189MOL    H3022966   3.629   1.889   2.401  0.0005 -0.6493 -0.4860
  189MOL    H3122967   3.546   2.115   2.357 -2.9792 -1.3995 -2.4651
  189MOL    C3222968   3.751   2.145   2.334  1.1101  0.1007 -0.6014
  189MOL    C3322969   3.808   2.110   2.474 -0.4795  0.4703 -0.3615
  189MOL   Cl3422970   3.687   2.194   2.580 -0.0323  0.3522 -0.1720
  189MOL    H3522971   3.733   2.252   2.322 -1.3680 -0.3192 -0.9415
  189MOL    H3622972   3.820   2.117   2.255  0.5782 -3.2298  0.0295
  189MOL    H3722973   3.805   2.002   2.487 -1.1986  0.6324  0.9633
  189MOL    C3822974   3.952   2.160   2.491  0.0773 -0.1641 -0.4175
  189MOL    C3922975   4.004   2.156   2.638  0.2776 -0.3778  0.1377
  189MOL   Cl4022976   4.166   2.226   2.627  0.0667  0.0119 -0.0247
  189MOL    H4122977   3.955   2.262   2.451  0.2018  0.2788  0.7033
  189MOL    H4222978   4.008   2.103   2.417  0.4933  0.1611 -0.3551
  189MOL    H4322979   3.941   2.225   2.694  1.0068 -0.3299  0.9082
  189MOL    C4422980   4.005   2.026   2.722  0.4674  0.5350 -0.5439
  189MOL    C4522981   4.106   1.915   2.673  0.4820  0.1024  0.2075
  189MOL   Cl4622982   4.016   1.825   2.543  0.0340  0.1489 -0.1839
  189MOL    H4722983   3.907   1.978   2.714  0.5585  0.5769 -1.9250
  189MOL    H4822984   4.020   2.057   2.825  0.6064 -1.8399  0.1852
  189MOL    H4922985   4.201   1.948   2.629 -0.2098 -2.4298 -3.3908
  189MOL    C5022986   4.129   1.823   2.795  0.2888 -0.2518 -0.3735
  189MOL    C5122987   4.238   1.714   2.773 -0.2611  0.3384  0.7545
  189MOL   Cl5222988   4.186   1.587   2.654 -0.0944  0.2458 -0.3152
  189MOL    H5322989   4.035   1.777   2.825  0.7667 -0.9537  0.0662
  189MOL    H5422990   4.166   1.889   2.873  1.2689 -0.7165 -0.4327
  189MOL    H5522991   4.321   1.772   2.735  0.4131 -2.3283 -2.0706
  189MOL    C5622992   4.264   1.633   2.905 -0.3449 -0.0170 -0.3787
  189MOL    C5722993   4.392   1.556   2.879 -0.5715  0.2266 -0.0307
  189MOL   Cl5822994   4.399   1.450   3.020 -0.1108  0.0502  0.0687
  189MOL    H5922995   4.175   1.571   2.914 -0.3991  0.0633 -0.3758
  189MOL    H6022996   4.265   1.705   2.986  0.9408  0.1710 -0.5470
  189MOL    H6122997   4.393   1.491   2.792 -0.6222 -0.6551  0.6155
  189MOL    C6222998   4.522   1.647   2.892  0.1392  0.1632 -0.0860
  189MOL    C6322999   4.659   1.589   2.855 -0.0247 -0.6488  0.7732
  189MOL   Cl6423000   4.795   1.677   2.926  0.0038  0.1217 -0.0171
  189MOL    H6523001   4.529   1.690   2.992 -0.7292  3.0324 -1.2142
  189MOL    H6623002   4.502   1.735   2.832  0.3883  0.1481 -0.1897
  189MOL    H6723003   4.666   1.490   2.901  0.8294 -0.4955  0.9785
  189MOL    C6823004   4.694   1.564   2.706  0.2276  0.0982  0.6211
  189MOL    C6923005   4.812   1.464   2.692  0.9811 -0.3912  0.2844
  189MOL   Cl7023006   4.970   1.538   2.711  0.1596 -0.0277  0.0199
  189MOL    H7123007   4.707   1.663   2.663  0.3291 -0.8610 -1.6172
  189MOL    H7223008   4.608   1.519   2.656  0.1824 -0.7763  1.4625
  189MOL    H7323009   4.805   1.386   2.767  1.9470 -1.4795 -0.7407
  189MOL    C7423010   4.811   1.387   2.551 -0.4298 -0.4387 -0.1756
  189MOL    C7523011   4.703   1.273   2.543  1.3496  0.1255 -1.0862
  189MOL   Cl7623012   4.716   1.152   2.681  0.1904  0.2471  0.1379
  189MOL    H7723013   4.910   1.340   2.543 -0.8039 -0.9290 -2.3548
  189MOL    H7823014   4.807   1.455   2.466  0.1118 -0.6971 -0.4120
  189MOL    H7923015   4.602   1.312   2.557  2.6798  3.2347  0.5099
  189MOL    C8023016   4.701   1.201   2.408 -0.2222  0.2076 -0.0022
  189MOL    C8123017   4.690   1.280   2.275  0.2871 -0.3043  0.0715
  189MOL   Cl8223018   4.536   1.366   2.262  0.4073  0.0381  0.0142
  189MOL    H8323019   4.616   1.133   2.406 -0.3228  0.2346  2.2500
  189MOL    H8423020   4.790   1.139   2.396 -0.2273  0.7746 -3.6036
  189MOL    H8523021   4.769   1.356   2.272  0.7043 -0.7594 -0.4596
  189MOL    C8623022   4.717   1.198   2.142  0.5455  0.6938  0.2645
  189MOL    C8723023   4.832   1.100   2.134 -0.3220  0.0223  0.0775
  189MOL   Cl8823024   4.984   1.172   2.176 -0.2508  0.1380 -0.1110
  189MOL    H8923025   4.709   1.276   2.066  1.3347  0.9193  0.4172
  189MOL    H9023026   4.630   1.134   2.125 -0.4000  2.0727 -0.1720
  189MOL    H9123027   4.820   1.013   2.200 -0.4003 -0.2650 -0.3153
  189MOL    C9223028   4.848   1.031   1.992 -0.4720 -0.3389  0.0408
  189MOL    C9323029   4.733   0.946   1.937  0.0896  0.1891 -0.3205
  189MOL   Cl9423030   4.686   0.816   2.053 -0.2993 -0.1686 -0.1420
  189MOL    H9523031   4.938   0.970   1.989 -2.1402 -2.8535  0.0844
  189MOL    H9623032   4.868   1.118   1.928 -2.0095  0.8846  1.1932
  189MOL    H9723033   4.646   1.012   1.932  1.0566  1.3746 -2.1000
  189MOL    C9823034   4.766   0.875   1.800 -0.4578 -0.2242 -0.2988
  189MOL    C9923035   4.737   0.954   1.674 -0.1871  0.0847  0.5577
  189MOL  Cl10023036   4.563   0.984   1.653 -0.0448 -0.0056  0.1768
  189MOL   H10123037   4.715   0.780   1.788  1.1078 -1.0035 -0.9861
  189MOL   H10223038   4.866   0.833   1.803 -0.1763  0.4931  0.5535
  189MOL   H10323039   4.777   1.055   1.691  1.9790 -0.2561 -2.1882
  189MOL   C10423040   4.806   0.897   1.550  0.1688 -0.2545 -0.4098
  189MOL   C10523041   4.959   0.919   1.554 -0.2151 -0.1819 -0.2688
  189MOL  Cl10623042   4.989   1.086   1.499  0.0091 -0.0864 -0.3120
  189MOL   H10723043   4.761   0.963   1.476 -2.2880 -1.5583 -0.0979
  189MOL   H10823044   4.786   0.793   1.525 -0.7268  0.1594 -1.4582
  189MOL   H10923045   4.999   0.910   1.655 -2.6855 -2.5247  0.5463
  189MOL   C11023046   5.036   0.827   1.461 -0.0438 -0.1768 -0.2647
  189MOL   C11123047   4.998   0.820   1.312  0.5601  0.0330  0.5956
  189MOL  Cl11223048   4.863   0.710   1.308 -0.1347 -0.0920 -0.0842
  189MOL   H11323049   5.035   0.723   1.496 -0.1286  0.7745  2.7254
  189MOL   H11423050   5.143   0.841   1.476 -0.0070  1.8202 -2.2524
  189MOL   H11523051   4.954   0.909   1.266 -2.2088 -0.4239  2.2751
  189MOL   C11623052   5.114   0.761   1.233  0.6740  0.6828  0.4662
  189MOL   C11723053   5.080   0.717   1.089 -0.4083 -0.7357  0.8017
  189MOL  Cl11823054   5.233   0.676   1.002 -0.0881  0.0236 -0.2300
  189MOL   H11923055   5.146   0.674   1.290  0.1774 -0.8578 -1.5198
  189MOL   H12023056   5.197   0.831   1.244  3.1707 -1.8149 -1.4821
  189MOL   H12123057   5.015   0.632   1.069 -1.3274  0.5793 -1.9820
  189MOL   H12223058   5.042   0.804   1.037  0.3210 -0.2146  1.1193
  190MOL     C123059   8.401   4.397   8.035  0.4463  0.1697  0.2371
  190MOL     C223060   8.514   4.291   8.039  0.0603  0.2782  0.1444
  190MOL    Cl323061   8.450   4.130   8.091  0.2749  0.1818  0.3432
  190MOL     H423062   8.329   4.368   7.959 -1.1524  1.5188  1.2101
  190MOL     H523063   8.355   4.405   8.133  0.9347 -1.3947  0.6175
  190MOL     H623064   0.040   4.276   7.944  0.9368  0.8471  0.5157
  190MOL     H723065   8.430   4.497   8.005  0.5281  0.1945  0.4001
  190MOL     C823066   0.099   4.327   8.133 -0.0716 -0.2396 -0.6225
  190MOL     C923067   0.168   4.460   8.118 -0.9749  0.1775  0.2000
  190MOL   Cl1023068   0.218   4.486   7.945  0.0894  0.0334  0.1309
  190MOL    H1123069   0.174   4.248   8.126  0.4149 -0.0056  1.5523
  190MOL    H1223070   0.046   4.330   8.228  1.4543 -0.9258  0.2699
  190MOL    H1323071   0.087   4.529   8.142 -0.8242  0.4687 -0.1175
  190MOL    C1423072   0.284   4.485   8.221 -0.0685 -0.5533 -0.8849
  190MOL    C1523073   0.417   4.401   8.208 -0.2090 -0.5653 -0.9030
  190MOL   Cl1623074   0.388   4.228   8.264 -0.0093 -0.0763 -0.1135
  190MOL    H1723075   0.249   4.476   8.324  0.4232 -1.0863 -0.7640
  190MOL    H1823076   0.308   4.591   8.216  0.5171 -0.6938 -1.1162
  190MOL    H1923077   0.446   4.402   8.103  0.1847  0.6932 -0.7996
  190MOL    C2023078   0.541   4.464   8.278 -0.0781 -0.4080 -0.6854
  190MOL    C2123079   0.531   4.467   8.428  0.0929  0.5557 -0.0209
  190MOL   Cl2223080   0.436   4.606   8.473 -0.2650 -0.2126  0.3280
  190MOL    H2323081   0.556   4.568   8.246  0.4089  0.0878  1.0520
  190MOL    H2423082   0.623   4.408   8.233  0.2160 -0.3289 -0.2530
  190MOL    H2523083   0.474   4.386   8.473  2.1207 -0.9694 -0.1243
  190MOL    C2623084   0.664   4.478   8.503  0.2098  0.0934 -0.1106
  190MOL    C2723085   0.760   4.360   8.498 -0.0762 -0.1068  0.5133
  190MOL   Cl2823086   0.675   4.222   0.039 -0.3218 -0.3511 -0.2067
  190MOL    H2923087   0.643   4.495   0.083  0.2107  1.3644 -0.3144
  190MOL    H3023088   0.710   4.568   8.465 -0.5824  0.7429  0.4521
  190MOL    H3123089   0.790   4.330   8.398 -0.9511 -1.9489  0.7945
  190MOL    C3223090   0.897   4.375   0.041  0.3097  0.4715 -0.3141
  190MOL    C3323091   0.984   4.243   0.038  0.6500 -0.9067 -0.3417
  190MOL   Cl3423092   1.118   4.257   0.165  0.0417 -0.0766  0.2215
  190MOL    H3523093   0.899   4.403   0.147 -0.5610  2.0817 -0.7082
  190MOL    H3623094   0.961   4.458   0.013  2.0093 -0.3087  1.1016
  190MOL    H3723095   0.927   4.155   0.070 -2.8842  0.4353 -2.6191
  190MOL    C3823096   1.062   4.218   8.428 -0.1000 -0.0461 -0.4597
  190MOL    C3923097   1.147   4.092   8.411 -0.0823  0.2394 -0.5507
  190MOL   Cl4023098   1.255   4.125   8.271 -0.3026 -0.2349  0.0816
  190MOL    H4123099   1.120   4.309   8.410  0.0057  0.2207  1.1287
  190MOL    H4223100   1.003   4.210   8.336 -1.0933 -0.2680  0.1863
  190MOL    H4323101   1.216   4.067   8.492 -1.4562  1.0606  0.9272
  190MOL    C4423102   1.068   3.976   8.353  0.7542  0.6330  0.0253
  190MOL    C4523103   0.958   3.917   8.440  0.6147  0.5957  0.5194
  190MOL   Cl4623104   1.023   3.883   0.079  0.0058 -0.4202  0.1740
  190MOL    H4723105   1.134   3.889   8.350  0.3457  0.2794  1.1289
  190MOL    H4823106   1.033   3.986   8.250  1.6453  0.9709 -0.2471
  190MOL    H4923107   0.880   3.989   8.467  1.0314  0.9157  0.8967
  190MOL    C5023108   0.902   3.784   8.387 -0.8225  0.6057  0.5929
  190MOL    C5123109   0.770   3.730   8.442 -0.7033  0.3074 -0.1570
  190MOL   Cl5223110   0.654   3.854   8.486  0.1654  0.1521 -0.4680
  190MOL    H5323111   0.986   3.715   8.388 -1.3557 -0.1358 -2.6172
  190MOL    H5423112   0.882   3.811   8.284 -0.5239 -0.3109  0.2959
  190MOL    H5523113   0.733   3.673   8.357 -1.4539  1.7396 -0.7959
  190MOL    C5623114   0.785   3.643   0.034  0.0701 -0.0881 -0.4898
  190MOL    C5723115   0.660   3.551   0.048  0.1293 -0.4274 -0.0994
  190MOL   Cl5823116   0.677   3.463   0.205  0.3919  0.0801 -0.3602
  190MOL    H5923117   0.805   3.701   0.124 -0.6608 -1.8195  0.8372
  190MOL    H6023118   0.873   3.581   0.018  0.7657  0.2482  1.8559
  190MOL    H6123119   0.574   3.616   0.065 -1.3487 -1.7249 -2.2581
  190MOL    C6223120   0.630   3.453   8.455 -0.4804  0.3146  0.2999
  190MOL    C6323121   0.533   3.337   8.477  1.1760 -0.0714  0.0397
  190MOL   Cl6423122   0.505   3.257   8.318 -0.2090 -0.1055  0.5643
  190MOL    H6523123   0.725   3.412   8.418 -0.9370 -0.9644  0.5317
  190MOL    H6623124   0.589   3.508   8.369  1.1578  0.8094 -0.1936
  190MOL    H6723125   0.579   3.262   0.015 -0.6869  0.6829  2.3600
  190MOL    C6823126   0.396   3.367   0.015  0.2096 -0.3873  0.0987
  190MOL    C6923127   0.296   3.251   0.057 -0.4152  0.2040 -0.2155
  190MOL   Cl7023128   0.158   3.342   0.136 -0.1018 -0.1680 -0.2554
  190MOL    H7123129   0.344   3.439   8.478 -1.5299  1.1879  3.2261
  190MOL    H7223130   0.413   3.418   0.111 -0.2817 -0.3117  0.1477
  190MOL    H7323131   0.263   3.197   8.493 -2.1539 -0.6435  0.9159
  190MOL    C7423132   0.347   3.152   0.156  0.8650 -0.9544 -0.2798
  190MOL    C7523133   0.371   3.014   0.090 -0.1587  0.4085  0.4103
  190MOL   Cl7623134   0.218   2.931   0.070  0.3326  0.0936 -0.2736
  190MOL    H7723135   0.277   3.134   0.238  1.3117 -0.8233  0.1267
  190MOL    H7823136   0.433   3.192   0.210  0.5834  0.7548 -1.0701
  190MOL    H7923137   0.421   3.029   8.520  2.2698 -0.5291  1.5088
  190MOL    C8023138   0.465   2.920   0.163 -0.0994  0.0097  0.1724
  190MOL    C8123139   0.601   2.988   0.177 -0.2175  0.0825 -0.3582
  190MOL   Cl8223140   0.686   3.028   0.026 -0.4205 -0.0605  0.4313
  190MOL    H8323141   0.456   2.825   0.110  1.3518  0.6294 -1.2271
  190MOL    H8423142   0.429   2.896   0.263 -2.9299  0.0790 -0.7775
  190MOL    H8523143   0.595   3.072   0.246  2.6562 -0.5652  0.7563
  190MOL    C8623144   0.691   2.878   0.246 -0.2619  0.6134  0.1010
  190MOL    C8723145   0.839   2.921   0.278  0.2495 -0.3508 -0.2958
  190MOL   Cl8823146   0.903   2.771   0.351  0.0051 -0.4628 -0.2659
  190MOL    H8923147   0.691   2.784   0.191  1.2987  0.4191  0.4177
  190MOL    H9023148   0.650   2.862   0.346 -0.5722 -0.1568 -0.1432
  190MOL    H9123149   0.899   2.936   0.189  2.3233 -0.5272  1.0231
  190MOL    C9223150   0.857   3.037   0.384 -0.2403 -0.3609 -0.3523
  190MOL    C9323151   0.996   3.104   0.406 -0.5717  0.6005  0.2288
  190MOL   Cl9423152   1.122   3.017   0.504  0.0202  0.0034  0.5505
  190MOL    H9523153   0.821   3.017   0.485  0.3949  0.7252  0.1042
  190MOL    H9623154   0.790   3.118   0.354 -2.0280 -0.7735  2.4067
  190MOL    H9723155   1.041   3.121   0.308 -2.3569 -2.7290 -1.2330
  190MOL    C9823156   0.970   3.234   0.481 -1.1425  0.7506  0.5366
  190MOL    C9923157   1.086   3.339   0.499  0.1657  0.4875  0.4386
  190MOL  Cl10023158   1.038   3.445   0.636  0.3986  0.3489 -0.1514
  190MOL   H10123159   0.930   3.200   0.577 -4.4313  1.4306 -0.5432
  190MOL   H10223160   0.883   3.288   0.443 -2.0271  0.3049  1.8747
  190MOL   H10323161   1.173   3.289   0.541  1.3414  1.4406 -0.8273
  190MOL   C10423162   1.120   3.415   0.368 -0.4282 -0.8624  0.3003
  190MOL   C10523163   1.254   3.503   0.366  0.7899 -0.6829 -0.3068
  190MOL  Cl10623164   1.268   3.569   0.199  0.3375 -0.1389 -0.1170
  190MOL   H10723165   1.037   3.481   0.346  0.7414  1.2525  2.1129
  190MOL   H10823166   1.120   3.343   0.286  2.0948 -0.6264  0.0710
  190MOL   H10923167   1.242   3.590   0.430  1.1917 -0.9542  0.1366
  190MOL   C11023168   1.390   3.441   0.410 -0.1819  0.5428  0.9294
  190MOL   C11123169   1.466   3.335   0.325 -0.0894 -0.7562 -0.8483
  190MOL  Cl11223170   1.358   3.205   0.287 -0.0721 -0.0841 -0.2337
  190MOL   H11323171   1.382   3.400   0.511 -3.2045 -2.6777 -0.5038
  190MOL   H11423172   1.456   3.526   0.424  0.6228 -0.2672  2.1617
  190MOL   H11523173   1.493   3.390   0.235 -2.8131  1.6663 -0.2758
  190MOL   C11623174   1.599   3.286   0.390 -0.8975 -0.0037  0.3134
  190MOL   C11723175   1.688   3.203   0.286  0.2498  0.5492 -0.5811
  190MOL  Cl11823176   1.751   3.306   0.152 -0.4812  0.0170 -0.3528
  190MOL   H11923177   1.585   3.234   0.484  0.6950  1.1939  1.2420
  190MOL   H12023178   1.669   3.367   0.411  2.0739 -3.0027  2.4982
  190MOL   H12123179   1.764   3.145   0.338 -0.9652 -1.7520 -1.3071
  190MOL   H12223180   1.629   3.127   0.234  0.2118  1.4371 -1.8741
  191MOL     C123181   4.533   1.519   4.575 -0.6788  0.2343 -0.2622
  191MOL     C223182   4.455   1.650   4.555 -0.4113 -0.5130  1.1681
  191MOL    Cl323183   4.282   1.621   4.514 -0.0624 -0.0799  0.1689
  191MOL     H423184   4.639   1.546   4.581 -1.4507  2.9937  1.8706
  191MOL     H523185   4.499   1.468   4.665  0.6615 -0.1460  0.0479
  191MOL     H623186   4.449   1.692   4.655 -4.0639  0.2715  0.6932
  191MOL     H723187   4.514   1.459   4.486 -0.2795 -2.5721  1.4917
  191MOL     C823188   4.510   1.765   4.465  0.1758  0.4702 -0.1170
  191MOL     C923189   4.655   1.804   4.483 -1.0537 -0.0997  0.2695
  191MOL   Cl1023190   4.683   1.857   4.649  0.0054 -0.1507 -0.2499
  191MOL    H1123191   4.454   1.857   4.481 -0.9048 -0.2655  0.4559
  191MOL    H1223192   4.503   1.734   4.361  0.1721 -1.5580  0.4539
  191MOL    H1323193   4.715   1.716   4.457 -1.8964 -0.9550  1.2034
  191MOL    C1423194   4.695   1.912   4.379 -0.0470  0.5416 -0.2943
  191MOL    C1523195   4.847   1.928   4.346  0.3294 -0.4803 -0.1068
  191MOL   Cl1623196   4.916   1.765   4.305  0.0416  0.7980  0.1743
  191MOL    H1723197   4.662   2.012   4.406  0.6049 -0.1952  3.5625
  191MOL    H1823198   4.649   1.903   4.281  0.9490  1.6119 -0.8728
  191MOL    H1923199   4.851   1.990   4.256 -0.8114 -1.2448 -0.7036
  191MOL    C2023200   4.936   1.994   4.460  0.3041 -0.0510 -0.0788
  191MOL    C2123201   4.897   2.135   4.514 -0.4540  0.6348 -0.5129
  191MOL   Cl2223202   4.919   2.260   4.399  0.2140  0.2026  0.2598
  191MOL    H2323203   5.036   2.001   4.418  0.1397  1.6462 -0.2292
  191MOL    H2423204   4.940   1.928   4.546  0.7278  1.5894  1.1875
  191MOL    H2523205   4.793   2.126   4.545  0.4103 -5.7250  1.3641
  191MOL    C2623206   4.971   2.170   4.641  0.1973  0.4263 -0.4742
  191MOL    C2723207   4.909   2.276   4.734 -0.7355  0.0010  0.0565
  191MOL   Cl2823208   5.051   2.324   4.839  0.0151 -0.3215  0.2798
  191MOL    H2923209   5.077   2.186   4.624  0.2010  2.3512  1.2468
  191MOL    H3023210   4.973   2.079   4.701  1.1442 -0.6505 -2.0808
  191MOL    H3123211   4.873   2.360   4.674  3.3854  0.9149 -1.3059
  191MOL    C3223212   4.792   2.218   4.824 -0.2305  0.3791 -0.1457
  191MOL    C3323213   4.740   2.318   4.934  0.2751 -0.3817 -0.1878
  191MOL   Cl3423214   4.608   2.239   5.028 -0.4177  0.3585 -0.2287
  191MOL    H3523215   4.837   2.141   4.886 -2.6564 -1.3512 -0.4658
  191MOL    H3623216   4.711   2.168   4.770 -0.2249 -0.7080  0.8363
  191MOL    H3723217   4.823   2.340   5.000  0.0751 -0.7046  0.1769
  191MOL    C3823218   4.677   2.452   4.885  0.1008 -0.6060 -0.0069
  191MOL    C3923219   4.613   2.538   4.993  1.1624 -0.4067  0.7898
  191MOL   Cl4023220   4.522   2.677   4.914 -0.4623  0.3742 -0.1541
  191MOL    H4123221   4.597   2.438   4.813 -2.2293  0.0476  2.3989
  191MOL    H4223222   4.757   2.511   4.840 -0.3344  0.1037  0.1481
  191MOL    H4323223   4.530   2.484   5.038 -1.0413  1.0337 -1.3974
  191MOL    C4423224   4.716   2.587   5.097 -0.4664  0.4983  0.4927
  191MOL    C4523225   4.663   2.604   5.243  0.8935 -0.0908 -0.0571
  191MOL   Cl4623226   4.601   2.455   5.312  0.0419  0.2736  0.6030
  191MOL    H4723227   4.750   2.684   5.063  2.5769  1.2031  5.0200
  191MOL    H4823228   4.808   2.529   5.087 -1.1343 -0.3087 -1.0927
  191MOL    H4923229   4.747   2.629   5.307  1.4183 -0.5675 -0.5566
  191MOL    C5023230   4.553   2.713   5.257 -0.1143  0.1664 -0.2209
  191MOL    C5123231   4.582   2.854   5.206  0.2272 -0.5159 -0.3880
  191MOL   Cl5223232   4.730   2.908   5.282  0.2343 -0.1367  0.2146
  191MOL    H5323233   4.539   2.721   5.365 -0.0634 -1.4147 -0.0777
  191MOL    H5423234   4.458   2.685   5.210  0.9209 -1.6553 -1.3061
  191MOL    H5523235   4.595   2.848   5.098  3.1045 -1.7670 -0.0026
  191MOL    C5623236   4.469   2.956   5.247  0.0093  0.3126 -0.2477
  191MOL    C5723237   4.336   2.935   5.170  0.5338  0.1638 -0.3834
  191MOL   Cl5823238   4.371   2.962   4.998 -0.2181  0.0727  0.0230
  191MOL    H5923239   4.496   3.052   5.204  0.3360 -0.2900 -1.4088
  191MOL    H6023240   4.454   2.970   5.354  0.7889  0.8586 -0.2081
  191MOL    H6123241   4.293   2.835   5.178 -0.6346  0.7533  0.9953
  191MOL    C6223242   4.239   3.041   5.219 -0.5325  0.0374 -0.1653
  191MOL    C6323243   4.163   3.019   5.351  0.1128 -0.3061 -0.2229
  191MOL   Cl6423244   4.052   2.875   5.343 -0.3793 -0.3027 -0.2436
  191MOL    H6523245   4.160   3.053   5.146 -0.8641 -3.4822 -0.4400
  191MOL    H6623246   4.286   3.139   5.227 -1.4282  0.3615  1.4732
  191MOL    H6723247   4.235   2.980   5.423 -0.3738  0.0831  0.4799
  191MOL    C6823248   4.080   3.145   5.398 -0.3260 -0.0407 -0.3430
  191MOL    C6923249   4.143   3.248   5.500 -0.0924 -0.3102  0.8835
  191MOL   Cl7023250   4.178   3.164   5.646  0.0177 -0.0943  0.0094
  191MOL    H7123251   3.991   3.100   5.442 -0.8334  0.6905 -0.6098
  191MOL    H7223252   4.040   3.200   5.313  0.3004  0.1886 -0.4886
  191MOL    H7323253   4.230   3.297   5.457 -1.0877  0.0193 -0.7875
  191MOL    C7423254   4.035   3.353   5.542 -0.2065 -0.4564  0.1640
  191MOL    C7523255   4.087   3.481   5.614 -0.1516  0.1901 -0.0287
  191MOL   Cl7623256   3.940   3.573   5.652 -0.3750 -0.0654 -0.1589
  191MOL    H7723257   3.955   3.307   5.600  0.5926 -1.5410  0.4047
  191MOL    H7823258   3.990   3.394   5.452  0.1409 -0.5258 -0.0430
  191MOL    H7923259   4.127   3.449   5.710  1.2505  0.3637 -0.5367
  191MOL    C8023260   4.178   3.561   5.519  0.6982  0.0048  0.4131
  191MOL    C8123261   4.206   3.700   5.565  0.2693 -0.9660  0.6255
  191MOL   Cl8223262   4.289   3.791   5.429 -0.4140  0.0325  0.1545
  191MOL    H8323263   4.125   3.573   5.424 -0.9341 -0.4637  1.2622
  191MOL    H8423264   4.272   3.507   5.508  1.0045  0.3312  1.3659
  191MOL    H8523265   4.106   3.743   5.578  0.3427 -0.4917 -0.3546
  191MOL    C8623266   4.285   3.727   5.699  0.3984 -0.1444  0.0734
  191MOL    C8723267   4.446   3.735   5.698  1.1024 -0.6107 -0.2935
  191MOL   Cl8823268   4.501   3.591   5.616  0.1478  0.2089  0.1936
  191MOL    H8923269   4.258   3.644   5.765  0.3724 -0.6091 -0.5142
  191MOL    H9023270   4.246   3.818   5.742 -1.9639 -2.0360  2.0726
  191MOL    H9123271   4.478   3.819   5.636  1.7836 -1.4296 -1.0575
  191MOL    C9223272   4.511   3.731   5.837 -0.0562  0.3846 -0.5608
  191MOL    C9323273   4.480   3.848   5.927 -0.1017 -0.1021 -0.1491
  191MOL   Cl9423274   4.511   3.995   5.835  0.4171  0.3855 -0.6067
  191MOL    H9523275   4.619   3.717   5.831  0.2545  0.9677  2.8011
  191MOL    H9623276   4.463   3.644   5.882  0.9258  1.2420  2.3006
  191MOL    H9723277   4.372   3.849   5.943 -0.1813 -0.3309 -0.6691
  191MOL    C9823278   4.552   3.838   6.065  0.4516 -0.8894  0.4210
  191MOL    C9923279   4.512   3.953   6.160 -0.1821 -0.3174 -0.1454
  191MOL  Cl10023280   4.626   3.953   6.297  0.1662  0.0239  0.0708
  191MOL   H10123281   4.660   3.852   6.059  0.4525 -0.7742  0.6525
  191MOL   H10223282   4.513   3.751   6.117  3.1249 -1.1594  2.0471
  191MOL   H10323283   4.524   4.043   6.100 -0.3251 -0.0478  0.2286
  191MOL   C10423284   4.369   3.948   6.214  0.0993  0.6202  0.2831
  191MOL   C10523285   4.348   4.065   6.311 -0.1567  0.2846 -0.2788
  191MOL  Cl10623286   4.365   4.025   6.478 -0.1987 -0.2567  0.1648
  191MOL   H10723287   4.356   3.854   6.266 -3.7552  2.0261  1.9783
  191MOL   H10823288   4.304   3.934   6.127 -0.7089  2.6212  0.5306
  191MOL   H10923289   4.431   4.135   6.300  1.2354 -1.4513 -1.0010
  191MOL   C11023290   4.210   4.135   6.295  0.2499 -0.5378 -0.1109
  191MOL   C11123291   4.200   4.210   6.159 -0.0614 -0.0449 -0.2499
  191MOL  Cl11223292   4.339   4.320   6.129  0.1606 -0.0700 -0.2450
  191MOL   H11323293   4.188   4.197   6.382  0.7066  0.1415 -0.4777
  191MOL   H11423294   4.130   4.061   6.301  0.0283 -0.1977  1.4132
  191MOL   H11523295   4.207   4.141   6.075 -3.1150 -0.9814  0.1793
  191MOL   C11623296   4.065   4.286   6.139  0.3767  0.3396 -0.9723
  191MOL   C11723297   4.060   4.373   6.019 -0.6481 -0.4473  0.8211
  191MOL  Cl11823298   3.892   4.408   5.972 -0.1569 -0.3386 -0.2130
  191MOL   H11923299   4.033   4.337   6.230  2.6009  0.8412 -0.4428
  191MOL   H12023300   3.991   4.210   6.115 -1.9080  3.0284 -2.7844
  191MOL   H12123301   4.112   4.467   6.039 -0.3641 -0.5647  0.6384
  191MOL   H12223302   4.100   4.336   5.925 -0.5677  0.9838  0.2675
  192MOL     C123303   1.345   5.095   4.243  0.2191 -0.5085 -0.3104
  192MOL     C223304   1.240   5.017   4.317  0.7413 -0.3159 -0.5077
  192MOL    Cl323305   1.269   5.060   4.487  0.4695  0.0485  0.2861
  192MOL     H423306   1.343   5.202   4.265 -1.5652 -0.3825 -1.0006
  192MOL     H523307   1.449   5.064   4.239  1.2981  2.5884  2.1307
  192MOL     H623308   1.146   5.070   4.301  0.0805 -1.4395 -0.4119
  192MOL     H723309   1.323   5.082   4.137  1.8652  0.4005 -0.7766
  192MOL     C823310   1.250   4.865   4.309 -0.1984  0.5766  0.2712
  192MOL     C923311   1.199   4.807   4.172 -0.1490  0.4069  0.2166
  192MOL   Cl1023312   1.029   4.845   4.155  0.2888 -0.3992 -0.3949
  192MOL    H1123313   1.207   4.810   4.393  0.0899 -2.9937 -1.8243
  192MOL    H1223314   1.357   4.849   4.313 -0.2451  0.5138  1.4150
  192MOL    H1323315   1.245   4.856   4.086  0.9500  2.5400  1.9482
  192MOL    C1423316   1.208   4.652   4.155 -0.1732  0.0404  0.5876
  192MOL    C1523317   1.356   4.602   4.146  0.7695 -0.3034 -0.2339
  192MOL   Cl1623318   1.437   4.679   4.007  0.3884 -0.3493 -0.2394
  192MOL    H1723319   1.157   4.632   4.061  0.7912 -0.0420  0.0756
  192MOL    H1823320   1.157   4.596   4.233 -1.4203  0.2219 -0.0875
  192MOL    H1923321   1.404   4.638   4.237 -0.6937  2.0966 -0.3928
  192MOL    C2023322   1.356   4.450   4.139  0.1255 -0.2533  0.4859
  192MOL    C2123323   1.486   4.378   4.163  0.7237 -0.5287 -0.2769
  192MOL   Cl2223324   1.563   4.453   4.306 -0.0417  0.0399  0.1467
  192MOL    H2323325   1.290   4.424   4.056 -0.2708  1.0625  0.3677
  192MOL    H2423326   1.296   4.425   4.226 -1.3086  0.8141 -0.1698
  192MOL    H2523327   1.459   4.276   4.188 -0.4982 -0.2707 -0.5058
  192MOL    C2623328   1.588   4.374   4.048  0.2407  0.0401 -0.3134
  192MOL    C2723329   1.533   4.339   3.907 -0.0676 -0.0420  0.0243
  192MOL   Cl2823330   1.442   4.184   3.925  0.2536 -0.1257  0.0474
  192MOL    H2923331   1.666   4.300   4.068  1.1812  0.7407 -1.3180
  192MOL    H3023332   1.644   4.467   4.039  1.1792 -0.5430 -0.5550
  192MOL    H3123333   1.460   4.414   3.877  1.1968  0.7226 -1.2077
  192MOL    C3223334   1.637   4.318   3.793 -1.0380 -0.1107  0.0272
  192MOL    C3323335   1.732   4.438   3.768 -0.1925  0.0136  0.9778
  192MOL   Cl3423336   1.629   4.584   3.727  0.1051 -0.0684 -0.0756
  192MOL    H3523337   1.579   4.298   3.704 -1.2730  1.6913 -0.2518
  192MOL    H3623338   1.694   4.228   3.814 -0.6469 -0.4127 -2.2523
  192MOL    H3723339   1.795   4.456   3.855  0.9968 -0.1290  0.1611
  192MOL    C3823340   1.827   4.396   3.653  0.8603 -0.0415 -0.1061
  192MOL    C3923341   1.935   4.505   3.626 -0.3797  0.2129 -0.3729
  192MOL   Cl4023342   2.017   4.475   3.468 -0.2659  0.2946 -0.1944
  192MOL    H4123343   1.760   4.378   3.569 -0.6942 -0.9288  1.3149
  192MOL    H4223344   1.877   4.304   3.682 -0.4810 -0.9940 -0.7980
  192MOL    H4323345   1.871   4.592   3.610 -0.0393  0.6171  0.4551
  192MOL    C4423346   2.046   4.521   3.730 -1.0689  0.5979 -0.1805
  192MOL    C4523347   2.137   4.400   3.763  1.1289 -0.3433 -0.8413
  192MOL   Cl4623348   2.059   4.297   3.883 -0.2033 -0.4219 -0.0178
  192MOL    H4723349   1.999   4.558   3.821 -0.8471  0.4775 -0.0178
  192MOL    H4823350   2.118   4.600   3.707  0.4843 -1.3804 -2.3303
  192MOL    H4923351   2.140   4.341   3.671  0.5226  0.3504 -1.3142
  192MOL    C5023352   2.280   4.437   3.803  0.4843  0.1370 -0.0540
  192MOL    C5123353   2.368   4.308   3.820 -0.0747  0.3230  0.3766
  192MOL   Cl5223354   2.534   4.373   3.874 -0.0767  0.0923 -0.2559
  192MOL    H5323355   2.271   4.483   3.901 -0.0715  1.8322 -0.8628
  192MOL    H5423356   2.336   4.503   3.736 -1.6799 -0.2724 -2.3498
  192MOL    H5523357   2.335   4.244   3.901  0.3763 -1.6720 -0.9719
  192MOL    C5623358   2.386   4.217   3.691  0.1980 -0.3102  0.2001
  192MOL    C5723359   2.503   4.124   3.693  0.8334 -0.1074  0.4896
  192MOL   Cl5823360   2.518   4.044   3.532  0.1292  0.4467  0.1220
  192MOL    H5923361   2.405   4.291   3.613 -0.2087 -0.5836 -0.1693
  192MOL    H6023362   2.310   4.150   3.649  0.3185  0.0014 -0.5144
  192MOL    H6123363   2.591   4.186   3.705 -0.4328  2.2937 -2.0914
  192MOL    C6223364   2.499   4.007   3.799  0.2244 -0.1549 -0.0422
  192MOL    C6323365   2.643   3.960   3.846  0.2299  0.2011  0.3963
  192MOL   Cl6423366   2.711   4.092   3.938 -0.1091  0.3556  0.0820
  192MOL    H6523367   2.435   3.921   3.779 -0.6141  0.8696 -1.8641
  192MOL    H6623368   2.453   4.040   3.892  0.0216  1.3789 -0.6760
  192MOL    H6723369   2.626   3.883   3.921  0.9110 -1.2203 -0.8847
  192MOL    C6823370   2.739   3.904   3.749 -1.0503 -0.5493 -0.1763
  192MOL    C6923371   2.691   3.780   3.679 -0.2365 -0.4857  0.0039
  192MOL   Cl7023372   2.710   3.653   3.795 -0.3329 -0.1485 -0.0928
  192MOL    H7123373   2.836   3.891   3.797 -1.2774 -0.3024  0.3487
  192MOL    H7223374   2.753   3.985   3.678  0.6156  0.3719  1.1635
  192MOL    H7323375   2.582   3.785   3.669 -0.1337 -0.3122 -1.0965
  192MOL    C7423376   2.770   3.729   3.554  0.6076 -0.2995 -0.2014
  192MOL    C7523377   2.712   3.615   3.464 -0.3517  0.6381 -0.2365
  192MOL   Cl7623378   2.840   3.557   3.356  0.0608 -0.2009 -0.1823
  192MOL    H7723379   2.869   3.699   3.590  0.5012 -0.3040  0.0918
  192MOL    H7823380   2.796   3.811   3.486 -1.6279 -1.8431 -3.0188
  192MOL    H7923381   2.677   3.536   3.531  0.2907 -1.5724 -2.4379
  192MOL    C8023382   2.596   3.653   3.363 -0.1499 -0.0151  0.1499
  192MOL    C8123383   2.465   3.679   3.425  0.7224  0.4727 -0.6173
  192MOL   Cl8223384   2.420   3.555   3.542  0.3019 -0.0202  0.0770
  192MOL    H8323385   2.591   3.568   3.296  0.5945 -1.5475  1.9912
  192MOL    H8423386   2.632   3.735   3.301 -0.7145 -0.5455 -0.8803
  192MOL    H8523387   2.478   3.772   3.482 -0.3392  0.8576 -0.9919
  192MOL    C8623388   2.344   3.712   3.337  1.3484  0.1392  0.6755
  192MOL    C8723389   2.211   3.747   3.411 -0.9124 -0.1995  0.8656
  192MOL   Cl8823390   2.081   3.693   3.305 -0.0059  0.0415 -0.0787
  192MOL    H8923391   2.326   3.638   3.260 -3.6968  1.5958  0.2755
  192MOL    H9023392   2.379   3.794   3.274  0.5506  0.6063  0.8364
  192MOL    H9123393   2.204   3.685   3.501  1.7411  2.0323  2.6847
  192MOL    C9223394   2.194   3.894   3.436  0.8190 -0.4386 -0.3144
  192MOL    C9323395   2.082   3.934   3.540 -0.6319  0.0471  0.7329
  192MOL   Cl9423396   2.073   4.112   3.541  0.4052 -0.2196  0.4972
  192MOL    H9523397   2.185   3.939   3.336  0.4710 -0.9554 -0.5171
  192MOL    H9623398   2.289   3.930   3.475  0.2049  0.5887  0.2540
  192MOL    H9723399   1.985   3.899   3.501 -0.1849 -1.8369  1.2368
  192MOL    C9823400   2.103   3.879   3.681 -0.2393  0.0743  0.6420
  192MOL    C9923401   2.000   3.902   3.786 -0.1118 -0.6281 -0.2785
  192MOL  Cl10023402   2.088   3.868   3.935 -0.1051 -0.2987  0.1074
  192MOL   H10123403   2.200   3.923   3.704 -0.1465  0.3765 -0.3473
  192MOL   H10223404   2.122   3.772   3.681  1.1141  0.3028 -0.3823
  192MOL   H10323405   1.999   4.011   3.787  1.6110 -0.5943  0.3288
  192MOL   C10423406   1.875   3.816   3.783  0.6719 -0.2161  0.5111
  192MOL   C10523407   1.746   3.869   3.853  0.1317 -0.6116  0.4925
  192MOL  Cl10623408   1.776   3.902   4.032 -0.1187 -0.1113  0.1536
  192MOL   H10723409   1.904   3.713   3.803  0.1678 -0.3998  0.2985
  192MOL   H10823410   1.836   3.812   3.682  1.4400 -2.5543  0.2844
  192MOL   H10923411   1.718   3.963   3.807  1.6392 -1.4708 -2.3481
  192MOL   C11023412   1.630   3.764   3.869  0.4122 -0.0604  0.4020
  192MOL   C11123413   1.564   3.734   3.741 -0.0785 -0.1276  0.6718
  192MOL  Cl11223414   1.451   3.870   3.714  0.2056  0.1529  0.0266
  192MOL   H11323415   1.559   3.792   3.946  1.5149  0.1279  1.3690
  192MOL   H11423416   1.672   3.675   3.917  1.5107 -0.1558 -0.6971
  192MOL   H11523417   1.641   3.742   3.665  1.8644 -0.8174  2.5009
  192MOL   C11623418   1.488   3.605   3.737  0.3375 -0.2675  0.4805
  192MOL   C11723419   1.447   3.561   3.593  0.6741 -0.0714 -0.4262
  192MOL  Cl11823420   1.577   3.542   3.483 -0.0800 -0.1394  0.1498
  192MOL   H11923421   1.399   3.628   3.795  0.1764  0.0384  0.1187
  192MOL   H12023422   1.534   3.515   3.778 -0.7611 -0.3331  1.6084
  192MOL   H12123423   1.386   3.471   3.601  0.3721  0.3506  3.3303
  192MOL   H12223424   1.396   3.645   3.546 -0.7828 -0.1986  0.8481
  193MOL     C123425   0.802   3.367   6.193 -0.4251 -0.2326  0.6144
  193MOL     C223426   0.819   3.432   6.054 -0.1519 -0.1261 -0.2844
  193MOL    Cl323427   0.958   3.367   5.965  0.2251  0.0967 -0.4085
  193MOL     H423428   0.879   3.394   6.265 -0.2466  1.0191 -0.0279
  193MOL     H523429   0.709   3.383   6.248 -1.2148 -1.4725 -0.3206
  193MOL     H623430   0.731   3.419   5.992  0.4226  0.1566 -1.1679
  193MOL     H723431   0.811   3.259   6.184 -0.1915 -0.1179 -0.6736
  193MOL     C823432   0.830   3.587   6.072 -0.0124 -1.0637 -1.0277
  193MOL     C923433   0.814   3.676   5.946  0.5645  0.0065 -0.6878
  193MOL   Cl1023434   0.871   3.841   5.976  0.4781 -0.3543 -0.0222
  193MOL    H1123435   0.927   3.616   6.112 -0.6543 -1.2534  0.7028
  193MOL    H1223436   0.760   3.624   6.147  2.3545  0.0017  0.7285
  193MOL    H1323437   0.874   3.633   5.866 -0.7234 -4.0629  0.4215
  193MOL    C1423438   0.667   3.689   5.897  0.5836  0.6293 -0.4064
  193MOL    C1523439   0.661   3.720   5.754  0.2846  0.3845  0.5406
  193MOL   Cl1623440   0.727   3.878   5.712  0.0853 -0.3220  0.1493
  193MOL    H1723441   0.613   3.757   5.964  0.3813 -0.2790  0.3664
  193MOL    H1823442   0.625   3.590   5.915  0.7878  0.4010 -1.1955
  193MOL    H1923443   0.732   3.654   5.704 -0.5154  1.1042 -1.6210
  193MOL    C2023444   0.520   3.718   5.703  0.6382 -0.3622  0.2753
  193MOL    C2123445   0.442   3.582   5.710  0.2076  0.8858 -0.2747
  193MOL   Cl2223446   0.546   3.447   5.689 -0.2004  0.1816  0.1025
  193MOL    H2323447   0.530   3.761   5.603  3.9370 -0.8656  0.3576
  193MOL    H2423448   0.453   3.793   5.745  2.3839  2.0239 -1.1066
  193MOL    H2523449   0.402   3.578   5.811  1.6177  0.0839  0.2697
  193MOL    C2623450   0.322   3.574   5.614 -0.7225 -0.2285  0.1053
  193MOL    C2723451   0.351   3.575   5.459 -0.1732 -0.7574  0.3986
  193MOL   Cl2823452   0.341   3.747   5.407  0.1489 -0.0137  0.3169
  193MOL    H2923453   0.248   3.653   5.628  2.1282  2.5589 -0.1225
  193MOL    H3023454   0.278   3.477   5.640  0.5684 -0.3806  1.7568
  193MOL    H3123455   0.455   3.543   5.449 -0.0143 -0.4706  1.0651
  193MOL    C3223456   0.247   3.507   5.376  0.2894  0.8959 -0.2304
  193MOL    C3323457   0.272   3.488   5.227  0.2990  0.4428 -0.3960
  193MOL   Cl3423458   0.140   3.392   5.163 -0.3290 -0.3250  0.2233
  193MOL    H3523459   0.146   3.548   5.386 -0.8923 -1.6398 -1.2364
  193MOL    H3623460   0.231   3.408   5.420 -0.9811  0.4919 -1.5659
  193MOL    H3723461   0.274   3.582   5.173  1.0735  0.7523  0.1528
  193MOL    C3823462   0.407   3.420   5.197 -0.4706  0.0948 -0.0651
  193MOL    C3923463   0.429   3.371   5.049 -0.1209 -0.6473 -0.3649
  193MOL   Cl4023464   0.571   3.259   5.044  0.3050 -0.3830 -0.0325
  193MOL    H4123465   0.401   3.326   5.253 -1.4568 -1.3931 -2.5669
  193MOL    H4223466   0.496   3.471   5.232 -1.0782  1.0279  0.1288
  193MOL    H4323467   0.346   3.310   5.011 -1.0949  0.0721  0.5739
  193MOL    C4423468   0.454   3.493   4.956 -0.5529  0.4731 -0.1790
  193MOL    C4523469   0.459   3.466   4.804  1.8832  0.6656  0.5839
  193MOL   Cl4623470   0.468   3.634   4.738  0.0029  0.3866  0.0451
  193MOL    H4723471   0.546   3.542   4.988  0.7033 -0.8484 -1.7024
  193MOL    H4823472   0.367   3.558   4.969 -1.8624 -0.7563 -2.5005
  193MOL    H4923473   0.555   3.418   4.783  1.4719 -0.0371  0.2814
  193MOL    C5023474   0.341   3.386   4.741 -1.3139  0.2495 -0.6899
  193MOL    C5123475   0.373   3.323   4.598  0.1085  0.2343  0.4280
  193MOL   Cl5223476   0.314   3.433   4.467  0.2405  0.2894 -0.2733
  193MOL    H5323477   0.251   3.447   4.740 -1.1860  0.4363 -1.0541
  193MOL    H5423478   0.320   3.306   4.812 -0.0063 -0.2593 -0.8729
  193MOL    H5523479   0.481   3.333   4.588  0.1326  0.1780  0.6428
  193MOL    C5623480   0.317   3.176   4.582  0.0996  1.0342  0.6879
  193MOL    C5723481   0.349   3.110   4.445 -0.0423 -0.3133 -0.5522
  193MOL   Cl5823482   0.228   2.972   4.422 -0.0802  0.3940 -0.1183
  193MOL    H5923483   0.208   3.177   4.576  0.0677 -1.5013  0.3720
  193MOL    H6023484   0.359   3.118   4.665  2.2006 -0.1486 -1.1397
  193MOL    H6123485   0.311   3.187   4.378  0.2188  1.1733  0.9733
  193MOL    C6223486   0.487   3.062   4.413  0.0357  0.0924 -0.6238
  193MOL    C6323487   0.524   3.009   4.278 -1.1828 -0.2236  0.8008
  193MOL   Cl6423488   0.683   2.951   4.285 -0.0315  0.0521 -0.1068
  193MOL    H6523489   0.505   2.981   4.483  1.5177  0.4574 -0.5548
  193MOL    H6623490   0.556   3.142   4.440 -0.3184  0.0905  0.2901
  193MOL    H6723491   0.464   2.919   4.263 -2.1248  0.2168  1.8101
  193MOL    C6823492   0.502   3.111   4.161 -0.3793 -0.4897 -0.0838
  193MOL    C6923493   0.511   3.067   4.012 -0.1700  0.2745 -0.3644
  193MOL   Cl7023494   0.510   3.217   3.921 -0.2775 -0.4584  0.0399
  193MOL    H7123495   0.564   3.196   4.189 -0.4431 -0.2833 -0.5792
  193MOL    H7223496   0.398   3.142   4.166 -0.4300 -0.8828  1.8348
  193MOL    H7323497   0.609   3.019   4.011 -1.7011 -2.9884  0.8423
  193MOL    C7423498   0.406   2.971   3.967  0.1973 -0.3912  0.4961
  193MOL    C7523499   0.459   2.828   3.962 -0.0409 -0.2319 -0.4609
  193MOL   Cl7623500   0.597   2.820   3.850  0.0156 -0.2782 -0.0618
  193MOL    H7723501   0.383   3.006   3.866  1.6332  0.2359  0.3730
  193MOL    H7823502   0.313   2.991   4.020 -0.2945  1.1811 -0.8935
  193MOL    H7923503   0.503   2.803   4.058 -0.4782 -0.5093 -0.3319
  193MOL    C8023504   0.354   2.730   3.912 -0.2893  0.0133 -0.5455
  193MOL    C8123505   0.245   2.714   4.012  0.2968  0.0653 -0.3514
  193MOL   Cl8223506   0.321   2.629   4.158  0.2835  0.0501 -0.0271
  193MOL    H8323507   0.382   2.627   3.887 -3.0130 -0.8397 -0.2422
  193MOL    H8423508   0.328   2.758   3.810  0.4349 -2.3426 -1.4080
  193MOL    H8523509   0.205   2.812   4.039  1.3269  0.4225 -0.0928
  193MOL    C8623510   0.111   2.640   3.966 -0.1850  0.8834  0.1794
  193MOL    C8723511   8.516   2.653   4.069 -0.8952 -0.4134  0.3842
  193MOL   Cl8823512   8.406   2.501   4.071 -0.3867 -0.3697 -0.2179
  193MOL    H8923513   0.135   2.534   3.960 -1.8770  0.5738 -1.5984
  193MOL    H9023514   0.089   2.674   3.864  2.4152  1.0176 -0.3806
  193MOL    H9123515   0.038   2.660   4.166 -0.4484  1.0031  0.0644
  193MOL    C9223516   8.437   2.786   4.042 -0.2028 -0.9265 -0.3694
  193MOL    C9323517   8.360   2.839   4.157 -0.0256 -0.0228  0.1116
  193MOL   Cl9423518   8.228   2.941   4.103  0.3074 -0.1959  0.2977
  193MOL    H9523519   8.370   2.768   3.958 -2.2471 -0.7356  1.1947
  193MOL    H9623520   8.505   2.866   4.012 -0.4391 -0.2752  0.7908
  193MOL    H9723521   8.319   2.747   4.199 -0.1483 -1.0436 -2.1412
  193MOL    C9823522   8.443   2.910   4.257  0.3350 -0.4853  0.4433
  193MOL    C9923523   8.392   2.925   4.400  0.1552 -0.8836 -0.3741
  193MOL  Cl10023524   8.333   2.772   4.464  0.4215 -0.0868  0.0590
  193MOL   H10123525   8.459   3.012   4.224 -0.2925 -0.1988  1.0086
  193MOL   H10223526   0.013   2.858   4.260 -0.2714 -1.6422  0.1724
  193MOL   H10323527   8.488   2.932   4.452 -0.1128 -1.0601  0.1458
  193MOL   C10423528   8.302   3.044   4.435  0.1020  0.3516  0.4439
  193MOL   C10523529   8.283   3.073   4.589  0.6344  0.2842 -0.0448
  193MOL  Cl10623530   8.152   3.198   4.585  0.1485 -0.4157  0.1849
  193MOL   H10723531   8.209   3.021   4.383  0.1150 -0.6567  0.8588
  193MOL   H10823532   8.333   3.140   4.393 -2.1544  0.5172 -0.9596
  193MOL   H10923533   8.240   2.987   4.641  2.7083 -0.9123 -0.2443
  193MOL   C11023534   8.411   3.123   4.671  0.0480 -0.5178  0.4911
  193MOL   C11123535   8.390   3.172   4.813  0.3792 -0.3357 -0.0976
  193MOL  Cl11223536   8.512   3.292   4.842 -0.1724  0.1323  0.5023
  193MOL   H11323537   8.442   3.211   4.614  0.0082 -0.8728 -0.0856
  193MOL   H11423538   8.494   3.055   4.653  0.2553  0.1773 -1.2618
  193MOL   H11523539   8.291   3.216   4.824  0.3443 -0.9804  2.6369
  193MOL   C11623540   8.391   3.049   4.909 -0.6861 -0.2433 -0.3309
  193MOL   C11723541   8.339   3.075   5.047  0.3627 -0.2367 -0.9578
  193MOL  Cl11823542   8.363   2.937   5.160 -0.2056 -0.5047 -0.2712
  193MOL   H11923543   8.496   3.023   4.920 -0.1643  2.4116  1.2941
  193MOL   H12023544   8.326   2.968   4.875 -1.7177  1.4226 -2.4377
  193MOL   H12123545   8.390   3.165   5.082 -1.0057  0.7638 -1.4565
  193MOL   H12223546   8.233   3.099   5.036  0.5277  1.1342  0.2056
  194MOL     C123547   5.521   2.539   2.040  0.5739 -0.9785 -0.2707
  194MOL     C223548   5.632   2.629   2.086 -0.1736  0.0933 -0.1085
  194MOL    Cl323549   5.685   2.721   1.937  0.1324  0.1558 -0.3747
  194MOL     H423550   5.474   2.484   2.122 -0.7744  0.0024 -0.3685
  194MOL     H523551   5.433   2.594   2.007 -0.2975 -1.9098  0.4737
  194MOL     H623552   5.588   2.706   2.149 -0.7912 -0.4327  0.0966
  194MOL     H723553   5.554   2.465   1.967 -2.2548 -1.2395 -1.3682
  194MOL     C823554   5.747   2.553   2.152 -0.6510 -0.3576 -1.3027
  194MOL     C923555   5.878   2.632   2.178 -0.3924 -0.4863 -0.6234
  194MOL   Cl1023556   6.003   2.516   2.244  0.0431  0.2625  0.0318
  194MOL    H1123557   5.759   2.459   2.098  0.4305 -0.0683 -1.5772
  194MOL    H1223558   5.717   2.521   2.252  0.3292  2.7364  0.0217
  194MOL    H1323559   5.918   2.663   2.081 -0.5149 -1.5248 -1.0183
  194MOL    C1423560   5.858   2.759   2.270  0.0709  0.3217 -0.4495
  194MOL    C1523561   5.989   2.842   2.295  0.0370 -0.4904  0.5018
  194MOL   Cl1623562   5.957   2.934   2.439 -0.3567 -0.2895 -0.3565
  194MOL    H1723563   5.816   2.722   2.363 -1.4075  0.0616 -1.2046
  194MOL    H1823564   5.781   2.822   2.227 -0.5256 -0.9653 -1.3283
  194MOL    H1923565   6.069   2.774   2.325  1.0995  0.6428  0.2984
  194MOL    C2023566   6.039   2.944   2.191  0.3617  0.7459  0.3356
  194MOL    C2123567   6.097   2.906   2.057 -0.6450  0.2870  0.2148
  194MOL   Cl2223568   6.237   2.791   2.079  0.1239  0.4769 -0.0978
  194MOL    H2323569   6.107   3.015   2.239  2.1789 -0.3344 -0.5632
  194MOL    H2423570   5.946   2.993   2.164 -0.5862 -0.4681  1.3289
  194MOL    H2523571   6.016   2.882   1.987 -0.1920  0.6482 -0.4445
  194MOL    C2623572   6.149   3.032   1.991  0.4909  0.2609 -0.4651
  194MOL    C2723573   6.157   3.030   1.838 -0.3396  0.5266  0.0927
  194MOL   Cl2823574   6.256   3.167   1.790 -0.2450 -0.1763 -0.1286
  194MOL    H2923575   6.249   3.055   2.028  0.0464  0.0906  0.8964
  194MOL    H3023576   6.094   3.121   2.019  0.8768  0.5962 -0.7817
  194MOL    H3123577   6.207   2.935   1.818 -0.9244 -0.0133  1.1435
  194MOL    C3223578   6.027   3.046   1.760  0.6748  0.5735  0.3185
  194MOL    C3323579   5.959   2.919   1.695 -1.1383  0.2201  0.4879
  194MOL   Cl3423580   6.087   2.831   1.602 -0.5873 -0.2400  0.2585
  194MOL    H3523581   6.059   3.099   1.670  1.9060  0.7731  0.8712
  194MOL    H3623582   5.956   3.113   1.807  0.7305  0.1248  1.0459
  194MOL    H3723583   5.918   2.849   1.768  0.2100  1.6965  2.7154
  194MOL    C3823584   5.837   2.953   1.598 -0.6430 -0.2936 -0.5988
  194MOL    C3923585   5.716   2.865   1.619  0.2997  0.8808  0.2494
  194MOL   Cl4023586   5.762   2.696   1.577  0.3449  0.4160  0.0835
  194MOL    H4123587   5.867   2.942   1.493  2.0282 -0.2446  0.1330
  194MOL    H4223588   5.808   3.055   1.618  0.2335 -0.7141  3.1050
  194MOL    H4323589   5.693   2.879   1.725  0.9786 -0.1091  0.5354
  194MOL    C4423590   5.599   2.909   1.532  0.2534  1.2117 -0.6269
  194MOL    C4523591   5.529   3.038   1.567  0.0767  0.5821  0.5162
  194MOL   Cl4623592   5.395   2.996   1.682  0.0295  0.0963  0.4777
  194MOL    H4723593   5.527   2.831   1.506  1.2573  0.1870 -0.3455
  194MOL    H4823594   5.655   2.901   1.438 -1.1023 -0.3178 -1.3255
  194MOL    H4923595   5.601   3.106   1.612  1.2808  0.5354 -1.2986
  194MOL    C5023596   5.459   3.089   1.437 -0.6094  0.3305  0.3789
  194MOL    C5123597   5.572   3.133   1.335 -0.6483 -0.0791 -0.6055
  194MOL   Cl5223598   5.683   3.254   1.416  0.1752  0.1399 -0.4253
  194MOL    H5323599   5.391   3.170   1.462  0.5330  1.6331 -0.6837
  194MOL    H5423600   5.391   3.012   1.399  0.4167  0.4218 -1.7024
  194MOL    H5523601   5.634   3.047   1.309  0.5745 -0.2040  2.4536
  194MOL    C5623602   5.522   3.193   1.196  0.5927  0.0588  0.4970
  194MOL    C5723603   5.420   3.102   1.121 -0.6668  0.2668 -0.7717
  194MOL   Cl5823604   5.493   2.944   1.087 -0.1584 -0.2591  0.1986
  194MOL    H5923605   5.605   3.208   1.128  0.9887  1.9161  1.3480
  194MOL    H6023606   5.472   3.288   1.217  1.5073  0.7634 -0.4452
  194MOL    H6123607   5.334   3.082   1.185  0.0171 -1.4169 -0.3483
  194MOL    C6223608   5.365   3.170   0.999  0.5907 -0.6087  0.7090
  194MOL    C6323609   5.256   3.285   1.015 -0.3430  0.2592  0.5210
  194MOL   Cl6423610   5.109   3.212   1.085 -0.0900 -0.5628  0.2771
  194MOL    H6523611   5.312   3.098   0.936 -0.2585  1.7036 -1.3063
  194MOL    H6623612   5.446   3.212   0.940  1.6222 -0.1892  2.3809
  194MOL    H6723613   5.296   3.348   1.094  1.7769 -3.0230  2.2083
  194MOL    C6823614   5.230   3.365   0.886 -0.3194  0.1289  0.2056
  194MOL    C6923615   5.349   3.448   0.835 -0.1264 -0.0418 -0.0906
  194MOL   Cl7023616   5.296   3.606   0.874 -0.2952 -0.2327 -0.4657
  194MOL    H7123617   5.140   3.422   0.907 -0.7950 -0.2821 -0.6930
  194MOL    H7223618   5.198   3.296   0.808 -0.0248  0.5883 -0.3234
  194MOL    H7323619   5.439   3.432   0.895  0.2038 -0.6093 -0.7341
  194MOL    C7423620   5.376   3.443   0.684 -0.3390 -0.6411 -0.0751
  194MOL    C7523621   5.450   3.318   0.644  0.0722  0.1188 -0.0122
  194MOL   Cl7623622   5.567   3.353   0.508 -0.2497  0.2650 -0.1355
  194MOL    H7723623   5.439   3.531   0.669  0.5833 -0.9733  1.7151
  194MOL    H7823624   5.291   3.471   0.622  0.3227 -0.3366 -0.8540
  194MOL    H7923625   5.509   3.300   0.734  1.4136  0.4697 -0.8000
  194MOL    C8023626   5.361   3.195   0.601 -0.7688  0.5882 -0.3158
  194MOL    C8123627   5.446   3.069   0.576 -0.6296 -0.3343 -0.1967
  194MOL   Cl8223628   5.328   2.943   0.547  0.1378 -0.0843 -0.0592
  194MOL    H8323629   5.307   3.219   0.509  0.4064  0.7554 -0.9747
  194MOL    H8423630   5.290   3.169   0.679  1.7014  0.5939  2.0225
  194MOL    H8523631   5.504   3.075   0.483  2.1972  3.3588  1.6998
  194MOL    C8623632   5.534   3.033   0.694 -0.0642 -0.0949 -0.0227
  194MOL    C8723633   5.601   2.896   0.670  0.0359  0.0599  0.4523
  194MOL   Cl8823634   5.694   2.858   0.816 -0.1458 -0.0519  0.0842
  194MOL    H8923635   5.473   3.042   0.784  2.1744 -1.8017  1.7268
  194MOL    H9023636   5.612   3.108   0.692  1.1415 -1.3558 -1.9964
  194MOL    H9123637   5.519   2.824   0.670 -1.6262  1.8869  1.9331
  194MOL    C9223638   5.692   2.883   0.542  0.9139  0.4184 -0.3222
  194MOL    C9323639   5.752   2.742   0.536  0.1110  0.1122  0.2883
  194MOL   Cl9423640   5.829   2.729   0.372  0.0395  0.4592 -0.0176
  194MOL    H9523641   5.771   2.958   0.545  1.2771  0.0037  2.5984
  194MOL    H9623642   5.638   2.897   0.448  0.1826  1.0407  0.1816
  194MOL    H9723643   5.836   2.746   0.605  1.7730  0.7355 -1.7082
  194MOL    C9823644   5.653   2.625   0.563  0.1922 -0.0941  0.4307
  194MOL    C9923645   5.728   2.495   0.544 -0.0655 -0.1436  0.9518
  194MOL  Cl10023646   5.612   2.366   0.488 -0.4033 -0.1876  0.2405
  194MOL   H10123647   5.585   2.643   0.480 -2.0227  0.4789  2.3180
  194MOL   H10223648   5.613   2.633   0.664  0.6054  2.0642  0.4460
  194MOL   H10323649   5.803   2.506   0.466 -2.0531 -0.9330 -1.1182
  194MOL   C10423650   5.793   2.450   0.677  0.7938  0.0123 -0.4766
  194MOL   C10523651   5.855   2.309   0.674  0.6875  0.6228  0.9787
  194MOL  Cl10623652   5.925   2.280   0.833 -0.1807 -0.2961 -0.2553
  194MOL   H10723653   5.709   2.432   0.744 -0.6462  1.8742 -1.7204
  194MOL   H10823654   5.853   2.526   0.727 -2.2132  0.3647  2.8411
  194MOL   H10923655   5.775   2.242   0.643  0.3712  1.0752  0.8085
  194MOL   C11023656   5.970   2.283   0.575  0.2276 -0.1267  0.1485
  194MOL   C11123657   5.939   2.233   0.430 -0.1583 -0.1511  0.3970
  194MOL  Cl11223658   5.883   2.067   0.450  0.1025  0.0291  0.4113
  194MOL   H11323659   6.043   2.219   0.625  1.2749  1.7691  1.1509
  194MOL   H11423660   6.023   2.378   0.566 -2.9641  1.6092 -0.8231
  194MOL   H11523661   5.859   2.301   0.401 -0.5887 -1.5877 -1.8762
  194MOL   C11623662   6.051   2.238   0.323 -0.2239 -0.7336  0.1881
  194MOL   C11723663   6.086   2.378   0.280 -0.1503 -0.4415 -0.2373
  194MOL  Cl11823664   6.231   2.363   0.179 -0.1433  0.0379  0.1892
  194MOL   H11923665   6.008   2.187   0.237 -0.1448 -0.3860 -0.0600
  194MOL   H12023666   6.141   2.186   0.356  0.7176 -0.1952 -1.4508
  194MOL   H12123667   6.014   2.433   0.220 -0.9025  0.1800  1.2174
  194MOL   H12223668   6.121   2.435   0.366  0.7668 -3.1313  1.2484
  195MOL     C123669   4.815   2.130   3.855 -0.2956 -0.6747 -0.0855
  195MOL     C223670   4.746   2.006   3.900 -0.1840  0.6752 -0.4155
  195MOL    Cl323671   4.877   1.886   3.934  0.0873  0.0590  0.2836
  195MOL     H423672   4.746   2.213   3.840  0.4273  0.0949  0.7238
  195MOL     H523673   4.863   2.167   3.947 -0.8172 -0.6261  0.1675
  195MOL     H623674   4.696   2.020   3.995  0.7674 -0.0449  0.2050
  195MOL     H723675   4.885   2.121   3.772  2.1675  2.0605  1.5651
  195MOL     C823676   4.641   1.944   3.803 -0.0953 -0.4000  0.2526
  195MOL     C923677   4.539   2.044   3.760  0.1433  0.0262 -0.6809
  195MOL   Cl1023678   4.432   2.069   3.904 -0.1585  0.0697  0.3484
  195MOL    H1123679   4.600   1.861   3.860  2.8770 -0.9724  1.6825
  195MOL    H1223680   4.698   1.916   3.714  1.3516  0.8175  0.7563
  195MOL    H1323681   4.587   2.139   3.734 -0.2689  0.6868  0.9427
  195MOL    C1423682   4.453   1.995   3.642 -0.1060  0.3278 -0.0713
  195MOL    C1523683   4.527   1.967   3.514 -0.3673 -0.1228 -0.0089
  195MOL   Cl1623684   4.615   2.116   3.475 -0.0639 -0.1991  0.0408
  195MOL    H1723685   4.364   2.057   3.635 -1.2143 -1.1783  0.1828
  195MOL    H1823686   4.398   1.907   3.678  0.3413  0.0115 -0.1554
  195MOL    H1923687   4.598   1.883   3.519 -2.4331 -1.9378 -0.4205
  195MOL    C2023688   4.436   1.934   3.393 -0.2081  1.1117  0.0674
  195MOL    C2123689   4.496   1.849   3.275 -0.9629 -0.3993 -0.7532
  195MOL   Cl2223690   4.571   1.700   3.338  0.3224  0.2619  0.4703
  195MOL    H2323691   4.387   2.019   3.346 -0.3168  0.0756 -1.7366
  195MOL    H2423692   4.368   1.864   3.444  2.1462  0.3460  2.2550
  195MOL    H2523693   4.418   1.809   3.209 -1.7551 -2.2780  1.2709
  195MOL    C2623694   4.602   1.925   3.190  0.1057 -0.7133  0.1732
  195MOL    C2723695   4.552   2.036   3.100  0.1976  0.6781  0.7643
  195MOL   Cl2823696   4.425   1.963   2.992 -0.0011 -0.0920 -0.0783
  195MOL    H2923697   4.643   1.851   3.121  0.9725  1.0701 -1.2802
  195MOL    H3023698   4.683   1.963   3.252  2.4336 -0.8632 -2.6853
  195MOL    H3123699   4.502   2.112   3.161  0.0572  0.2811  1.1481
  195MOL    C3223700   4.665   2.099   3.004  0.1919 -0.5964 -0.2391
  195MOL    C3323701   4.776   2.177   3.076 -0.0323  0.1986  0.0128
  195MOL   Cl3423702   4.694   2.311   3.153  0.2750 -0.1093 -0.2955
  195MOL    H3523703   4.617   2.161   2.928 -0.6424 -0.4668  0.3879
  195MOL    H3623704   4.716   2.024   2.944  1.3291 -1.3413  1.6066
  195MOL    H3723705   4.816   2.119   3.160  1.2862  2.3891  0.9327
  195MOL    C3823706   4.902   2.221   2.992  0.1567  0.4646 -0.0638
  195MOL    C3923707   4.877   2.329   2.885 -1.1976  0.1627  0.8460
  195MOL   Cl4023708   4.781   2.262   2.751 -0.0753 -0.1468 -0.3524
  195MOL    H4123709   4.945   2.134   2.942 -0.7979 -1.3911  2.2502
  195MOL    H4223710   4.965   2.256   3.073 -0.6037 -0.3923  0.9048
  195MOL    H4323711   4.814   2.408   2.926 -2.1469  0.6754 -1.5149
  195MOL    C4423712   5.004   2.396   2.824 -0.9646 -0.0586 -0.0692
  195MOL    C4523713   5.113   2.429   2.930  0.0849  0.3724 -0.4772
  195MOL   Cl4623714   5.067   2.536   3.063  0.0834 -0.1461  0.0992
  195MOL    H4723715   4.983   2.485   2.764 -1.5194 -0.1742 -0.0505
  195MOL    H4823716   5.047   2.331   2.749 -0.1025 -1.5643  1.6933
  195MOL    H4923717   5.142   2.335   2.976  0.7327 -0.1286 -1.8605
  195MOL    C5023718   5.233   2.496   2.851 -0.9513  0.7217  0.1979
  195MOL    C5123719   5.324   2.399   2.770 -1.3746  0.0518  0.8500
  195MOL   Cl5223720   5.392   2.283   2.878  0.2641  0.0731 -0.1867
  195MOL    H5323721   5.289   2.552   2.926 -0.0854  1.1792 -0.7704
  195MOL    H5423722   5.193   2.579   2.792  0.4915  1.7799  0.6803
  195MOL    H5523723   5.268   2.337   2.699  3.0487 -1.3005 -1.6959
  195MOL    C5623724   5.445   2.472   2.699 -0.0352 -0.1673  0.6556
  195MOL    C5723725   5.398   2.546   2.569  1.1057 -0.2184  0.3511
  195MOL   Cl5823726   5.368   2.432   2.432  0.0801  0.0590 -0.5085
  195MOL    H5923727   5.527   2.404   2.674  0.5720  0.3964  1.1093
  195MOL    H6023728   5.485   2.540   2.774  1.7504 -0.2250 -0.2106
  195MOL    H6123729   5.303   2.598   2.580  1.9822  1.6018 -0.6807
  195MOL    C6223730   5.497   2.653   2.535 -0.3377  0.1592  0.0897
  195MOL    C6323731   5.511   2.769   2.635 -0.2678  0.0961  0.0132
  195MOL   Cl6423732   5.372   2.872   2.614  0.2640 -0.4722 -0.1651
  195MOL    H6523733   5.472   2.688   2.435 -0.4632 -0.1406  0.0162
  195MOL    H6623734   5.593   2.603   2.523 -1.2392 -1.1101 -1.9287
  195MOL    H6723735   5.500   2.737   2.738  0.1839 -1.2231 -0.3282
  195MOL    C6823736   5.649   2.847   2.623 -0.0354 -0.9984 -0.0469
  195MOL    C6923737   5.690   2.932   2.749 -0.6648  0.0350 -0.1795
  195MOL   Cl7023738   5.680   3.094   2.706  0.1709 -0.2757 -0.1866
  195MOL    H7123739   5.651   2.909   2.533 -0.4349  2.4966  2.2396
  195MOL    H7223740   5.731   2.775   2.619  0.4646 -0.4767  0.7472
  195MOL    H7323741   5.619   2.913   2.830  0.4765 -2.4765  0.2907
  195MOL    C7423742   5.832   2.900   2.797 -0.7540  0.8551  0.4133
  195MOL    C7523743   5.844   2.773   2.873 -0.8935 -0.3894  0.7897
  195MOL   Cl7623744   5.753   2.786   3.022 -0.6618 -0.2480 -0.3405
  195MOL    H7723745   5.862   2.982   2.863 -1.1698  0.0629  1.6163
  195MOL    H7823746   5.904   2.914   2.717  0.1459  2.5928  1.4837
  195MOL    H7923747   5.791   2.691   2.823 -0.0400  0.3590 -1.4207
  195MOL    C8023748   5.991   2.732   2.894  0.3806 -0.0516  1.0852
  195MOL    C8123749   6.008   2.588   2.944  0.3172  1.1009  0.3400
  195MOL   Cl8223750   6.179   2.550   2.983 -0.0539  0.1714  0.3924
  195MOL    H8323751   6.034   2.805   2.962  0.0635  0.0202  1.2080
  195MOL    H8423752   6.033   2.741   2.794 -1.3905 -1.3057  0.2023
  195MOL    H8523753   5.953   2.574   3.038  0.8829  2.6491  0.9063
  195MOL    C8623754   5.950   2.474   2.857 -0.6512  0.1774  0.5327
  195MOL    C8723755   5.992   2.461   2.705 -0.6301  0.0946  0.4685
  195MOL   Cl8823756   5.924   2.588   2.604  0.2110 -0.2733  0.2695
  195MOL    H8923757   5.843   2.462   2.868 -0.5423 -0.3657  1.0092
  195MOL    H9023758   5.981   2.384   2.910 -1.1467 -1.0870 -1.2733
  195MOL    H9123759   6.100   2.469   2.692 -0.2975  1.3380  3.5611
  195MOL    C9223760   5.951   2.320   2.644 -0.4299 -0.1903  0.3733
  195MOL    C9323761   6.053   2.213   2.683  0.1025 -0.2446 -0.7117
  195MOL   Cl9423762   6.215   2.242   2.614  0.0121  0.2101 -0.4398
  195MOL    H9523763   5.916   2.320   2.541 -2.4971  0.6055  1.0585
  195MOL    H9623764   5.860   2.294   2.698  0.8767  0.0288  2.7662
  195MOL    H9723765   6.065   2.205   2.791 -0.1499  1.8910 -0.5036
  195MOL    C9823766   6.007   2.070   2.640  0.0652 -0.2701 -0.3830
  195MOL    C9923767   5.864   2.031   2.686  0.5440 -0.1032  0.2798
  195MOL  Cl10023768   5.850   2.042   2.865  0.0879  0.4721  0.0635
  195MOL   H10123769   6.087   2.002   2.670  0.9023 -0.7595 -3.5784
  195MOL   H10223770   6.014   2.064   2.532 -0.3086  1.4588 -0.5050
  195MOL   H10323771   5.788   2.093   2.639 -0.0104  0.5035  1.9361
  195MOL   C10423772   5.825   1.879   2.651 -0.5844 -0.4723 -0.0638
  195MOL   C10523773   5.681   1.839   2.668  0.6585 -0.2497  0.5478
  195MOL  Cl10623774   5.688   1.666   2.710  0.1423 -0.4789  0.3764
  195MOL   H10723775   5.899   1.816   2.701  1.8168  1.1293 -1.4611
  195MOL   H10823776   5.843   1.870   2.544 -3.9235 -0.4951 -0.6631
  195MOL   H10923777   5.628   1.885   2.752  0.1842  0.5971 -0.2176
  195MOL   C11023778   5.602   1.844   2.531 -0.2309  0.4082  0.1748
  195MOL   C11123779   5.591   1.986   2.467 -0.2983  0.1017 -0.0320
  195MOL  Cl11223780   5.494   2.091   2.583 -0.1076  0.0990 -0.1034
  195MOL   H11323781   5.504   1.796   2.532 -0.1552  0.2856  1.5860
  195MOL   H11423782   5.657   1.788   2.455  1.1170 -0.2607  1.6424
  195MOL   H11523783   5.682   2.044   2.474 -0.9071  0.8998  1.8298
  195MOL   C11623784   5.525   1.989   2.332  0.3530  0.6559 -0.2802
  195MOL   C11723785   5.536   2.114   2.250  0.0178 -0.8009  0.6604
  195MOL  Cl11823786   5.698   2.195   2.217 -0.0599 -0.1506  0.0409
  195MOL   H11923787   5.424   1.955   2.353  0.7388  1.2533  2.6791
  195MOL   H12023788   5.564   1.915   2.262  0.1729  0.2141  0.0869
  195MOL   H12123789   5.482   2.103   2.156 -2.4364  0.0395  1.9328
  195MOL   H12223790   5.476   2.189   2.301 -1.1694 -1.1287 -0.2323
  196MOL     C123791   4.987   0.809   7.016  0.6336  0.7157 -0.0160
  196MOL     C223792   4.987   0.666   6.956 -0.4797  0.0927  0.1833
  196MOL    Cl323793   5.056   0.555   7.082 -0.1555 -0.3708 -0.1634
  196MOL     H423794   4.938   0.821   7.113  0.5437  1.8025 -0.1942
  196MOL     H523795   5.087   0.842   7.041  0.6020 -0.5345  1.8180
  196MOL     H623796   4.883   0.635   6.946 -0.0439 -1.1687 -0.5278
  196MOL     H723797   4.942   0.875   6.942 -0.9301  0.4404  0.6582
  196MOL     C823798   5.054   0.651   6.816  0.7940 -0.3341 -0.3552
  196MOL     C923799   5.199   0.684   6.789  0.6946  0.4692 -0.2473
  196MOL   Cl1023800   5.217   0.859   6.778  0.0837  0.1443  0.3729
  196MOL    H1123801   4.994   0.703   6.742  0.9769  0.3192 -0.0532
  196MOL    H1223802   5.055   0.543   6.800 -2.6740 -0.7553  1.6547
  196MOL    H1323803   5.255   0.651   6.876  0.3235  1.6394  0.4414
  196MOL    C1423804   5.251   0.616   6.655 -0.1674  0.1822 -0.1513
  196MOL    C1523805   5.397   0.642   6.625 -0.0108 -0.2426  0.8966
  196MOL   Cl1623806   5.433   0.577   6.466 -0.0909  0.2227 -0.0187
  196MOL    H1723807   5.210   0.663   6.566 -1.5512 -1.2406 -0.2991
  196MOL    H1823808   5.233   0.508   6.655  0.5598  0.0581 -0.7492
  196MOL    H1923809   5.414   0.749   6.611 -1.9584  0.0669  0.8498
  196MOL    C2023810   5.504   0.588   6.723 -0.7329  0.3461 -0.8675
  196MOL    C2123811   5.655   0.617   6.716  0.8743 -0.2101 -0.0042
  196MOL   Cl2223812   5.683   0.796   6.729 -0.1930 -0.5071  0.2128
  196MOL    H2323813   5.493   0.480   6.736 -0.5401  0.2569 -1.4668
  196MOL    H2423814   5.474   0.632   6.818 -0.7215 -2.2193  0.3788
  196MOL    H2523815   5.692   0.586   6.814 -0.2150  1.3084  0.9073
  196MOL    C2623816   5.736   0.550   6.601  0.2799 -0.2338  0.0848
  196MOL    C2723817   5.748   0.400   6.619  0.0287  0.1370 -0.0906
  196MOL   Cl2823818   5.868   0.392   6.751  0.4505 -0.2440 -0.3997
  196MOL    H2923819   5.835   0.593   6.591  0.2097 -0.4823 -1.8022
  196MOL    H3023820   5.688   0.562   6.503 -1.4027  0.7344  0.9926
  196MOL    H3123821   5.657   0.353   6.658  0.7259 -0.1460  1.2039
  196MOL    C3223822   5.811   0.322   6.493  0.7493  0.5902 -0.0637
  196MOL    C3323823   5.698   0.307   6.384  0.2274 -0.0581 -0.1246
  196MOL   Cl3423824   5.642   0.136   6.375 -0.2336  0.5991  0.5707
  196MOL    H3523825   5.842   0.219   6.509  0.0581  0.5693  1.1476
  196MOL    H3623826   5.895   0.379   6.452  1.1158  0.4228  0.4474
  196MOL    H3723827   5.611   0.363   6.417 -0.1494 -0.9257  0.3736
  196MOL    C3823828   5.745   0.354   6.251 -0.0043 -0.2348 -0.1776
  196MOL    C3923829   5.648   0.341   6.136  0.3424  0.1362 -0.6270
  196MOL   Cl4023830   5.750   0.328   5.993 -0.2347 -0.0172 -0.4366
  196MOL    H4123831   5.826   0.287   6.223  0.0176  0.1453 -1.0321
  196MOL    H4223832   5.780   0.457   6.255  0.7096 -0.4356 -0.9495
  196MOL    H4323833   5.599   0.243   6.140  0.7813 -0.1024 -1.0153
  196MOL    C4423834   5.557   0.466   6.125  0.1613  0.2504  0.0834
  196MOL    C4523835   5.459   0.461   6.012 -0.3258 -0.3238  0.5977
  196MOL   Cl4623836   5.394   0.625   5.999 -0.3783 -0.2131  0.4658
  196MOL    H4723837   5.613   0.560   6.126  1.1549 -0.3243 -0.5267
  196MOL    H4823838   5.506   0.473   6.221  0.1447  0.8573  0.0376
  196MOL    H4923839   5.520   0.455   5.922  0.8079  1.8591  1.1779
  196MOL    C5023840   5.338   0.361   6.028 -0.3043 -0.0619  0.3794
  196MOL    C5123841   5.224   0.384   6.131  0.7741 -0.1145 -0.3572
  196MOL   Cl5223842   5.285   0.342   6.284  0.0205 -0.0188  0.2043
  196MOL    H5323843   5.386   0.264   6.041 -1.1441 -0.3862  1.1051
  196MOL    H5423844   5.299   0.353   5.927 -1.5837 -0.5609  0.9098
  196MOL    H5523845   5.194   0.489   6.139 -1.6101 -0.8849  1.4942
  196MOL    C5623846   5.104   0.290   6.106  0.4485 -0.0584  0.6023
  196MOL    C5723847   5.019   0.329   5.982  0.4041  0.3923  0.3935
  196MOL   Cl5823848   4.969   0.497   6.008 -0.1143 -0.2180 -0.1007
  196MOL    H5923849   5.035   0.286   6.190 -0.0948 -0.7730  0.1295
  196MOL    H6023850   5.129   0.185   6.091 -1.7530 -0.6319  0.7422
  196MOL    H6123851   5.073   0.324   5.887  1.5931  0.4818  1.0628
  196MOL    C6223852   4.895   0.244   5.982  0.2872  0.0745  0.4340
  196MOL    C6323853   4.807   0.262   5.858 -0.6080  0.1088  0.5519
  196MOL   Cl6423854   4.640   0.233   5.903  0.2656  0.0925 -0.3661
  196MOL    H6523855   4.833   0.266   6.069 -1.3427  0.0404 -0.6954
  196MOL    H6623856   4.925   0.142   6.008 -0.6176 -0.1197  0.7352
  196MOL    H6723857   4.808   0.365   5.822  0.6392  0.0086  0.2789
  196MOL    C6823858   4.846   0.163   5.748  0.0514  0.5810  0.8616
  196MOL    C6923859   4.774   0.182   5.615  0.0637  0.3029  0.6906
  196MOL   Cl7023860   4.806   0.035   5.526  0.0533 -0.2996  0.1349
  196MOL    H7123861   4.815   0.066   5.788 -0.4095  0.5020  0.3238
  196MOL    H7223862   4.955   0.158   5.736 -0.1368  2.5895 -2.3469
  196MOL    H7323863   4.666   0.178   5.627 -0.0523 -1.5830 -0.7174
  196MOL    C7423864   4.817   0.314   5.550 -0.3353 -1.2212  0.4334
  196MOL    C7523865   4.748   0.342   5.418  0.8374  0.1528  0.1851
  196MOL   Cl7623866   4.835   0.249   5.296 -0.0547  0.1913 -0.1443
  196MOL    H7723867   4.925   0.319   5.536 -0.3954 -0.0559  0.3736
  196MOL    H7823868   4.789   0.397   5.615 -3.3532 -0.7170 -1.4500
  196MOL    H7923869   4.642   0.315   5.425  1.0570 -0.4983  1.1406
  196MOL    C8023870   4.772   0.487   5.375  0.2784  0.7507 -0.1666
  196MOL    C8123871   4.713   0.601   5.461 -0.0359  0.5038 -0.1061
  196MOL   Cl8223872   4.533   0.569   5.468  0.1901  0.1086  0.5717
  196MOL    H8323873   4.744   0.508   5.272  1.6758  1.7343 -0.3572
  196MOL    H8423874   4.881   0.497   5.375  0.5319 -1.7581  0.8791
  196MOL    H8523875   4.759   0.600   5.560 -1.7816 -0.8014  0.7200
  196MOL    C8623876   4.739   0.739   5.408 -0.0616  0.5752  0.5166
  196MOL    C8723877   4.881   0.763   5.360 -0.5126  0.1854  0.0950
  196MOL   Cl8823878   4.989   0.762   5.503 -0.2536  0.1767 -0.3838
  196MOL    H8923879   4.700   0.808   5.483  0.0230  0.3714  0.7494
  196MOL    H9023880   4.669   0.743   5.325  0.5746 -0.1289 -0.0529
  196MOL    H9123881   4.918   0.685   5.294  3.4143 -0.2726  2.6711
  196MOL    C9223882   4.896   0.897   5.281 -0.2947  0.0645  0.4950
  196MOL    C9323883   4.883   1.029   5.356 -0.0682 -0.5088 -0.8248
  196MOL   Cl9423884   4.709   1.065   5.383  0.0301 -0.2383  0.0924
  196MOL    H9523885   4.827   0.895   5.196 -0.6225  2.4220  0.6910
  196MOL    H9623886   4.997   0.889   5.240  0.2357  0.7977  1.6339
  196MOL    H9723887   4.923   1.015   5.456 -0.6499  1.0112 -0.3580
  196MOL    C9823888   4.942   1.146   5.274  0.2484  0.0432 -0.0097
  196MOL    C9923889   4.993   1.269   5.355  0.4635  0.0116  0.1168
  196MOL  Cl10023890   5.027   1.393   5.227  0.0883  0.1286 -0.1704
  196MOL   H10123891   4.866   1.168   5.200  0.0100 -0.1583  0.1760
  196MOL   H10223892   5.025   1.120   5.208  1.4102  1.2136  0.9401
  196MOL   H10323893   4.914   1.300   5.424 -0.2004 -0.7453 -0.3024
  196MOL   C10423894   5.130   1.246   5.429  0.8255  0.1854 -0.2010
  196MOL   C10523895   5.210   1.374   5.473 -0.4810 -0.5214  0.4161
  196MOL  Cl10623896   5.328   1.322   5.596  0.0012 -0.2247  0.3385
  196MOL   H10723897   5.193   1.202   5.352  1.0125 -0.5054  0.3444
  196MOL   H10823898   5.130   1.174   5.510 -2.0085  0.7138  0.3077
  196MOL   H10923899   5.271   1.415   5.393 -1.4517 -1.1177 -0.6347
  196MOL   C11023900   5.130   1.490   5.535  0.1887  0.4684 -0.1362
  196MOL   C11123901   5.203   1.622   5.523 -0.5317 -0.1877  0.3951
  196MOL  Cl11223902   5.118   1.729   5.644 -0.0440  0.2725 -0.3901
  196MOL   H11323903   5.105   1.481   5.641  1.1213 -0.2883  0.0189
  196MOL   H11423904   5.026   1.496   5.501  0.8997  1.6908 -2.1581
  196MOL   H11523905   5.309   1.606   5.543 -0.7366  1.1993  2.8555
  196MOL   C11623906   5.191   1.689   5.385 -0.5251 -0.3519 -0.1762
  196MOL   C11723907   5.272   1.819   5.369 -0.2375  0.3237  0.3429
  196MOL  Cl11823908   5.247   1.871   5.199  0.1524  0.0074  0.3085
  196MOL   H11923909   5.087   1.712   5.362 -1.8593 -0.2083  5.3057
  196MOL   H12023910   5.219   1.614   5.310  0.9558 -0.9620  0.9617
  196MOL   H12123911   5.231   1.899   5.430 -0.6245 -1.2061  2.1268
  196MOL   H12223912   5.380   1.808   5.375 -0.3790 -0.9566  0.5880
  197MOL     C123913   8.505   1.634   2.704 -0.6552 -0.8533 -0.0688
  197MOL     C223914   0.017   1.522   2.602  0.3302 -0.2542  0.7989
  197MOL    Cl323915   0.151   1.588   2.506  0.0404 -0.2005 -0.0816
  197MOL     H423916   8.420   1.599   2.762 -0.9745 -0.5376 -0.3396
  197MOL     H523917   0.051   1.647   2.784  1.8285 -0.8603 -2.2187
  197MOL     H623918   0.053   1.435   2.657  1.9278  0.9627  1.7181
  197MOL     H723919   8.501   1.734   2.662 -0.0207 -1.2023 -0.9975
  197MOL     C823920   8.434   1.488   2.494  0.0876 -0.4161 -0.1327
  197MOL     C923921   8.314   1.426   2.560 -0.1838  0.3767 -0.4885
  197MOL   Cl1023922   8.351   1.267   2.640  0.3130  0.2140 -0.1338
  197MOL    H1123923   8.479   1.430   2.413  0.5643  0.5619 -0.5625
  197MOL    H1223924   8.403   1.582   2.449  2.2243  0.0009 -0.8071
  197MOL    H1323925   8.271   1.493   2.634  0.3938 -0.8495  0.9906
  197MOL    C1423926   8.212   1.391   2.455  0.1253 -0.7596 -0.4999
  197MOL    C1523927   8.069   1.440   2.487 -0.1088 -0.9492  0.2875
  197MOL   Cl1623928   8.012   1.359   2.633 -0.0473  0.3182  0.2581
  197MOL    H1723929   8.216   1.287   2.425  1.9633 -0.6475 -0.6629
  197MOL    H1823930   8.236   1.447   2.365  0.0038 -0.9240 -0.6344
  197MOL    H1923931   8.077   1.545   2.516  0.5384 -1.1547  0.8820
  197MOL    C2023932   7.966   1.427   2.372 -0.1888  0.2057 -0.2710
  197MOL    C2123933   7.964   1.289   2.301 -1.4292 -0.4818 -0.2282
  197MOL   Cl2223934   8.110   1.277   2.186  0.0872  0.0237  0.2075
  197MOL    H2323935   7.999   1.497   2.296  1.5240  0.8059  0.9783
  197MOL    H2423936   7.871   1.462   2.412  0.7441  0.0008  2.2089
  197MOL    H2523937   7.982   1.217   2.381 -0.4686 -1.6175 -1.4504
  197MOL    C2623938   7.836   1.255   2.214  0.5583 -0.1645 -0.5462
  197MOL    C2723939   7.702   1.249   2.293 -0.0305  0.0659  0.5849
  197MOL   Cl2823940   7.730   1.149   2.437  0.1746  0.0475 -0.0385
  197MOL    H2923941   7.851   1.158   2.166 -1.9646 -0.0154 -1.7443
  197MOL    H3023942   7.829   1.324   2.130  0.8465 -0.5089 -0.8550
  197MOL    H3123943   7.667   1.347   2.327  0.5051  0.9712 -1.3863
  197MOL    C3223944   7.581   1.188   2.219 -0.7217 -0.0769 -0.6957
  197MOL    C3323945   7.533   1.255   2.086  0.1464  0.1934 -0.0101
  197MOL   Cl3423946   7.480   1.422   2.114 -0.1437  0.0357 -0.5865
  197MOL    H3523947   7.498   1.177   2.289 -0.5309 -0.0600 -0.4663
  197MOL    H3623948   7.613   1.087   2.195 -0.7008 -0.0224 -0.9009
  197MOL    H3723949   7.613   1.254   2.013 -0.8481  0.8358 -1.1275
  197MOL    C3823950   7.415   1.186   2.022 -0.1689  0.1081  0.0663
  197MOL    C3923951   7.384   1.230   1.875  0.0054 -0.2493 -0.0800
  197MOL   Cl4023952   7.234   1.146   1.817 -0.3252 -0.3233  0.2818
  197MOL    H4123953   7.327   1.191   2.086 -0.4630  0.0555 -0.3292
  197MOL    H4223954   7.437   1.080   2.030  0.0624  0.1593  0.1102
  197MOL    H4323955   7.352   1.335   1.873 -0.1715 -0.3051 -0.2138
  197MOL    C4423956   7.501   1.210   1.776  0.2302 -0.4581 -0.4942
  197MOL    C4523957   7.543   1.060   1.763  0.5396  0.1072 -0.0388
  197MOL   Cl4623958   7.677   1.021   1.874 -0.0370  0.1599  0.4359
  197MOL    H4723959   7.583   1.277   1.800 -1.3361  1.8180 -1.2306
  197MOL    H4823960   7.471   1.246   1.678  1.8354 -0.9263 -1.1684
  197MOL    H4923961   7.456   1.000   1.792  0.2525  1.2369  1.4923
  197MOL    C5023962   7.581   1.023   1.615 -0.0682  0.0742 -0.5863
  197MOL    C5123963   7.609   0.870   1.581  0.4785  0.0592  0.7050
  197MOL   Cl5223964   7.466   0.773   1.612  0.2525  0.1177 -0.1198
  197MOL    H5323965   7.665   1.085   1.585  0.9682 -0.1233  1.7862
  197MOL    H5423966   7.488   1.047   1.563 -0.1744  0.2535 -0.3171
  197MOL    H5523967   7.613   0.867   1.472  2.1303  1.0701  0.7164
  197MOL    C5623968   7.741   0.806   1.632  0.2474 -0.0642  0.2764
  197MOL    C5723969   7.881   0.878   1.612  0.1620 -0.0753  0.5708
  197MOL   Cl5823970   7.926   0.898   1.433 -0.3099 -0.1092  0.2455
  197MOL    H5923971   7.766   0.710   1.588 -1.7073 -1.6136  2.4021
  197MOL    H6023972   7.734   0.773   1.736 -0.9824  0.2141  0.2878
  197MOL    H6123973   7.879   0.983   1.640  2.4481 -0.0873  0.8340
  197MOL    C6223974   7.996   0.815   1.686 -0.2124 -0.3034  0.2321
  197MOL    C6323975   8.117   0.893   1.712  0.3916  0.2904  1.0220
  197MOL   Cl6423976   8.073   1.030   1.824 -0.4682 -0.2847 -0.4732
  197MOL    H6523977   8.022   0.722   1.635  0.1499 -0.3253  0.4542
  197MOL    H6623978   7.952   0.787   1.782 -2.4295  0.1760 -0.6128
  197MOL    H6723979   8.187   0.836   1.772 -1.2741 -0.6419  2.1178
  197MOL    C6823980   8.200   0.944   1.586 -0.2227  0.5052 -0.6271
  197MOL    C6923981   8.270   0.831   1.511  0.1823 -0.4552 -0.4280
  197MOL   Cl7023982   8.365   0.740   1.627  0.3265 -0.8177 -0.3394
  197MOL    H7123983   8.283   1.011   1.608 -0.7451  0.9376  0.0387
  197MOL    H7223984   8.145   1.015   1.523 -0.9004  0.5565  0.0081
  197MOL    H7323985   8.194   0.763   1.472 -0.6167  0.0004  0.3253
  197MOL    C7423986   8.358   0.896   1.392 -0.2383  0.0192 -0.0844
  197MOL    C7523987   8.291   0.902   1.252  0.5992 -0.6494  0.5081
  197MOL   Cl7623988   8.176   1.034   1.245 -0.5008  0.0487 -0.0744
  197MOL    H7723989   8.454   0.845   1.383  0.1975  0.7330  0.3906
  197MOL    H7823990   8.372   1.002   1.417 -3.0486  0.8314 -1.6930
  197MOL    H7923991   8.368   0.933   1.182 -1.7822 -0.4751 -2.1187
  197MOL    C8023992   8.213   0.772   1.207  1.0373  0.3466  0.3354
  197MOL    C8123993   8.271   0.625   1.227  0.7149  0.1472  0.3625
  197MOL   Cl8223994   8.428   0.625   1.144  0.0306  0.6310  0.2873
  197MOL    H8323995   8.179   0.787   1.105  0.3512 -1.7730  0.2492
  197MOL    H8423996   8.119   0.770   1.262  0.5890  1.2179 -0.3800
  197MOL    H8523997   8.290   0.611   1.334 -1.2637  0.5029  0.7954
  197MOL    C8623998   8.191   0.498   1.189 -0.0844  0.4281 -0.2459
  197MOL    C8723999   8.056   0.483   1.258  0.2939 -0.0252 -0.4551
  197MOL   Cl8824000   8.057   0.524   1.432 -0.0489 -0.3069 -0.1128
  197MOL    H8924001   8.253   0.415   1.220 -0.3971  0.1893 -0.2529
  197MOL    H9024002   8.174   0.500   1.081 -1.5809 -0.5770 -0.0323
  197MOL    H9124003   7.986   0.551   1.210  1.0067  2.3784  1.8436
  197MOL    C9224004   8.013   0.335   1.246 -0.5190 -0.8823 -0.0986
  197MOL    C9324005   7.956   0.292   1.110  0.3127 -0.5215  0.0342
  197MOL   Cl9424006   7.805   0.387   1.078 -0.4685 -0.0277 -0.1495
  197MOL    H9524007   7.933   0.324   1.319  0.0463 -0.0099  0.6646
  197MOL    H9624008   8.089   0.267   1.284  0.1608  0.6253  1.3096
  197MOL    H9724009   8.020   0.318   1.025 -0.3424 -1.1535 -0.6647
  197MOL    C9824010   7.929   0.136   1.109 -0.1168  0.0749 -0.1594
  197MOL    C9924011   7.831   0.065   1.215 -0.0909 -0.9225 -0.2895
  197MOL  Cl10024012   7.869   8.414   1.197  0.1965  0.2849 -0.3071
  197MOL   H10124013   8.029   0.097   1.129 -0.3637 -0.7141 -0.4400
  197MOL   H10224014   7.900   0.100   1.010  4.3392 -2.5893 -0.6371
  197MOL   H10324015   7.862   0.082   1.318 -1.8183 -1.1976  0.2855
  197MOL   C10424016   7.681   0.086   1.194  0.5276 -0.6815 -0.1268
  197MOL   C10524017   7.612   0.202   1.277  0.0348 -0.4106 -0.2974
  197MOL  Cl10624018   7.593   0.145   1.445  0.4521 -0.1528 -0.4948
  197MOL   H10724019   7.635   8.515   1.213  0.0017 -0.6167 -1.0318
  197MOL   H10824020   7.662   0.114   1.090 -0.2701 -0.1234  0.1603
  197MOL   H10924021   7.695   0.273   1.289  0.0719 -0.7140  1.4027
  197MOL   C11024022   7.477   0.251   1.218  0.2755 -0.8588 -0.7160
  197MOL   C11124023   7.408   0.371   1.281  0.6970  0.9353 -0.1465
  197MOL  Cl11224024   7.509   0.510   1.289 -0.2007  0.1831 -0.3004
  197MOL   H11324025   7.409   0.167   1.205  1.7111 -1.8729 -1.7525
  197MOL   H11424026   7.492   0.281   1.114  0.1000  0.1940 -0.4432
  197MOL   H11524027   7.319   0.393   1.223  1.1179  0.0500 -1.1384
  197MOL   C11624028   7.353   0.345   1.426  0.7278 -0.2327 -0.6077
  197MOL   C11724029   7.260   0.459   1.472 -0.2774 -0.4138 -0.6277
  197MOL  Cl11824030   7.107   0.460   1.378  0.1025  0.0113 -0.0362
  197MOL   H11924031   7.441   0.348   1.490  0.3675 -0.3044 -0.1053
  197MOL   H12024032   7.307   0.247   1.437 -0.9968  0.6986  0.6941
  197MOL   H12124033   7.225   0.449   1.575 -1.2378  1.6345 -0.7337
  197MOL   H12224034   7.299   0.560   1.464  1.2406 -0.8839  0.5948
  198MOL     C124035   0.135   3.892   1.062  0.4890 -0.2791  0.4842
  198MOL     C224036   0.084   3.953   0.932 -0.9807  0.4273 -0.3751
  198MOL    Cl324037   0.082   3.823   0.807 -0.0209 -0.4474  0.0926
  198MOL     H424038   0.239   3.860   1.063  0.2294 -1.1380  0.3595
  198MOL     H524039   0.131   3.964   1.144  1.4075 -0.2165  0.4691
  198MOL     H624040   8.511   3.983   0.967 -1.9960 -0.9117 -2.0165
  198MOL     H724041   0.077   3.805   1.091  0.0347  0.6077  2.3282
  198MOL     C824042   0.170   4.073   0.880 -0.2515  0.4329  0.4822
  198MOL     C924043   0.104   4.140   0.756 -0.1627 -1.2328  0.2348
  198MOL   Cl1024044   0.209   4.241   0.649  0.2613  0.0232 -0.0854
  198MOL    H1124045   0.267   4.032   0.851 -0.3377 -0.1275  0.9741
  198MOL    H1224046   0.183   4.133   0.969 -1.6293 -0.5437  1.3675
  198MOL    H1324047   0.069   4.058   0.694  1.6443 -0.9995 -1.1567
  198MOL    C1424048   8.505   4.234   0.792  0.2879  0.4151  0.5896
  198MOL    C1524049   8.411   4.274   0.677  0.2295  0.0047 -0.1119
  198MOL   Cl1624050   8.285   4.382   0.737  0.0445  0.0553 -0.2680
  198MOL    H1724051   0.012   4.328   0.837 -0.8188  0.3345  1.6047
  198MOL    H1824052   8.448   4.199   0.879  0.8660 -1.2797  0.3137
  198MOL    H1924053   8.470   4.326   0.601 -1.1200  1.0510 -0.4566
  198MOL    C2024054   8.337   4.160   0.597  0.2724 -0.4433  0.2525
  198MOL    C2124055   8.237   4.062   0.672 -0.1184  0.1148 -0.1220
  198MOL   Cl2224056   8.307   3.974   0.813  0.0984  0.4190  0.0381
  198MOL    H2324057   8.414   4.089   0.565 -0.1821 -0.9860  0.3540
  198MOL    H2424058   8.287   4.203   0.510 -1.6626 -2.3497  0.3850
  198MOL    H2524059   8.165   4.130   0.718 -0.0233  1.6055 -2.1356
  198MOL    C2624060   8.198   3.958   0.562 -0.4577  0.1636  0.6703
  198MOL    C2724061   8.074   3.867   0.596 -0.0166  0.1026 -0.0876
  198MOL   Cl2824062   7.930   3.967   0.623  0.0968 -0.2543  0.1258
  198MOL    H2924063   8.285   3.896   0.540 -0.0609 -0.2743  3.3054
  198MOL    H3024064   8.168   4.012   0.472  1.4779 -0.1368 -0.1794
  198MOL    H3124065   8.055   3.806   0.508  0.9825  0.6089 -0.6652
  198MOL    C3224066   8.086   3.764   0.715  0.8549  0.1821 -0.9632
  198MOL    C3324067   8.011   3.632   0.700  0.0428  0.1046 -0.5932
  198MOL   Cl3424068   8.047   3.548   0.853 -0.1538 -0.4158 -0.4590
  198MOL    H3524069   8.063   3.804   0.813 -1.1367  0.3713 -1.4998
  198MOL    H3624070   8.192   3.736   0.717  1.2332  1.6481  0.8511
  198MOL    H3724071   7.906   3.659   0.696 -0.3065 -0.7385  1.8661
  198MOL    C3824072   8.057   3.539   0.586 -0.1163 -0.2919  0.3253
  198MOL    C3924073   7.986   3.404   0.568  0.0979  0.4399  0.6243
  198MOL   Cl4024074   8.093   3.300   0.465  0.5690 -0.4411 -0.4468
  198MOL    H4124075   8.161   3.511   0.605 -0.3278  0.6959  3.1412
  198MOL    H4224076   8.061   3.597   0.494 -0.5623  1.8639  1.6261
  198MOL    H4324077   7.968   3.350   0.661 -1.0256 -2.5952 -1.2875
  198MOL    C4424078   7.846   3.425   0.497  0.0944 -0.6734 -0.3323
  198MOL    C4524079   7.756   3.303   0.472 -0.1872  0.3667 -0.2756
  198MOL   Cl4624080   7.630   3.338   0.363 -0.1299  0.4397  0.1891
  198MOL    H4724081   7.874   3.465   0.400  0.3764 -1.0642 -0.4147
  198MOL    H4824082   7.785   3.502   0.543  0.1554 -1.9270  1.9515
  198MOL    H4924083   7.809   3.226   0.415 -1.0801  0.9047 -1.8714
  198MOL    C5024084   7.706   3.227   0.599  0.2519 -0.7197 -0.7787
  198MOL    C5124085   7.622   3.311   0.693 -0.4990  0.0731  0.1446
  198MOL   Cl5224086   7.727   3.396   0.809  0.1666  0.4272 -0.1877
  198MOL    H5324087   7.790   3.192   0.659 -0.8144 -2.3647 -0.2211
  198MOL    H5424088   7.655   3.135   0.570  0.3028 -1.7582  2.2167
  198MOL    H5524089   7.568   3.391   0.642 -1.6165 -1.9703 -1.9877
  198MOL    C5624090   7.527   3.222   0.773  0.1365  0.1040 -0.0792
  198MOL    C5724091   7.417   3.299   0.854 -0.1538  0.0898 -0.5898
  198MOL   Cl5824092   7.368   3.198   0.999 -0.1559  0.0504 -0.0792
  198MOL    H5924093   7.593   3.185   0.851 -0.5428  0.8764  0.8741
  198MOL    H6024094   7.485   3.133   0.726  1.3942 -1.6039  1.9754
  198MOL    H6124095   7.461   3.390   0.893 -0.1164 -1.0665  2.1727
  198MOL    C6224096   7.282   3.321   0.780  0.2655 -0.4603 -0.5009
  198MOL    C6324097   7.163   3.385   0.866  0.4283  0.3755 -0.4484
  198MOL   Cl6424098   7.022   3.389   0.754  0.3604 -0.1350 -0.0011
  198MOL    H6524099   7.249   3.229   0.730 -0.0349 -0.9725  0.6234
  198MOL    H6624100   7.314   3.375   0.691 -1.1086  0.2343 -0.5800
  198MOL    H6724101   7.137   3.330   0.956  0.3776  0.9792 -0.0855
  198MOL    C6824102   7.202   3.534   0.899  0.3133 -0.9395 -0.2584
  198MOL    C6924103   7.102   3.603   0.984 -0.7624 -0.4797 -0.3862
  198MOL   Cl7024104   7.162   3.772   0.993  0.3965 -0.1709  0.0972
  198MOL    H7124105   7.218   3.579   0.802 -0.9167  0.5297  0.1975
  198MOL    H7224106   7.297   3.520   0.951 -0.6413 -1.1743  1.4604
  198MOL    H7324107   7.010   3.605   0.925  0.4272  1.2876 -2.2181
  198MOL    C7424108   7.077   3.541   1.127  0.1398  0.6440 -0.4904
  198MOL    C7524109   6.947   3.463   1.153  0.5063 -0.4092  0.3627
  198MOL   Cl7624110   6.805   3.575   1.133  0.0104 -0.0671 -0.4043
  198MOL    H7724111   7.080   3.624   1.197  0.6757  0.4259 -0.2459
  198MOL    H7824112   7.161   3.478   1.159 -0.0765  1.3599  1.5441
  198MOL    H7924113   6.929   3.389   1.076  2.2497 -0.3963 -0.0646
  198MOL    C8024114   6.927   3.395   1.292  0.1049 -0.4224  0.9807
  198MOL    C8124115   7.026   3.287   1.333  0.3560 -0.1628 -0.0454
  198MOL   Cl8224116   7.063   3.176   1.197  0.4101 -0.0775  0.7524
  198MOL    H8324117   6.823   3.363   1.301  0.6965 -2.8977 -0.2750
  198MOL    H8424118   6.941   3.475   1.365 -2.0339  1.5149 -0.6702
  198MOL    H8524119   7.118   3.344   1.350 -0.5804  1.1517  0.7349
  198MOL    C8624120   6.995   3.209   1.457  0.0074  0.9735  1.1552
  198MOL    C8724121   6.994   3.279   1.601  0.3383 -1.0294 -0.5673
  198MOL   Cl8824122   7.142   3.378   1.618  0.1737 -0.2030 -0.1766
  198MOL    H8924123   7.068   3.129   1.463 -1.0241 -0.3344 -2.5219
  198MOL    H9024124   6.902   3.153   1.447  1.3258 -0.9924 -0.3135
  198MOL    H9124125   6.914   3.352   1.607  2.1897  0.9110  1.6241
  198MOL    C9224126   6.971   3.181   1.719  0.2184  0.0278 -0.6229
  198MOL    C9324127   6.830   3.120   1.730  0.4879  0.8169  0.3678
  198MOL   Cl9424128   6.719   3.251   1.782  0.5144  0.1870  0.2872
  198MOL    H9524129   7.010   3.226   1.810  0.8840  2.3509 -2.0262
  198MOL    H9624130   7.038   3.098   1.698 -0.2219 -0.8622  1.2994
  198MOL    H9724131   6.785   3.083   1.638  1.6942 -3.5848  1.3882
  198MOL    C9824132   6.811   3.009   1.839  0.5348 -0.0176  0.2028
  198MOL    C9924133   6.924   2.892   1.832 -0.3249 -0.4571  0.1320
  198MOL  Cl10024134   6.926   2.803   1.671  0.2512 -0.0789  0.1478
  198MOL   H10124135   6.713   2.962   1.841 -0.0212  1.1414  1.3620
  198MOL   H10224136   6.812   3.069   1.931 -2.3047  2.3289 -1.2185
  198MOL   H10324137   7.013   2.954   1.841 -0.7943  0.0899  1.1026
  198MOL   C10424138   6.916   2.785   1.945 -1.2493  0.6692 -0.1813
  198MOL   C10524139   7.047   2.756   2.018  0.1411 -0.3909  0.3553
  198MOL  Cl10624140   7.021   2.600   2.092 -0.0812  0.0713 -0.2149
  198MOL   H10724141   6.883   2.696   1.891 -0.6659  0.3296  0.0081
  198MOL   H10824142   6.833   2.805   2.013 -2.6472  0.0118 -1.6501
  198MOL   H10924143   7.120   2.740   1.938 -1.6957  1.0258 -1.6699
  198MOL   C11024144   7.076   2.865   2.115  0.6875  1.4841 -0.4536
  198MOL   C11124145   7.214   2.856   2.184  0.1540 -0.2359 -0.2473
  198MOL  Cl11224146   7.192   2.964   2.330 -0.1122 -0.0519 -0.0355
  198MOL   H11324147   7.009   2.867   2.201  0.1599 -1.6556 -0.7438
  198MOL   H11424148   7.072   2.966   2.072 -1.5706  1.7842  0.3959
  198MOL   H11524149   7.243   2.756   2.216  1.0056  0.1573  0.2175
  198MOL   C11624150   7.322   2.918   2.093 -0.1642  0.6577 -0.1146
  198MOL   C11724151   7.461   2.919   2.164 -0.4113  0.2883 -0.7551
  198MOL  Cl11824152   7.580   3.000   2.060 -0.2551 -0.3146  0.2104
  198MOL   H11924153   7.296   3.019   2.062  0.4106  0.8651  0.0785
  198MOL   H12024154   7.335   2.853   2.007  0.7470 -1.3167  1.4626
  198MOL   H12124155   7.460   2.975   2.258  2.4826  0.7319 -0.9213
  198MOL   H12224156   7.498   2.818   2.186  1.2052  0.5250 -2.2405
  199MOL     C124157   0.860   4.464   5.597  0.6831 -0.4753  0.5804
  199MOL     C224158   0.947   4.563   5.666 -0.2288 -0.4279  0.8657
  199MOL    Cl324159   0.853   4.643   5.790 -0.1636 -0.4715 -0.1778
  199MOL     H424160   0.779   4.521   5.552  1.5521 -0.5755 -1.1675
  199MOL     H524161   0.903   4.412   5.511  0.0962  0.0974 -0.0697
  199MOL     H624162   1.024   4.511   5.723  0.7363  1.2263  1.1083
  199MOL     H724163   0.812   4.395   5.666 -0.6762  0.4207  0.5688
  199MOL     C824164   1.025   4.663   5.577 -0.1601 -0.3850 -0.1581
  199MOL     C924165   1.116   4.759   5.652 -0.3986  0.0537  0.0381
  199MOL   Cl1024166   1.179   4.877   5.537  0.1735  0.0569  0.2448
  199MOL    H1124167   0.947   4.726   5.534 -0.0181 -0.1972 -0.1399
  199MOL    H1224168   1.071   4.602   5.499 -0.2684 -1.7064  0.7919
  199MOL    H1324169   1.057   4.817   5.723  1.1980  0.7691  0.8150
  199MOL    C1424170   1.241   4.704   5.724  0.0519  0.0627  0.2061
  199MOL    C1524171   1.303   4.800   5.829 -0.1374  0.1923  0.1948
  199MOL   Cl1624172   1.445   4.709   5.879 -0.5251 -0.5245  0.0334
  199MOL    H1724173   1.321   4.682   5.653  0.2067  1.1272  0.0448
  199MOL    H1824174   1.213   4.610   5.772  0.2271 -0.3452 -0.4916
  199MOL    H1924175   1.348   4.884   5.776  0.1235  1.1313  1.8770
  199MOL    C2024176   1.222   4.847   5.953  0.2850  0.5756  1.1872
  199MOL    C2124177   1.299   4.928   6.062 -0.1534  0.1409 -0.3490
  199MOL   Cl2224178   1.185   4.977   6.190  0.2455 -0.1517  0.0578
  199MOL    H2324179   1.172   4.754   5.978  0.9723 -0.4113 -0.9917
  199MOL    H2424180   1.151   4.916   5.907  2.6244  1.7263 -0.7888
  199MOL    H2524181   1.370   4.856   6.103  0.0349  0.4125 -0.1971
  199MOL    C2624182   1.378   5.057   6.015 -0.1562 -0.0754  0.4763
  199MOL    C2724183   1.474   5.122   6.122 -0.2059  0.5574 -0.6923
  199MOL   Cl2824184   1.501   5.291   6.088  0.1853  0.0953 -0.0448
  199MOL    H2924185   1.299   5.121   5.977 -1.8101 -2.2596  0.1361
  199MOL    H3024186   1.439   5.044   5.925  0.6251  2.5169  0.5943
  199MOL    H3124187   1.426   5.130   6.220 -1.2127 -1.5076 -0.9940
  199MOL    C3224188   1.613   5.057   6.143 -0.5121 -0.9221  0.6441
  199MOL    C3324189   1.626   4.938   6.240  0.3248 -0.2619  0.3898
  199MOL   Cl3424190   1.578   4.963   6.412 -0.1854 -0.0675  0.1605
  199MOL    H3524191   1.679   5.132   6.186 -0.5254 -0.9728  0.7542
  199MOL    H3624192   1.672   5.028   6.056  0.1100 -0.7607  1.0111
  199MOL    H3724193   1.570   4.859   6.190 -0.8430  0.5719  0.3563
  199MOL    C3824194   1.766   4.888   6.239 -0.6168  0.2927 -0.2511
  199MOL    C3924195   1.833   4.838   6.112 -0.2522 -0.0851 -0.4159
  199MOL   Cl4024196   1.745   4.699   6.034  0.1852 -0.1451 -0.0801
  199MOL    H4124197   1.775   4.815   6.320  1.1520  1.5307  0.6923
  199MOL    H4224198   1.827   4.966   6.284 -0.1418 -1.6979  2.7189
  199MOL    H4324199   1.828   4.913   6.033 -1.5664  1.2510  0.9146
  199MOL    C4424200   1.988   4.809   6.129  0.1981  0.3185  0.1559
  199MOL    C4524201   2.077   4.935   6.145  0.2340  0.5115  0.5056
  199MOL   Cl4624202   2.056   5.043   6.010  0.2845  0.0983 -0.2742
  199MOL    H4724203   2.023   4.758   6.039  1.7109  0.8821  0.4088
  199MOL    H4824204   2.008   4.742   6.213  1.0177  0.0147 -0.2775
  199MOL    H4924205   2.032   4.990   6.228  2.4114  0.9372  1.4270
  199MOL    C5024206   2.229   4.931   6.167  0.1302 -0.8734  0.2416
  199MOL    C5124207   2.273   4.865   6.301 -0.2623 -0.1696  0.1351
  199MOL   Cl5224208   2.209   4.933   6.448  0.1593  0.0852  0.2200
  199MOL    H5324209   2.264   5.034   6.152 -2.1894 -0.5109 -3.3984
  199MOL    H5424210   2.275   4.873   6.087 -0.0206 -0.8147  0.1128
  199MOL    H5524211   2.227   4.766   6.296 -0.1671 -0.3243  1.8446
  199MOL    C5624212   2.428   4.849   6.317 -0.4500  0.0191 -0.0463
  199MOL    C5724213   2.515   4.976   6.311 -0.5574  0.2693 -0.5003
  199MOL   Cl5824214   2.563   5.019   6.144 -0.3990  0.7282 -0.1411
  199MOL    H5924215   2.467   4.778   6.244 -0.1603  0.4335 -0.2961
  199MOL    H6024216   2.454   4.811   6.416  0.2891  1.6589  0.4096
  199MOL    H6124217   2.461   5.065   6.344 -2.2837 -1.0695  0.3276
  199MOL    C6224218   2.655   4.953   6.385 -0.9681  0.0226 -0.0062
  199MOL    C6324219   2.650   4.949   6.539  0.1704 -0.1620  0.0841
  199MOL   Cl6424220   2.603   5.106   6.589 -0.2296  0.2145 -0.3223
  199MOL    H6524221   2.728   5.027   6.353 -2.2665  1.0601 -0.6251
  199MOL    H6624222   2.695   4.860   6.345  0.9443  0.1653  1.4807
  199MOL    H6724223   2.577   4.880   6.582  0.5222  0.0179  0.9913
  199MOL    C6824224   2.784   4.914   6.592 -0.0423  0.2104  0.0657
  199MOL    C6924225   2.799   4.761   6.617  0.7186 -0.4447 -0.0371
  199MOL   Cl7024226   2.706   4.716   6.760 -0.1027 -0.1059 -0.0683
  199MOL    H7124227   2.808   4.962   6.686 -1.4802 -1.5798  1.3867
  199MOL    H7224228   2.860   4.960   6.529  1.1250  1.7834  2.5556
  199MOL    H7324229   2.768   4.698   6.533 -0.6540  0.8042 -0.4847
  199MOL    C7424230   2.937   4.714   6.671  0.3936  0.2706 -0.2358
  199MOL    C7524231   2.969   4.562   6.650  0.3408 -0.2784 -0.1983
  199MOL   Cl7624232   3.111   4.515   6.746 -0.3425  0.0598  0.1714
  199MOL    H7724233   2.951   4.731   6.778 -1.3160 -0.9507  0.1971
  199MOL    H7824234   3.020   4.768   6.625 -0.9573  1.4852 -1.2685
  199MOL    H7924235   2.880   4.507   6.680 -0.8603  0.7600 -1.7774
  199MOL    C8024236   3.000   4.529   6.499  0.9063 -0.2424 -0.5767
  199MOL    C8124237   3.033   4.384   6.479  0.0539 -0.6597 -0.1743
  199MOL   Cl8224238   3.026   4.356   6.308 -0.1503  0.0780 -0.0077
  199MOL    H8324239   3.083   4.592   6.466  0.3922  0.3511 -0.7396
  199MOL    H8424240   2.916   4.565   6.440 -0.8540 -0.6320  1.6175
  199MOL    H8524241   3.135   4.357   6.507  0.8187 -1.5260 -3.6143
  199MOL    C8624242   2.926   4.283   6.528 -0.1237 -0.0922 -0.3407
  199MOL    C8724243   2.945   4.130   6.515  0.1615 -0.6079 -0.4688
  199MOL   Cl8824244   2.792   4.031   6.502 -0.6122  0.0768  0.3911
  199MOL    H8924245   2.831   4.311   6.483 -0.1566 -0.7075 -0.6584
  199MOL    H9024246   2.920   4.290   6.637 -1.3452 -0.6239 -0.3620
  199MOL    H9124247   2.993   4.116   6.418 -0.6553 -1.5601 -0.7456
  199MOL    C9224248   3.032   4.064   6.623  0.1317  0.2366  0.0609
  199MOL    C9324249   3.181   4.119   6.646  0.3117  0.0546  0.0250
  199MOL   Cl9424250   3.261   4.115   6.486 -0.2022 -0.1318 -0.2728
  199MOL    H9524251   3.048   3.960   6.594 -0.6248  0.4561 -1.1760
  199MOL    H9624252   2.983   4.059   6.720  0.0987 -2.0242 -0.0271
  199MOL    H9724253   3.183   4.225   6.672  2.8647  0.5614 -2.0700
  199MOL    C9824254   3.268   4.033   6.732  0.3056 -0.1029  0.4376
  199MOL    C9924255   3.233   4.025   6.880  0.5029  0.4701  0.0307
  199MOL  Cl10024256   3.212   4.185   6.950 -0.0469  0.0802  0.0639
  199MOL   H10124257   3.367   4.077   6.724 -1.0238  2.7181 -1.6169
  199MOL   H10224258   3.278   3.934   6.687  1.4363  0.3122 -0.2582
  199MOL   H10324259   3.139   3.975   6.902  0.0846 -0.1276 -2.9011
  199MOL   C10424260   3.342   3.951   6.961 -0.2041  0.7839  0.1509
  199MOL   C10524261   3.363   3.802   6.926 -0.3101 -0.2126 -0.4133
  199MOL  Cl10624262   3.202   3.716   6.927 -0.1467  0.2362  0.1751
  199MOL   H10724263   3.314   3.955   7.066  0.4865 -0.6425  0.4064
  199MOL   H10824264   3.438   4.002   6.953  1.0444 -1.5866 -0.7526
  199MOL   H10924265   3.410   3.793   6.828  0.1253 -1.0161 -0.1378
  199MOL   C11024266   3.445   3.741   7.036  0.6377 -0.1579  0.0081
  199MOL   C11124267   3.586   3.799   7.075  0.3350 -0.1936  0.1793
  199MOL  Cl11224268   3.675   3.837   6.927 -0.1160 -0.1062  0.1560
  199MOL   H11324269   3.451   3.635   7.010 -0.2743 -0.6662  1.7971
  199MOL   H11424270   3.386   3.735   7.127  0.4575  1.0199 -0.0236
  199MOL   H11524271   3.574   3.897   7.122 -0.7214 -0.2571  0.0609
  199MOL   C11624272   3.673   3.715   7.159  0.6151 -0.5399  0.1100
  199MOL   C11724273   3.613   3.693   7.295 -0.2449 -0.1396 -0.5673
  199MOL  Cl11824274   3.597   3.844   7.388  0.0973 -0.2109 -0.1243
  199MOL   H11924275   3.769   3.763   7.179 -0.1019  2.3627 -3.0003
  199MOL   H12024276   3.702   3.623   7.110 -3.1165 -2.6810  1.6490
  199MOL   H12124277   3.518   3.640   7.287  0.1007 -1.0366  1.2716
  199MOL   H12224278   3.679   3.626   7.350 -1.1062 -0.2172  0.3779
  200MOL     C124279   7.391   1.296   2.543 -0.0446 -0.0586  0.3932
  200MOL     C224280   7.297   1.413   2.562  0.0137  0.2590 -0.0659
  200MOL    Cl324281   7.136   1.340   2.583  0.0653 -0.1185  0.1829
  200MOL     H424282   7.337   1.231   2.475 -0.2723 -1.3196  1.7766
  200MOL     H524283   7.486   1.330   2.499  0.2648  1.6976  2.3289
  200MOL     H624284   7.313   1.459   2.660 -0.2898 -0.7174  0.4477
  200MOL     H724285   7.409   1.236   2.632 -1.6181  0.3350  0.9897
  200MOL     C824286   7.300   1.512   2.444 -0.0318  0.5878 -0.1019
  200MOL     C924287   7.409   1.618   2.457 -0.3376  0.4737  0.6911
  200MOL   Cl1024288   7.401   1.714   2.613  0.2722  0.0838 -0.4306
  200MOL    H1124289   7.201   1.557   2.433 -1.0596 -1.6358 -0.2430
  200MOL    H1224290   7.322   1.470   2.346  1.0668  0.4506  0.1995
  200MOL    H1324291   7.499   1.557   2.462 -0.0574  0.7479 -0.7473
  200MOL    C1424292   7.421   1.707   2.333  0.0291 -0.2997  0.0323
  200MOL    C1524293   7.559   1.767   2.299 -0.0210 -0.5219  0.2538
  200MOL   Cl1624294   7.677   1.640   2.278  0.0177  0.4247 -0.3455
  200MOL    H1724295   7.336   1.774   2.321 -0.5517 -0.2156  4.0028
  200MOL    H1824296   7.404   1.646   2.245  0.8288  0.7486 -0.8668
  200MOL    H1924297   7.550   1.828   2.209 -0.1811 -2.4974 -1.1051
  200MOL    C2024298   7.606   1.869   2.413  0.7910 -0.0807 -0.3890
  200MOL    C2124299   7.518   1.984   2.455  0.1009 -0.5428  0.1536
  200MOL   Cl2224300   7.518   2.107   2.323 -0.0319  0.4601 -0.1301
  200MOL    H2324301   7.698   1.914   2.375  2.1142 -0.5469  2.1797
  200MOL    H2424302   7.629   1.810   2.501  1.8208  1.2374  0.2572
  200MOL    H2524303   7.416   1.947   2.467  0.3257 -1.2641 -0.1242
  200MOL    C2624304   7.571   2.055   2.583 -0.5456  0.5234  0.5501
  200MOL    C2724305   7.473   2.166   2.639 -0.5292  0.2599  0.1940
  200MOL   Cl2824306   7.544   2.218   2.795  0.0663  0.5313 -0.1205
  200MOL    H2924307   7.668   2.103   2.574  0.4599 -1.4750  0.4215
  200MOL    H3024308   7.578   1.975   2.657 -0.2471  0.3750  0.3619
  200MOL    H3124309   7.482   2.259   2.583  0.6330 -0.8274 -1.4724
  200MOL    C3224310   7.326   2.118   2.653 -0.1198 -1.0274 -0.0788
  200MOL    C3324311   7.248   2.185   2.764  0.5431  0.5213 -0.7015
  200MOL   Cl3424312   7.263   2.109   2.924  0.3527 -0.0607 -0.3044
  200MOL    H3524313   7.314   2.010   2.665  0.6040 -1.0332  0.6278
  200MOL    H3624314   7.276   2.138   2.558  1.6987 -0.0853 -0.8554
  200MOL    H3724315   7.273   2.289   2.786 -0.2339 -0.0100  3.1045
  200MOL    C3824316   7.100   2.177   2.735 -0.3962  0.3289  0.2741
  200MOL    C3924317   7.000   2.236   2.838  0.2795 -0.5114 -0.4916
  200MOL   Cl4024318   6.833   2.208   2.780 -0.0660  0.2373 -0.0365
  200MOL    H4124319   7.066   2.076   2.714 -0.7320 -0.1776  3.0285
  200MOL    H4224320   7.099   2.246   2.650  0.3401  0.5559  0.4480
  200MOL    H4324321   7.004   2.178   2.930  0.8593  1.5173  0.8007
  200MOL    C4424322   7.007   2.388   2.879 -0.6724  0.1269 -0.5289
  200MOL    C4524323   6.925   2.445   2.999  0.8795  0.7140  0.7523
  200MOL   Cl4624324   6.977   2.617   3.010 -0.4105  0.0829  0.5191
  200MOL    H4724325   6.979   2.455   2.797 -0.9509 -0.9417 -1.3172
  200MOL    H4824326   7.111   2.398   2.910 -0.0808 -1.0589 -2.0926
  200MOL    H4924327   6.817   2.441   2.984  1.1499  0.1265 -1.3364
  200MOL    C5024328   6.968   2.371   3.130 -0.2993  0.8303 -0.9875
  200MOL    C5124329   6.894   2.431   3.256 -0.0234 -0.8391 -0.3120
  200MOL   Cl5224330   6.990   2.375   3.404  0.3826 -0.3962 -0.0859
  200MOL    H5324331   7.075   2.392   3.140  0.1611  0.2710 -4.2204
  200MOL    H5424332   6.951   2.265   3.114  0.0565  0.8793 -1.6873
  200MOL    H5524333   6.904   2.539   3.242 -1.1186 -0.6718  0.1228
  200MOL    C5624334   6.748   2.395   3.267  0.7190 -0.4733 -0.4567
  200MOL    C5724335   6.681   2.430   3.401 -0.0225 -0.3342  0.2130
  200MOL   Cl5824336   6.520   2.350   3.411  0.1584 -0.1092 -0.1231
  200MOL    H5924337   6.746   2.287   3.252 -3.3613 -0.2563 -2.1639
  200MOL    H6024338   6.678   2.428   3.189  0.2743 -2.3627 -0.8749
  200MOL    H6124339   6.739   2.381   3.478  1.9430  0.7425 -0.5545
  200MOL    C6224340   6.672   2.580   3.417  0.2452 -0.3212  0.4998
  200MOL    C6324341   6.622   2.627   3.557 -0.6070  0.3830 -0.2380
  200MOL   Cl6424342   6.558   2.796   3.555  0.0076 -0.1862  0.4426
  200MOL    H6524343   6.601   2.626   3.348 -0.9377  0.3947  2.1508
  200MOL    H6624344   6.767   2.630   3.397 -0.0382 -0.6714 -1.8462
  200MOL    H6724345   6.531   2.577   3.587  0.2523 -2.0184 -1.5100
  200MOL    C6824346   6.729   2.609   3.666 -0.0105  0.5154 -0.0627
  200MOL    C6924347   6.699   2.665   3.804 -0.2701 -0.6859 -0.1903
  200MOL   Cl7024348   6.845   2.660   3.903  0.6712 -0.0588 -0.2176
  200MOL    H7124349   6.820   2.652   3.623  0.1715  2.6705  2.3812
  200MOL    H7224350   6.754   2.504   3.681  1.5536  0.5655 -2.0515
  200MOL    H7324351   6.682   2.772   3.791 -3.6222 -1.1384  0.2488
  200MOL    C7424352   6.586   2.606   3.884 -0.5839 -0.3343 -0.1642
  200MOL    C7524353   6.609   2.467   3.956 -0.3280 -0.2592 -0.3891
  200MOL   Cl7624354   6.538   2.340   3.850 -0.3489  0.0697  0.2173
  200MOL    H7724355   6.500   2.603   3.817 -2.1894 -0.9147  1.8653
  200MOL    H7824356   6.550   2.686   3.950 -1.8710 -0.2585 -0.9364
  200MOL    H7924357   6.713   2.439   3.975 -0.5145 -0.6974  0.0091
  200MOL    C8024358   6.540   2.440   4.089  0.5013 -0.0637 -0.3123
  200MOL    C8124359   6.587   2.495   4.219 -0.0853 -0.6038 -0.3105
  200MOL   Cl8224360   6.730   2.403   4.278  0.4562 -0.0619 -0.0856
  200MOL    H8324361   6.536   2.336   4.121 -1.1030 -0.1566 -0.8223
  200MOL    H8424362   6.443   2.482   4.064  0.6343  2.2965  2.7416
  200MOL    H8524363   6.621   2.598   4.204 -1.0532 -0.2501 -0.1189
  200MOL    C8624364   6.482   2.500   4.334  0.0569  0.3547  0.3079
  200MOL    C8724365   6.436   2.634   4.369  0.9176 -0.0003  0.2803
  200MOL   Cl8824366   6.352   2.612   4.520 -0.2589  0.0394 -0.1203
  200MOL    H8924367   6.530   2.478   4.430 -2.4313 -0.8648  1.3065
  200MOL    H9024368   6.410   2.419   4.319  0.0315  0.2818  0.8353
  200MOL    H9124369   6.512   2.711   4.383 -0.3472  1.4377 -0.6011
  200MOL    C9224370   6.336   2.694   4.259 -0.2229 -0.1686 -0.3155
  200MOL    C9324371   6.268   2.824   4.281  0.2816  0.1283 -0.4318
  200MOL   Cl9424372   6.150   2.844   4.147  0.0386  0.2768 -0.5399
  200MOL    H9524373   6.266   2.617   4.227  3.1265 -2.8029 -1.6046
  200MOL    H9624374   6.400   2.712   4.172  0.0628 -0.8536 -0.2522
  200MOL    H9724375   6.214   2.847   4.373  1.4890 -0.1257  0.3521
  200MOL    C9824376   6.373   2.936   4.260  0.0922 -0.6235 -0.3880
  200MOL    C9924377   6.328   3.082   4.282  0.1133 -0.2155 -1.1332
  200MOL  Cl10024378   6.463   3.186   4.226  0.3171 -0.1614 -0.2738
  200MOL   H10124379   6.409   2.926   4.158 -0.6312  1.2342 -0.8464
  200MOL   H10224380   6.462   2.922   4.321 -0.2413 -3.3665 -0.4684
  200MOL   H10324381   6.249   3.094   4.208  1.8626 -1.2823 -3.2060
  200MOL   C10424382   6.284   3.114   4.426  0.5079  0.2274  0.4254
  200MOL   C10524383   6.213   3.250   4.435 -0.1959  0.0844 -0.4694
  200MOL  Cl10624384   6.228   3.299   4.605 -0.5493 -0.3725 -0.4837
  200MOL   H10724385   6.378   3.142   4.474  0.2704  0.8957  0.5011
  200MOL   H10824386   6.246   3.029   4.483 -1.2754  0.7727  0.0850
  200MOL   H10924387   6.269   3.323   4.377  2.1562 -0.3026  1.2336
  200MOL   C11024388   6.066   3.256   4.390  0.0792  0.2834 -0.5375
  200MOL   C11124389   5.992   3.383   4.438  0.0349 -0.0196  0.6498
  200MOL  Cl11224390   5.809   3.361   4.424 -0.2801  0.0831 -0.3898
  200MOL   H11324391   6.011   3.177   4.442  0.5198  0.4108  0.1331
  200MOL   H11424392   6.060   3.247   4.282  0.3984  0.6016 -0.5811
  200MOL   H11524393   6.001   3.399   4.545 -2.1595  0.6004  0.7680
  200MOL   C11624394   6.030   3.515   4.364 -0.3374 -0.2355 -0.2957
  200MOL   C11724395   5.981   3.636   4.446  0.4199 -0.1508 -0.4646
  200MOL  Cl11824396   6.026   3.784   4.373 -0.2708 -0.0278 -0.6538
  200MOL   H11924397   5.993   3.516   4.262  0.8982 -0.5711 -0.7560
  200MOL   H12024398   6.138   3.527   4.359 -0.4718  1.7295  0.8061
  200MOL   H12124399   5.873   3.655   4.446  0.5952  0.8429  0.7879
  200MOL   H12224400   6.018   3.628   4.548  1.2296 -2.0047 -0.8830
  201MOL     C124401   0.868   3.991   0.547 -0.0292  0.0097 -0.1718
  201MOL     C224402   1.012   3.959   0.521 -0.4720  0.3743 -0.5818
  201MOL    Cl324403   1.015   3.794   0.472  0.3860 -0.0459 -0.0598
  201MOL     H424404   0.848   3.959   0.650  0.7926 -0.3440 -0.1140
  201MOL     H524405   0.840   4.095   0.529 -2.7607 -0.7529 -0.5463
  201MOL     H624406   1.048   4.019   0.438  0.3032 -0.2610 -0.7128
  201MOL     H724407   0.802   3.944   0.474  1.1890  0.9128 -1.8839
  201MOL     C824408   1.106   3.983   0.638  0.4239 -0.3066  0.0180
  201MOL     C924409   1.255   3.991   0.597  0.2495  0.2475  0.8894
  201MOL   Cl1024410   1.365   3.963   0.734 -0.0496  0.1848  0.1904
  201MOL    H1124411   1.101   3.900   0.709  0.8339 -0.9313 -0.6680
  201MOL    H1224412   1.077   4.071   0.696  0.7731 -1.4916  2.0469
  201MOL    H1324413   1.265   3.911   0.523 -1.7454  0.8199 -0.0320
  201MOL    C1424414   1.288   4.126   0.526  0.1886  0.2088  0.2107
  201MOL    C1524415   1.406   4.115   0.428  0.0785 -0.0241  0.2362
  201MOL   Cl1624416   1.377   4.014   0.285 -0.0741 -0.1679 -0.0957
  201MOL    H1724417   1.307   4.202   0.603  0.6602  0.6865 -0.3677
  201MOL    H1824418   1.205   4.175   0.475 -0.5882 -0.2451  1.0299
  201MOL    H1924419   1.408   4.213   0.380  1.8466  0.7163  1.7495
  201MOL    C2024420   1.547   4.090   0.493  0.4046  0.3721  0.1839
  201MOL    C2124421   1.591   4.194   0.600 -0.1773  0.1975  0.3137
  201MOL   Cl2224422   1.571   4.349   0.526  0.0703 -0.0937 -0.2030
  201MOL    H2324423   1.617   4.085   0.409 -0.4396 -2.7010 -0.4118
  201MOL    H2424424   1.553   3.986   0.525 -0.0424 -0.6110 -2.7517
  201MOL    H2524425   1.530   4.200   0.690 -0.3001  1.0052  0.1785
  201MOL    C2624426   1.744   4.187   0.632  0.0722  0.1212 -0.0706
  201MOL    C2724427   1.793   4.075   0.732 -0.2459  0.7649  0.4321
  201MOL   Cl2824428   1.808   3.921   0.640  0.1145 -0.0482  0.1021
  201MOL    H2924429   1.767   4.283   0.679  1.3304  0.2575 -0.9439
  201MOL    H3024430   1.803   4.184   0.540 -0.4956  0.7374 -0.4648
  201MOL    H3124431   1.891   4.105   0.769  1.0486  0.1037 -2.3409
  201MOL    C3224432   1.713   4.057   0.862 -0.1987 -0.0803 -0.2812
  201MOL    C3324433   1.781   3.957   0.970 -0.0520  0.5172  0.3346
  201MOL   Cl3424434   1.646   3.914   1.081  0.4987  0.0946 -0.1710
  201MOL    H3524435   1.623   4.002   0.836 -0.1043 -0.9851  1.2456
  201MOL    H3624436   1.682   4.149   0.911  1.7026 -0.5152  1.8524
  201MOL    H3724437   1.806   3.861   0.926 -2.1710  0.2668 -0.4004
  201MOL    C3824438   1.897   4.024   1.045 -0.4157  0.0777  0.4113
  201MOL    C3924439   2.038   3.980   0.992 -0.4668 -0.1596  0.3482
  201MOL   Cl4024440   2.042   3.804   1.035 -0.1553  0.0426 -0.6217
  201MOL    H4124441   1.903   4.008   1.152  1.5486 -0.2323  0.2746
  201MOL    H4224442   1.888   4.131   1.024  1.2853 -0.1606 -1.7928
  201MOL    H4324443   2.055   3.991   0.885  0.5000 -4.9515 -0.0866
  201MOL    C4424444   2.153   4.051   1.062  0.0494 -0.3364  0.4072
  201MOL    C4524445   2.143   4.204   1.057 -0.6200 -0.7168  0.8183
  201MOL   Cl4624446   2.146   4.266   0.891  0.2033 -0.3135 -0.5471
  201MOL    H4724447   2.245   4.006   1.024  0.7623  2.0352 -0.7170
  201MOL    H4824448   2.165   4.030   1.168  0.9780 -1.5200  0.0854
  201MOL    H4924449   2.045   4.234   1.094 -0.8523 -1.3461  0.7311
  201MOL    C5024450   2.259   4.267   1.140  0.2656 -0.3826  0.1874
  201MOL    C5124451   2.246   4.263   1.296  0.3677  0.3865 -0.7629
  201MOL   Cl5224452   2.096   4.342   1.344 -0.1003 -0.0150  0.1887
  201MOL    H5324453   2.264   4.371   1.108  1.2012  0.3260  2.5262
  201MOL    H5424454   2.355   4.225   1.111 -0.1319  0.2884 -2.1681
  201MOL    H5524455   2.239   4.161   1.335 -2.6623  0.9957  0.3653
  201MOL    C5624456   2.364   4.343   1.358  0.3576  0.7476 -0.1748
  201MOL    C5724457   2.491   4.260   1.357  0.1720 -0.0711 -0.4241
  201MOL   Cl5824458   2.532   4.190   1.519  0.0660 -0.1371 -0.0504
  201MOL    H5924459   2.346   4.374   1.461  0.4645  2.2559 -0.5978
  201MOL    H6024460   2.357   4.434   1.299 -1.5618  1.2565  0.7886
  201MOL    H6124461   2.477   4.166   1.303  0.2199  1.2279 -2.7837
  201MOL    C6224462   2.613   4.336   1.299 -0.6124 -0.4070 -0.3646
  201MOL    C6324463   2.714   4.244   1.239 -0.0808  0.0139  0.1095
  201MOL   Cl6424464   2.860   4.336   1.212 -0.2380 -0.2563 -0.1642
  201MOL    H6524465   2.658   4.403   1.372  0.3652 -1.9530  0.4762
  201MOL    H6624466   2.585   4.415   1.228  2.2877 -0.8812 -2.1274
  201MOL    H6724467   2.752   4.176   1.316 -0.9956 -0.7014 -0.0691
  201MOL    C6824468   2.672   4.179   1.104 -0.2859 -0.2637  0.0963
  201MOL    C6924469   2.726   4.043   1.058  0.0719 -0.5965 -0.0874
  201MOL   Cl7024470   2.902   4.035   1.100 -0.3766 -0.4752 -0.0708
  201MOL    H7124471   2.695   4.260   1.036 -0.8986 -0.6156 -0.5315
  201MOL    H7224472   2.563   4.178   1.103 -0.2816 -2.7920 -1.0903
  201MOL    H7324473   2.671   3.974   1.123 -1.9652  1.9158  0.9385
  201MOL    C7424474   2.697   4.009   0.917  0.3455 -0.2313  0.0915
  201MOL    C7524475   2.547   3.973   0.871 -0.0404  0.1776  0.1874
  201MOL   Cl7624476   2.510   3.808   0.933  0.1330 -0.2011  0.1686
  201MOL    H7724477   2.751   3.916   0.900  0.4214 -0.1671 -0.0298
  201MOL    H7824478   2.736   4.086   0.849 -1.3354  2.9877  2.6259
  201MOL    H7924479   2.472   4.037   0.917  0.9692 -0.3998  2.7180
  201MOL    C8024480   2.515   3.973   0.713 -0.3069 -0.3449  0.9356
  201MOL    C8124481   2.545   4.111   0.642 -0.1976 -0.3652  0.5997
  201MOL   Cl8224482   2.436   4.236   0.701 -0.0425 -0.1406  0.3205
  201MOL    H8324483   2.408   3.958   0.699 -0.1149  0.7696 -2.0119
  201MOL    H8424484   2.562   3.889   0.663  0.4745  0.4822  0.2571
  201MOL    H8524485   2.640   4.156   0.671 -1.1769  2.8876 -1.0723
  201MOL    C8624486   2.535   4.111   0.488 -0.2283  0.3745 -0.0628
  201MOL    C8724487   2.625   4.010   0.417 -0.1549  0.4278  0.7866
  201MOL   Cl8824488   2.780   3.976   0.480  0.0160 -0.5922  0.0436
  201MOL    H8924489   2.558   4.214   0.461 -0.5194  0.1213 -1.3445
  201MOL    H9024490   2.430   4.091   0.464 -0.2313  0.3358 -0.0158
  201MOL    H9124491   2.569   3.917   0.426 -1.6678  1.3026  0.5557
  201MOL    C9224492   2.642   4.037   0.268 -0.6519  0.0023  0.1463
  201MOL    C9324493   2.708   3.927   0.185 -0.5553 -0.1645  0.8403
  201MOL   Cl9424494   2.711   3.983   0.014  0.0283 -0.4459  0.0459
  201MOL    H9524495   2.712   4.120   0.272  0.5387 -1.0601  2.3728
  201MOL    H9624496   2.543   4.064   0.232  0.2789  2.7268 -0.4615
  201MOL    H9724497   2.809   3.900   0.217 -1.3652 -1.6652  2.2219
  201MOL    C9824498   2.641   3.784   0.203  0.2443 -0.2908 -0.3816
  201MOL    C9924499   2.502   3.766   0.143 -1.0355 -0.4220 -0.3577
  201MOL  Cl10024500   2.384   3.846   0.257 -0.1644  0.5261 -0.2015
  201MOL   H10124501   2.640   3.744   0.305  1.5490  1.1716  0.2342
  201MOL   H10224502   2.701   3.712   0.148  2.4528  1.5371 -0.4349
  201MOL   H10324503   2.493   3.825   0.052  3.2254  0.5570 -0.2233
  201MOL   C10424504   2.460   3.616   0.121  0.4240  0.0303  0.6442
  201MOL   C10524505   2.537   3.536   0.024 -0.6456  0.3909  0.0792
  201MOL  Cl10624506   2.520   3.607   8.389  0.1011 -0.1353  0.0134
  201MOL   H10724507   2.356   3.625   0.088  1.3704  0.1453 -2.4173
  201MOL   H10824508   2.438   3.556   0.209  1.3157 -0.8344  0.2852
  201MOL   H10924509   2.643   3.544   0.051 -0.1523  1.5733 -2.0974
  201MOL   C11024510   2.503   3.388   0.024  0.5885  0.7081 -0.4654
  201MOL   C11124511   2.546   3.306   0.147 -0.1172  0.3496  0.0643
  201MOL  Cl11224512   2.723   3.327   0.170 -0.5830 -0.2682  0.3521
  201MOL   H11324513   2.555   3.350   8.462  1.3277 -0.2393  0.3696
  201MOL   H11424514   2.395   3.385   0.010  0.3882  1.0905  0.8955
  201MOL   H11524515   2.503   3.359   0.232 -0.1403 -0.9762  0.8893
  201MOL   C11624516   2.514   3.158   0.131 -0.2012 -0.1343 -0.6853
  201MOL   C11724517   2.546   3.059   0.258 -0.7480  0.1579 -0.8000
  201MOL  Cl11824518   2.443   3.101   0.400  0.1361 -0.4453 -0.0090
  201MOL   H11924519   2.582   3.123   0.054  2.1062  2.2238  0.2001
  201MOL   H12024520   2.413   3.131   0.099 -0.2000 -3.2631  1.7775
  201MOL   H12124521   2.529   2.953   0.242 -1.9468  0.1484  0.4229
  201MOL   H12224522   2.650   3.051   0.290 -2.1369 -3.0242  3.3183
  202MOL     C124523   7.046   3.040   2.945  1.0841  0.0501 -0.8012
  202MOL     C224524   7.004   2.924   2.845 -0.7566 -0.0284 -0.5541
  202MOL    Cl324525   7.158   2.840   2.805 -0.0018 -0.2273 -0.0437
  202MOL     H424526   7.088   2.998   3.036 -0.0741 -0.9638 -0.7259
  202MOL     H524527   7.128   3.095   2.898  1.4681  0.7699  0.6660
  202MOL     H624528   6.939   2.854   2.897  0.8420 -0.1873  1.2361
  202MOL     H724529   6.972   3.117   2.967  2.1915  0.9077 -0.0201
  202MOL     C824530   6.936   2.968   2.712 -0.2617 -0.0145  0.3121
  202MOL     C924531   6.783   3.003   2.721  0.4483  0.1126 -0.2175
  202MOL   Cl1024532   6.683   2.862   2.773  0.0855  0.0149  0.2853
  202MOL    H1124533   6.951   2.895   2.632  1.8942  1.6042 -0.8200
  202MOL    H1224534   6.986   3.056   2.670 -0.9411  0.3932  0.3429
  202MOL    H1324535   6.772   3.075   2.802 -2.0690  0.1852 -0.5804
  202MOL    C1424536   6.716   3.069   2.597 -0.0596 -0.7149  0.1572
  202MOL    C1524537   6.787   3.187   2.540 -0.0061 -0.0833  0.2029
  202MOL   Cl1624538   6.832   3.304   2.668 -0.0545 -0.2906  0.3506
  202MOL    H1724539   6.611   3.091   2.615  0.2211  0.1802  0.7110
  202MOL    H1824540   6.715   2.993   2.519 -1.4508 -0.1790 -0.3597
  202MOL    H1924541   6.879   3.144   2.501 -0.6835  0.1276 -1.6388
  202MOL    C2024542   6.715   3.256   2.418  0.4170 -0.0103 -0.8185
  202MOL    C2124543   6.698   3.164   2.295 -0.3464  0.0558  0.8634
  202MOL   Cl2224544   6.857   3.127   2.224  0.0792 -0.0779 -0.1918
  202MOL    H2324545   6.770   3.348   2.397 -0.7866  0.9377  0.1657
  202MOL    H2424546   6.615   3.282   2.451  0.7806 -0.6052  0.8017
  202MOL    H2524547   6.642   3.071   2.308 -1.1633  0.4442  0.2162
  202MOL    C2624548   6.628   3.250   2.187  0.9466  0.1246  0.3981
  202MOL    C2724549   6.500   3.333   2.208 -0.1821  0.5502  0.3410
  202MOL   Cl2824550   6.368   3.238   2.263  0.1610 -0.1692  0.1859
  202MOL    H2924551   6.616   3.185   2.100  1.9267 -1.5814  1.4874
  202MOL    H3024552   6.706   3.319   2.156  0.5787  0.5137  0.3470
  202MOL    H3124553   6.519   3.405   2.288 -0.6561  2.0739 -0.8937
  202MOL    C3224554   6.461   3.417   2.081 -0.2546 -0.2251  0.0780
  202MOL    C3324555   6.353   3.522   2.101 -0.4528 -0.6330 -0.8781
  202MOL   Cl3424556   6.255   3.531   1.950  0.1567 -0.2992 -0.0635
  202MOL    H3524557   6.439   3.348   2.000  1.3240  2.0560 -2.3958
  202MOL    H3624558   6.552   3.460   2.039  0.1544 -2.2210 -1.1181
  202MOL    H3724559   6.280   3.493   2.177  0.0867 -0.1973 -0.2006
  202MOL    C3824560   6.405   3.658   2.145  0.3866  0.2624  0.3670
  202MOL    C3924561   6.310   3.752   2.232  0.2109 -0.3485  0.2970
  202MOL   Cl4024562   6.177   3.804   2.123 -0.3629  0.3899 -0.4018
  202MOL    H4124563   6.445   3.716   2.062 -0.8905  0.1340 -0.3574
  202MOL    H4224564   6.489   3.631   2.208 -0.5511  1.0542  1.9715
  202MOL    H4324565   6.270   3.699   2.319  2.0023 -0.7562  0.8986
  202MOL    C4424566   6.385   3.874   2.289 -0.5293 -0.0623  0.5991
  202MOL    C4524567   6.297   3.968   2.375 -0.1006 -0.5019 -0.0641
  202MOL   Cl4624568   6.397   4.110   2.415  0.0372  0.0840 -0.2264
  202MOL    H4724569   6.428   3.930   2.206  0.8368 -3.1214 -0.8098
  202MOL    H4824570   6.470   3.841   2.347 -0.0960 -1.6084 -0.8682
  202MOL    H4924571   6.212   4.000   2.314 -1.2990 -1.6181  0.9807
  202MOL    C5024572   6.235   3.922   2.506 -0.3246  0.8347  0.5323
  202MOL    C5124573   6.100   3.990   2.533 -0.1690 -0.0011 -0.3080
  202MOL   Cl5224574   6.113   4.175   2.533 -0.1595 -0.1760  0.1085
  202MOL    H5324575   6.301   3.952   2.588  1.5136  2.6408 -1.5737
  202MOL    H5424576   6.241   3.813   2.515 -1.4957  0.5653 -1.7491
  202MOL    H5524577   6.038   3.984   2.443  2.0552 -0.2923 -1.8836
  202MOL    C5624578   6.021   3.928   2.650  0.3894  0.4459 -0.9286
  202MOL    C5724579   5.870   3.968   2.662 -0.0189 -0.2843 -0.0764
  202MOL   Cl5824580   5.883   4.110   2.771  0.6000  0.0411  0.1907
  202MOL    H5924581   6.077   3.936   2.744  1.5525 -1.3006 -1.4323
  202MOL    H6024582   6.022   3.819   2.644 -0.0742  0.2804  1.3775
  202MOL    H6124583   5.843   4.018   2.570  0.1860  0.0522  0.0436
  202MOL    C6224584   5.779   3.854   2.704  0.3913 -0.2113  0.0348
  202MOL    C6324585   5.759   3.726   2.620 -0.1745  0.0365  0.0028
  202MOL   Cl6424586   5.721   3.760   2.449  0.7495 -0.0747 -0.6652
  202MOL    H6524587   5.677   3.886   2.721 -0.9070 -2.0102 -3.6622
  202MOL    H6624588   5.821   3.813   2.795  0.6659 -1.2467 -0.5432
  202MOL    H6724589   5.855   3.673   2.620 -0.1644  0.0222  1.4550
  202MOL    C6824590   5.651   3.613   2.666  0.2295 -0.4659 -0.4195
  202MOL    C6924591   5.668   3.550   2.811 -0.6265  0.0846  0.2801
  202MOL   Cl7024592   5.834   3.486   2.840 -0.0031  0.2171 -0.1247
  202MOL    H7124593   5.663   3.521   2.609  1.1227 -1.1745  0.8664
  202MOL    H7224594   5.550   3.644   2.642  0.0980 -0.4608  0.1182
  202MOL    H7324595   5.652   3.632   2.881 -0.1923  0.7070 -0.3512
  202MOL    C7424596   5.569   3.435   2.843  0.1833  0.2771 -0.6700
  202MOL    C7524597   5.419   3.473   2.847  0.5960  0.1528 -0.0798
  202MOL   Cl7624598   5.377   3.537   3.007  0.0095  0.1527 -0.0250
  202MOL    H7724599   5.595   3.388   2.938 -0.1318  1.4275 -0.0055
  202MOL    H7824600   5.583   3.350   2.775  3.2209  0.4664 -0.3501
  202MOL    H7924601   5.402   3.555   2.779  0.6963 -0.2805 -0.6309
  202MOL    C8024602   5.330   3.355   2.816  0.3788 -0.1838  0.2200
  202MOL    C8124603   5.197   3.377   2.749 -0.2478  0.0264 -0.4541
  202MOL   Cl8224604   5.213   3.434   2.583 -0.6574 -0.3456  0.2071
  202MOL    H8324605   5.319   3.313   2.916  0.5450  2.2193  1.2828
  202MOL    H8424606   5.383   3.275   2.765  1.0544  0.4884 -0.1255
  202MOL    H8524607   5.141   3.286   2.724  0.4206  0.2340 -2.7855
  202MOL    C8624608   5.099   3.468   2.821  0.6308  0.1355 -0.5278
  202MOL    C8724609   5.047   3.417   2.950  0.5411  0.7613 -0.2284
  202MOL   Cl8824610   4.927   3.289   2.908 -0.3278  0.0334  0.1502
  202MOL    H8924611   5.012   3.481   2.757  0.0143 -3.4512 -0.4939
  202MOL    H9024612   5.140   3.569   2.825 -0.0016  0.3795  0.0195
  202MOL    H9124613   5.126   3.370   3.009  0.2437 -1.0258 -1.1902
  202MOL    C9224614   4.972   3.523   3.026  0.4751  0.1170  0.0180
  202MOL    C9324615   4.925   3.488   3.170 -0.2437 -0.1364 -0.7047
  202MOL   Cl9424616   4.782   3.387   3.172 -0.1845  0.0103 -0.1814
  202MOL    H9524617   4.884   3.563   2.976  0.3664 -2.9430 -2.3922
  202MOL    H9624618   5.049   3.599   3.037  1.0789 -0.6176  0.9925
  202MOL    H9724619   4.994   3.429   3.230 -1.4873 -1.4895 -0.5782
  202MOL    C9824620   4.890   3.620   3.236  0.7176 -0.7645  0.1378
  202MOL    C9924621   4.833   3.609   3.385  0.3563 -0.0460  0.4640
  202MOL  Cl10024622   4.763   3.765   3.427 -0.4027  0.3765  0.0538
  202MOL   H10124623   4.827   3.673   3.163  1.0461  1.4313  1.4067
  202MOL   H10224624   4.978   3.681   3.254  0.3390  0.3119 -1.4834
  202MOL   H10324625   4.749   3.539   3.391 -0.8992  1.1144 -2.5067
  202MOL   C10424626   4.931   3.570   3.487 -0.0049  0.5175 -0.7436
  202MOL   C10524627   4.882   3.561   3.640  0.1901 -0.0757  0.9806
  202MOL  Cl10624628   5.008   3.541   3.759 -0.2378  0.2301  0.1321
  202MOL   H10724629   5.026   3.622   3.478 -0.0784  0.6926 -0.5186
  202MOL   H10824630   4.963   3.473   3.450  0.7166  0.4382  0.0838
  202MOL   H10924631   4.845   3.661   3.662  1.1179  0.8894 -1.6592
  202MOL   C11024632   4.782   3.446   3.666 -0.1607  0.0211  0.1345
  202MOL   C11124633   4.677   3.467   3.777 -0.0410 -0.1785  0.2794
  202MOL  Cl11224634   4.606   3.312   3.814 -0.1750 -0.1834 -0.0904
  202MOL   H11324635   4.847   3.363   3.692 -2.3536 -1.0494  2.4883
  202MOL   H11424636   4.721   3.431   3.577 -0.3310 -2.6114  0.6790
  202MOL   H11524637   4.724   3.508   3.867  1.2356 -3.5190  1.1988
  202MOL   C11624638   4.565   3.567   3.731  0.5858 -0.2278 -0.1052
  202MOL   C11724639   4.493   3.630   3.852 -0.6714  0.4057  0.0526
  202MOL  Cl11824640   4.600   3.737   3.952  0.4593  0.1790 -0.3422
  202MOL   H11924641   4.501   3.517   3.658  0.0798 -1.8508  1.4216
  202MOL   H12024642   4.586   3.661   3.678 -1.2153  0.5195  0.4731
  202MOL   H12124643   4.412   3.688   3.808 -1.5478 -1.2058 -0.4931
  202MOL   H12224644   4.453   3.545   3.908 -0.8926  0.2328 -0.3624
  203MOL     C124645   6.341   5.776   6.817 -0.0959  0.0853  0.0205
  203MOL     C224646   6.191   5.800   6.819  0.4316 -0.5698 -0.2517
  203MOL    Cl324647   6.165   5.953   6.726 -0.0580  0.1679 -0.3882
  203MOL     H424648   6.375   5.750   6.717  1.2739 -2.3168  1.0729
  203MOL     H524649   6.408   5.856   6.848 -0.5173  0.5114 -0.1633
  203MOL     H624650   6.135   5.722   6.766 -0.4205 -1.0522  1.3453
  203MOL     H724651   6.373   5.692   6.879  2.0447  0.9695  0.1756
  203MOL     C824652   6.146   5.821   6.964  0.4956  0.3451 -0.8763
  203MOL     C924653   6.142   5.687   7.047  0.0564  1.1891 -0.4283
  203MOL   Cl1024654   6.031   5.573   6.957 -0.2025 -0.3551 -0.1670
  203MOL    H1124655   6.056   5.880   6.978  0.9962  0.8521  0.3367
  203MOL    H1224656   6.219   5.886   7.013  1.2798 -0.4358 -1.0042
  203MOL    H1324657   6.241   5.643   7.048  0.3326  1.7935 -0.8015
  203MOL    C1424658   6.089   5.703   7.194  0.1673  0.2798 -0.2260
  203MOL    C1524659   6.183   5.774   7.292 -0.2955 -0.8754  0.1050
  203MOL   Cl1624660   6.295   5.647   7.336 -0.2132  0.2977  0.5342
  203MOL    H1724661   6.060   5.605   7.232  2.8473 -0.4634  0.0061
  203MOL    H1824662   5.991   5.751   7.191  0.2829  0.5201 -0.2105
  203MOL    H1924663   6.240   5.848   7.236 -1.1236 -0.8969 -0.7906
  203MOL    C2024664   6.114   5.826   7.416 -0.3825  0.1239 -0.4804
  203MOL    C2124665   6.206   5.897   7.515  0.2312  0.1285  0.1704
  203MOL   Cl2224666   6.133   5.906   7.671 -0.3103  0.4665 -0.4329
  203MOL    H2324667   6.079   5.738   7.472  0.9494 -0.1518 -0.0647
  203MOL    H2424668   6.032   5.895   7.397 -0.9327  0.5885  3.0707
  203MOL    H2524669   6.296   5.838   7.529  0.7337  0.7072 -0.6158
  203MOL    C2624670   6.235   6.042   7.473  0.0236  0.0708  0.4893
  203MOL    C2724671   6.347   6.107   7.561 -0.3807  0.3466 -0.0524
  203MOL   Cl2824672   6.372   6.272   7.504 -0.0859 -0.0196  0.0112
  203MOL    H2924673   6.139   6.092   7.487 -0.8099 -2.0815  2.9743
  203MOL    H3024674   6.256   6.045   7.367  1.0529  1.7837  0.7175
  203MOL    H3124675   6.304   6.114   7.661  3.2653 -0.9434  1.6959
  203MOL    C3224676   6.484   6.039   7.557 -0.0826 -0.3416  0.5157
  203MOL    C3324677   6.519   5.959   7.687  0.4484  0.6223  0.5176
  203MOL   Cl3424678   6.566   6.091   7.796 -0.3101 -0.5259  0.3186
  203MOL    H3524679   6.568   6.104   7.533  0.4644 -0.9415  0.8090
  203MOL    H3624680   6.478   5.972   7.471 -0.6328  0.6099 -0.2033
  203MOL    H3724681   6.427   5.912   7.720  0.3115  1.1154  0.8588
  203MOL    C3824682   6.638   5.870   7.660 -0.0382 -0.0105  0.1246
  203MOL    C3924683   6.699   5.793   7.780  0.7785  0.6711 -0.3771
  203MOL   Cl4024684   6.848   5.721   7.729  0.3429  0.4968  0.3102
  203MOL    H4124685   6.712   5.938   7.617 -0.4952  0.8125  0.6361
  203MOL    H4224686   6.606   5.798   7.585 -3.0098  0.6166  0.7355
  203MOL    H4324687   6.733   5.866   7.853  0.3487 -0.0085  0.5125
  203MOL    C4424688   6.610   5.677   7.838 -0.0474 -0.3353 -0.0325
  203MOL    C4524689   6.553   5.577   7.743  0.1332  0.2933 -0.3205
  203MOL   Cl4624690   6.404   5.637   7.674  0.0381 -0.1092  0.3876
  203MOL    H4724691   6.530   5.716   7.902 -0.7683  0.1179 -1.1974
  203MOL    H4824692   6.667   5.618   7.909 -0.3386 -0.0333  0.4557
  203MOL    H4924693   6.621   5.542   7.666 -0.8123  0.7652 -1.3939
  203MOL    C5024694   6.514   5.449   7.816  0.1757 -0.5028 -0.2994
  203MOL    C5124695   6.422   5.354   7.743 -0.0731 -0.2448 -0.2506
  203MOL   Cl5224696   6.383   5.219   7.846 -0.1157  0.0045 -0.0794
  203MOL    H5324697   6.479   5.462   7.919 -0.4694  0.5066 -0.6324
  203MOL    H5424698   6.609   5.398   7.836 -0.5382 -0.6262  3.1631
  203MOL    H5524699   6.323   5.396   7.722  0.2822  0.3516 -0.7554
  203MOL    C5624700   6.487   5.300   7.615  0.4508  0.2152 -0.0381
  203MOL    C5724701   6.419   5.196   7.530  0.4672 -0.3174  0.0739
  203MOL   Cl5824702   6.543   5.138   7.413 -0.1763  0.2243 -0.2128
  203MOL    H5924703   6.578   5.254   7.653  0.3045  1.2416  1.6209
  203MOL    H6024704   6.533   5.369   7.545 -1.5830  1.4294 -0.2090
  203MOL    H6124705   6.373   5.115   7.586  0.0363 -0.1467 -0.0295
  203MOL    C6224706   6.321   5.265   7.440 -0.2753  0.0755  0.1154
  203MOL    C6324707   6.244   5.172   7.347 -0.2793  0.2047 -0.4514
  203MOL   Cl6424708   6.173   5.285   7.232  0.2098  0.1228  0.7139
  203MOL    H6524709   6.369   5.337   7.373 -2.8266  0.9151 -0.9008
  203MOL    H6624710   6.248   5.329   7.489 -0.5382  1.5164 -2.0799
  203MOL    H6724711   6.308   5.106   7.287  0.0774  0.7688 -0.6931
  203MOL    C6824712   6.138   5.093   7.426 -0.6278  0.1039 -0.4229
  203MOL    C6924713   6.082   4.988   7.324  0.0045 -0.3312  0.0830
  203MOL   Cl7024714   5.917   4.951   7.382 -0.3147 -0.3076  0.3855
  203MOL    H7124715   6.053   5.154   7.455 -0.4033 -0.2495  1.0147
  203MOL    H7224716   6.185   5.042   7.511 -1.0751 -0.6876 -0.6440
  203MOL    H7324717   6.077   5.042   7.229 -1.7312 -0.9619 -0.1964
  203MOL    C7424718   6.175   4.868   7.289 -0.1748 -0.6509  0.0078
  203MOL    C7524719   6.140   4.801   7.164  0.1840 -0.5553  0.3670
  203MOL   Cl7624720   6.003   4.684   7.181  0.3241  0.4545 -0.0000
  203MOL    H7724721   6.169   4.795   7.369  0.5670 -0.0298  0.6441
  203MOL    H7824722   6.276   4.909   7.283 -0.2250 -0.5799 -0.3401
  203MOL    H7924723   6.104   4.883   7.103  0.7449  0.2195  1.0559
  203MOL    C8024724   6.260   4.721   7.103  0.0388 -0.2301  0.0887
  203MOL    C8124725   6.224   4.668   6.962  0.1682  0.5650 -0.4918
  203MOL   Cl8224726   6.373   4.598   6.898 -0.1293 -0.3637  0.4274
  203MOL    H8324727   6.295   4.645   7.172 -0.1086  0.0230  0.4459
  203MOL    H8424728   6.352   4.777   7.087 -0.5322  0.4016 -1.0873
  203MOL    H8524729   6.148   4.589   6.960  2.2246 -1.4344 -1.1736
  203MOL    C8624730   6.183   4.782   6.868 -0.0777 -0.1382  0.7318
  203MOL    C8724731   6.187   4.740   6.719  0.1833  0.2635 -0.1059
  203MOL   Cl8824732   6.115   4.871   6.615  0.0424 -0.1698  0.1519
  203MOL    H8924733   6.254   4.865   6.870 -1.3426  1.1377 -2.8852
  203MOL    H9024734   6.085   4.829   6.880 -0.2125  0.2265 -1.5933
  203MOL    H9124735   6.291   4.736   6.686  0.3853 -0.1773  0.5728
  203MOL    C9224736   6.109   4.612   6.691  0.1599 -0.0158 -0.7756
  203MOL    C9324737   6.086   4.570   6.547  0.1722 -0.3474  0.0139
  203MOL   Cl9424738   5.987   4.434   6.557 -0.0388  0.5958 -0.7013
  203MOL    H9524739   6.007   4.621   6.731  1.5143  3.9909  2.0727
  203MOL    H9624740   6.158   4.526   6.737  0.8974  0.1025 -1.3518
  203MOL    H9724741   6.012   4.633   6.497 -0.3441 -0.6309  0.4115
  203MOL    C9824742   6.204   4.528   6.463  0.1277 -0.7406 -0.6814
  203MOL    C9924743   6.171   4.527   6.312 -0.3514  0.5377  0.1490
  203MOL  Cl10024744   6.299   4.430   6.237  0.2660  0.4008  0.1054
  203MOL   H10124745   6.234   4.432   6.505  1.4263  0.0740  0.3306
  203MOL   H10224746   6.286   4.597   6.484 -1.1477  0.6092 -0.0716
  203MOL   H10324747   6.077   4.475   6.293 -0.6380  1.0051  0.2570
  203MOL   C10424748   6.177   4.669   6.259 -0.1548  0.4196 -0.0813
  203MOL   C10524749   6.178   4.679   6.106 -0.4682 -0.0522  0.3139
  203MOL  Cl10624750   6.231   4.845   6.055  0.0020  0.3481  0.5518
  203MOL   H10724751   6.264   4.726   6.292 -0.0569  0.3643 -0.2424
  203MOL   H10824752   6.103   4.733   6.308 -1.4622 -2.5934  2.0611
  203MOL   H10924753   6.253   4.610   6.067  1.8369  2.3099  0.4013
  203MOL   C11024754   6.041   4.653   6.028  0.0411  0.1345  0.6187
  203MOL   C11124755   6.065   4.637   5.877 -0.0296 -0.0564 -0.2799
  203MOL  Cl11224756   5.915   4.637   5.783 -0.0368 -0.5990 -0.1467
  203MOL   H11324757   5.968   4.733   6.047 -0.2431  0.3057 -1.1463
  203MOL   H11424758   5.976   4.578   6.072  0.9748  0.4313  2.5815
  203MOL   H11524759   6.118   4.726   5.843 -0.4341  1.2021  2.2693
  203MOL   C11624760   6.145   4.510   5.842  0.4329  0.2382 -1.1319
  203MOL   C11724761   6.077   4.379   5.881 -0.2345 -0.0197  1.0840
  203MOL  Cl11824762   6.195   4.241   5.886  0.2631  0.1593  0.4403
  203MOL   H11924763   6.241   4.523   5.892  0.2028  0.6348 -0.7860
  203MOL   H12024764   6.188   4.505   5.742 -0.3257 -2.3261 -1.3543
  203MOL   H12124765   6.019   4.380   5.973 -0.8441  2.6232  0.6912
  203MOL   H12224766   6.005   4.346   5.806 -0.2324  1.4644  0.4102
  204MOL     C124767   0.408   5.851   6.849 -0.4517 -0.9050  0.1192
  204MOL     C224768   0.471   5.866   6.708  0.1558 -0.2165  0.4677
  204MOL    Cl324769   0.352   5.834   6.575 -0.1889 -0.5051  0.5334
  204MOL     H424770   0.349   5.940   6.868  0.9814 -0.4892  2.8226
  204MOL     H524771   0.359   5.754   6.859 -2.4688  0.1753  1.0564
  204MOL     H624772   0.504   5.969   6.691 -2.8218  0.6404 -0.4452
  204MOL     H724773   0.479   5.853   6.932  0.6274 -0.4586 -0.8035
  204MOL     C824774   0.590   5.770   6.695 -0.1386 -0.0899 -0.4114
  204MOL     C924775   0.708   5.802   6.595  0.1529  0.6381  0.2960
  204MOL   Cl1024776   0.773   5.974   6.619  0.1041  0.1419  0.2168
  204MOL    H1124777   0.552   5.668   6.690 -0.8066  0.1447 -0.1632
  204MOL    H1224778   0.648   5.781   6.787 -0.1154 -2.4047 -0.1273
  204MOL    H1324779   0.793   5.737   6.611 -0.1365  0.2433  0.2302
  204MOL    C1424780   0.659   5.786   6.449  0.8861  0.0524  0.2758
  204MOL    C1524781   0.611   5.643   6.399  0.2169  0.2762  0.3149
  204MOL   Cl1624782   0.724   5.511   6.438  0.1735  0.1660 -0.1799
  204MOL    H1724783   0.726   5.826   6.373 -0.8577  0.9768 -0.8125
  204MOL    H1824784   0.570   5.848   6.442  0.8150  0.1631  2.0060
  204MOL    H1924785   0.520   5.616   6.453  0.4143  2.7389  1.9762
  204MOL    C2024786   0.568   5.642   6.249  0.4791 -0.0380 -0.1659
  204MOL    C2124787   0.465   5.531   6.209  0.9913 -0.1607  0.1509
  204MOL   Cl2224788   0.466   5.535   6.032  0.0203 -0.1553 -0.3125
  204MOL    H2324789   0.666   5.637   6.201  0.1192 -1.4127 -0.8059
  204MOL    H2424790   0.514   5.734   6.228  0.5959 -0.0429 -0.4943
  204MOL    H2524791   0.512   5.439   6.245 -1.6544 -1.2399  0.9516
  204MOL    C2624792   0.327   5.556   6.264  0.3214 -0.7601 -0.4591
  204MOL    C2724793   0.228   5.435   6.241  0.2344  0.5478  0.3628
  204MOL   Cl2824794   0.071   5.486   6.299 -0.2140  0.2831  0.1627
  204MOL    H2924795   0.298   5.651   6.218 -2.1624 -2.6148 -2.9035
  204MOL    H3024796   0.330   5.590   6.367  0.1123 -1.3671 -0.2533
  204MOL    H3124797   0.218   5.411   6.135 -1.8902  2.7922  0.0107
  204MOL    C3224798   0.269   5.301   6.311 -0.3557  0.2602  0.1494
  204MOL    C3324799   0.167   5.188   6.295 -0.8219  0.1850  0.8873
  204MOL   Cl3424800   0.216   5.058   6.397 -0.0006  0.3849  0.3213
  204MOL    H3524801   0.292   5.321   6.416 -1.1194 -0.0151  0.3715
  204MOL    H3624802   0.363   5.268   6.266 -0.6624  1.9261 -1.8081
  204MOL    H3724803   0.075   5.235   6.330 -0.7712  2.2791 -1.5820
  204MOL    C3824804   0.143   5.142   6.150 -0.3285  0.4118 -0.1004
  204MOL    C3924805   8.524   5.089   6.114 -0.0957 -0.4783  0.0260
  204MOL   Cl4024806   8.413   5.227   6.145  0.2663 -0.3512  0.1086
  204MOL    H4124807   0.222   5.072   6.122 -0.8712  0.4970 -1.8974
  204MOL    H4224808   0.153   5.225   6.080 -2.0457  0.3541 -0.4306
  204MOL    H4324809   8.521   5.065   6.008  3.0972 -0.9240 -0.0179
  204MOL    C4424810   8.469   4.971   6.204  0.4273 -0.3365  0.2148
  204MOL    C4524811   8.502   4.826   6.154 -0.1807  1.0256 -0.3087
  204MOL   Cl4624812   8.492   4.814   5.982 -0.1834 -0.3751 -0.0579
  204MOL    H4724813   8.361   4.973   6.201  0.4589  0.9023 -0.1345
  204MOL    H4824814   8.496   4.977   6.309 -2.9744 -1.2949  1.1976
  204MOL    H4924815   0.082   4.806   6.177 -0.2556  0.0979 -0.7365
  204MOL    C5024816   8.416   4.721   6.218  0.0182  0.0672 -0.5457
  204MOL    C5124817   8.419   4.726   6.373  0.6336  0.3378 -0.3960
  204MOL   Cl5224818   0.047   4.666   6.432  0.4007  0.3230  0.1392
  204MOL    H5324819   8.450   4.623   6.184  3.0484  0.0601  2.3208
  204MOL    H5424820   8.314   4.741   6.186  0.2941  2.1314 -0.1840
  204MOL    H5524821   8.402   4.828   6.409  1.2056  0.2710  0.0753
  204MOL    C5624822   8.311   4.637   6.434 -0.3465  0.1773  0.3888
  204MOL    C5724823   8.166   4.685   6.417  0.2383  0.4729  0.0393
  204MOL   Cl5824824   8.140   4.846   6.479  0.0339  0.3805  0.1722
  204MOL    H5924825   8.337   4.624   6.539 -0.9329  2.8623  0.8883
  204MOL    H6024826   8.326   4.536   6.397  0.3268  0.5442 -0.3521
  204MOL    H6124827   8.147   4.691   6.310 -0.5227  1.0073  0.2037
  204MOL    C6224828   8.067   4.586   6.484  1.0070  0.2707 -0.0006
  204MOL    C6324829   8.049   4.450   6.417 -0.3216  0.2349 -0.2549
  204MOL   Cl6424830   7.998   4.482   6.252  0.0938 -0.0526  0.1995
  204MOL    H6524831   7.966   4.628   6.480  0.9703  0.1298 -0.5878
  204MOL    H6624832   8.084   4.577   6.591  1.2230  0.9125  0.0201
  204MOL    H6724833   8.139   4.390   6.415  0.4562  1.3990 -1.5592
  204MOL    C6824834   7.940   4.378   6.488  0.1339  0.4978  0.1348
  204MOL    C6924835   7.943   4.225   6.481  0.0876 -0.1428  0.0060
  204MOL   Cl7024836   8.094   4.173   6.553 -0.2866 -0.2185 -0.0521
  204MOL    H7124837   7.840   4.414   6.466 -0.3453  0.3964  2.0624
  204MOL    H7224838   7.964   4.403   6.591 -0.9575  1.7108  0.1038
  204MOL    H7324839   7.871   4.186   6.554 -1.4345  0.3465 -1.2100
  204MOL    C7424840   7.910   4.159   6.348 -0.2340 -0.9537  0.3783
  204MOL    C7524841   7.772   4.204   6.287  0.5155  0.2450  0.4387
  204MOL   Cl7624842   7.653   4.182   6.411  0.0938  0.5711 -0.1202
  204MOL    H7724843   7.906   4.051   6.367  1.1248 -0.9081  0.9636
  204MOL    H7824844   7.997   4.172   6.283 -0.1113  1.0071  0.9295
  204MOL    H7924845   7.773   4.310   6.262 -0.4402  0.0269 -0.5772
  204MOL    C8024846   7.727   4.120   6.158 -0.6541 -0.1337 -0.3187
  204MOL    C8124847   7.813   4.155   6.031 -0.3721 -0.3838  0.2470
  204MOL   Cl8224848   7.783   4.327   5.986  0.2468  0.0612  0.2997
  204MOL    H8324849   7.620   4.114   6.137 -0.8421  1.3531  0.1873
  204MOL    H8424850   7.752   4.015   6.171  1.7372  0.8360  3.5445
  204MOL    H8524851   7.919   4.160   6.054 -0.5965  1.4672  0.8989
  204MOL    C8624852   7.805   4.061   5.912 -0.8130  0.5075 -0.1269
  204MOL    C8724853   7.662   4.043   5.858  0.2031  0.1078  0.0399
  204MOL   Cl8824854   7.586   3.898   5.933  0.1021 -0.0358  0.1828
  204MOL    H8924855   7.841   3.968   5.955 -0.6720  0.9311  0.6913
  204MOL    H9024856   7.880   4.089   5.838  0.2778  0.6662  1.0175
  204MOL    H9124857   7.594   4.127   5.876 -1.6687 -1.2157 -0.7633
  204MOL    C9224858   7.658   4.020   5.703 -0.2151  0.3176 -0.1061
  204MOL    C9324859   7.696   4.144   5.616 -0.0043 -0.5637 -0.7859
  204MOL   Cl9424860   7.570   4.263   5.625  0.2882 -0.3241 -0.2128
  204MOL    H9524861   7.561   3.987   5.666 -0.7102  0.8482  0.6932
  204MOL    H9624862   7.707   3.933   5.660 -2.3044  0.4671 -2.9361
  204MOL    H9724863   7.780   4.196   5.662 -0.3069 -1.9220  1.3696
  204MOL    C9824864   7.724   4.099   5.470 -0.8719  0.2758  0.2938
  204MOL    C9924865   7.778   4.213   5.394  0.0143 -0.3054 -0.1959
  204MOL  Cl10024866   7.790   4.169   5.220 -0.2928  0.4621  0.1017
  204MOL   H10124867   7.630   4.074   5.421 -1.3975 -0.0943  1.4466
  204MOL   H10224868   7.794   4.015   5.470  2.1044  2.6588 -0.6905
  204MOL   H10324869   7.704   4.293   5.397 -0.8670 -1.0554 -1.3134
  204MOL   C10424870   7.918   4.278   5.436  0.5709  0.2872  0.3153
  204MOL   C10524871   8.033   4.193   5.463  0.3900 -0.5912  1.1916
  204MOL  Cl10624872   8.044   4.151   5.638 -0.0245 -0.2343  0.1482
  204MOL   H10724873   7.893   4.349   5.514  0.3589 -0.8811  1.3176
  204MOL   H10824874   7.944   4.345   5.354 -0.5752 -0.9712 -1.1177
  204MOL   H10924875   8.023   4.098   5.410 -0.1460 -0.7542  1.5850
  204MOL   C11024876   8.168   4.265   5.435 -0.5070 -0.0549 -0.4038
  204MOL   C11124877   8.202   4.293   5.289 -0.0250 -0.1327 -0.3610
  204MOL  Cl11224878   8.234   4.140   5.211  0.0963  0.1548 -0.4040
  204MOL   H11324879   8.252   4.214   5.482  1.2214  1.3695 -1.8569
  204MOL   H11424880   8.162   4.362   5.485 -1.1318 -0.3701  0.1255
  204MOL   H11524881   8.124   4.329   5.222  0.4480 -2.7943 -2.4353
  204MOL   C11624882   8.337   4.368   5.271 -0.9354 -0.3382  0.3700
  204MOL   C11724883   8.323   4.518   5.302 -0.4480  0.2448 -0.0932
  204MOL  Cl11824884   8.200   4.589   5.200  0.7637  0.0881  0.3851
  204MOL   H11924885   8.377   4.366   5.170  0.8610 -0.3891  1.0642
  204MOL   H12024886   8.414   4.322   5.333 -0.4995 -0.6474 -0.4033
  204MOL   H12124887   8.291   4.548   5.402  0.9966 -1.5667  0.9546
  204MOL   H12224888   8.417   4.569   5.278  0.0871 -1.1784 -1.1014
  205MOL     C124889   2.258   3.185   2.731  0.1656 -0.0698 -0.0615
  205MOL     C224890   2.320   3.321   2.701 -0.0567  0.2581  0.2567
  205MOL    Cl324891   2.365   3.328   2.525  0.4682 -0.0545 -0.2067
  205MOL     H424892   2.168   3.187   2.670  1.5976  3.2746 -2.1648
  205MOL     H524893   2.325   3.100   2.720  0.4796  0.2145 -0.3193
  205MOL     H624894   2.234   3.387   2.716 -0.4340 -0.2438  0.3319
  205MOL     H724895   2.228   3.183   2.836  0.2098 -0.1240 -0.0501
  205MOL     C824896   2.436   3.367   2.789 -0.5308  0.2411  0.6874
  205MOL     C924897   2.564   3.279   2.809 -0.0747 -0.4600  0.5268
  205MOL   Cl1024898   2.529   3.160   2.941 -0.0923 -0.1355  0.0598
  205MOL    H1124899   2.392   3.399   2.883 -0.4585 -0.6526  1.0307
  205MOL    H1224900   2.463   3.464   2.747 -0.1778 -0.0468  0.2340
  205MOL    H1324901   2.606   3.237   2.717 -0.1546 -0.5008  0.5093
  205MOL    C1424902   2.685   3.363   2.856 -0.1398 -0.2533  0.0470
  205MOL    C1524903   2.729   3.484   2.768  0.1198 -0.5051  1.0365
  205MOL   Cl1624904   2.761   3.442   2.596  0.0284  0.0510  0.1330
  205MOL    H1724905   2.774   3.300   2.865  0.0535 -0.0640 -0.5094
  205MOL    H1824906   2.663   3.394   2.958 -1.0323  1.1993 -0.5810
  205MOL    H1924907   2.645   3.553   2.761  1.5667  1.1592 -0.7810
  205MOL    C2024908   2.850   3.575   2.821  0.2154  0.5239  0.4438
  205MOL    C2124909   2.821   3.639   2.964  0.2748 -0.3702  0.4737
  205MOL   Cl2224910   2.649   3.669   3.004  0.3565  0.1203  0.0139
  205MOL    H2324911   2.858   3.656   2.749 -3.3083 -1.4683 -2.3444
  205MOL    H2424912   2.941   3.515   2.826 -1.1028 -1.5962 -0.2824
  205MOL    H2524913   2.854   3.566   3.038  0.4238 -0.5815  0.1957
  205MOL    C2624914   2.905   3.764   3.001  0.1964  0.4393 -0.1058
  205MOL    C2724915   2.849   3.905   2.963 -1.1544  0.1467 -0.4696
  205MOL   Cl2824916   2.835   3.928   2.784  0.0971  0.2469  0.4389
  205MOL    H2924917   3.001   3.750   2.950 -0.2243 -1.2568 -0.4461
  205MOL    H3024918   2.942   3.772   3.103 -0.3810  2.8683 -0.0388
  205MOL    H3124919   2.751   3.918   3.010 -1.2857 -2.1392 -0.0553
  205MOL    C3224920   2.949   4.017   3.013  0.3500 -0.3797  0.2934
  205MOL    C3324921   2.884   4.159   2.997  0.8279 -0.4832 -0.3357
  205MOL   Cl3424922   3.009   4.282   3.035 -0.3036  0.0217 -0.1324
  205MOL    H3524923   3.040   4.010   2.955  0.6535 -0.6687  0.7984
  205MOL    H3624924   2.982   4.011   3.117  2.1279 -1.0178 -0.3020
  205MOL    H3724925   2.871   4.179   2.891  0.0364 -0.2603 -0.2011
  205MOL    C3824926   2.749   4.186   3.074 -0.0379 -0.3934  0.2535
  205MOL    C3924927   2.764   4.197   3.232 -0.9447 -0.2721  0.2565
  205MOL   Cl4024928   2.798   4.035   3.309 -0.4020  0.2612 -0.1399
  205MOL    H4124929   2.672   4.114   3.047  0.2671 -1.2460  1.5935
  205MOL    H4224930   2.706   4.282   3.048  0.0499  0.0585  1.7042
  205MOL    H4324931   2.847   4.262   3.260 -2.1023  0.9699  0.8615
  205MOL    C4424932   2.635   4.258   3.298 -0.1961 -0.4581  0.4518
  205MOL    C4524933   2.588   4.396   3.253 -0.9053 -0.6115 -0.1747
  205MOL   Cl4624934   2.716   4.515   3.226  0.1957 -0.2729  0.0289
  205MOL    H4724935   2.640   4.258   3.407 -1.6088 -0.4882  0.5364
  205MOL    H4824936   2.550   4.192   3.278 -1.0855  0.0097  2.5110
  205MOL    H4924937   2.543   4.389   3.154  1.8823 -2.7463 -1.3744
  205MOL    C5024938   2.482   4.449   3.353  0.4033  0.1335 -0.1648
  205MOL    C5124939   2.412   4.573   3.315 -0.0565  0.2061 -0.3468
  205MOL   Cl5224940   2.322   4.634   3.458 -0.0262  0.2366  0.3745
  205MOL    H5324941   2.531   4.457   3.450  1.5253 -0.9463 -0.6254
  205MOL    H5424942   2.403   4.374   3.360  0.5223  0.1609  1.6767
  205MOL    H5524943   2.488   4.648   3.292 -0.2295 -0.0036 -1.6162
  205MOL    C5624944   2.309   4.568   3.203  0.4066  0.2411 -0.3051
  205MOL    C5724945   2.259   4.700   3.151 -0.2459 -0.3094  0.1561
  205MOL   Cl5824946   2.098   4.746   3.218  0.0368 -0.3961 -0.1309
  205MOL    H5924947   2.220   4.520   3.243  1.2994 -1.2799 -0.0901
  205MOL    H6024948   2.351   4.510   3.121 -0.9202  0.2180 -0.9808
  205MOL    H6124949   2.331   4.773   3.189 -1.0281 -0.8541  2.7536
  205MOL    C6224950   2.255   4.699   3.000 -0.1645  0.6535  0.1347
  205MOL    C6324951   2.392   4.689   2.924 -0.1152 -0.2538 -0.2266
  205MOL   Cl6424952   2.479   4.835   2.954  0.0900  0.0869 -0.5159
  205MOL    H6524953   2.206   4.790   2.967 -0.5069  0.8509  1.1909
  205MOL    H6624954   2.189   4.616   2.976  0.2948 -0.0178  1.1341
  205MOL    H6724955   2.454   4.604   2.952  0.2578  0.2797  0.5691
  205MOL    C6824956   2.367   4.686   2.771  1.5619 -0.6112  0.2078
  205MOL    C6924957   2.307   4.553   2.720  0.3226  0.1201 -0.8579
  205MOL   Cl7024958   2.440   4.437   2.722 -0.0997  0.3217 -0.0319
  205MOL    H7124959   2.453   4.718   2.712  1.0253  1.8986  0.7014
  205MOL    H7224960   2.297   4.768   2.750  0.8840 -0.2699  3.5668
  205MOL    H7324961   2.236   4.518   2.794  2.9007 -1.1447  1.0828
  205MOL    C7424962   2.245   4.573   2.588  0.0172  0.2548 -1.3809
  205MOL    C7524963   2.172   4.447   2.535 -0.1369 -0.2452  0.0046
  205MOL   Cl7624964   2.134   4.486   2.366  0.0596 -0.4533  0.0679
  205MOL    H7724965   2.326   4.582   2.517  1.6346 -3.0283 -0.0452
  205MOL    H7824966   2.179   4.659   2.573  0.9913  0.8341 -2.4134
  205MOL    H7924967   2.239   4.363   2.554 -0.0975 -0.1143  0.4592
  205MOL    C8024968   2.044   4.418   2.618  0.7149  0.1461  0.2713
  205MOL    C8124969   1.933   4.331   2.554  0.3206 -0.1660 -0.4935
  205MOL   Cl8224970   1.787   4.353   2.656  0.1143  0.1563  0.5106
  205MOL    H8324971   1.998   4.516   2.632 -0.0696  0.1449 -2.0158
  205MOL    H8424972   2.062   4.394   2.723  0.1661  2.5249  0.9468
  205MOL    H8524973   1.903   4.366   2.455  1.5107 -0.2880 -0.9055
  205MOL    C8624974   1.968   4.183   2.547  0.0202  0.5614  1.2282
  205MOL    C8724975   1.871   4.080   2.479  0.0594  0.4139  0.4088
  205MOL   Cl8824976   1.919   3.922   2.545 -0.1111  0.1562  0.4325
  205MOL    H8924977   1.977   4.158   2.652  0.6921  0.8333  1.2355
  205MOL    H9024978   2.068   4.184   2.505 -0.9692  2.0282 -1.2508
  205MOL    H9124979   1.766   4.093   2.505  0.2619  1.7049  0.5670
  205MOL    C9224980   1.894   4.078   2.324  0.2565  0.3408 -0.1089
  205MOL    C9324981   1.782   4.019   2.246  0.2994  0.3143  0.1834
  205MOL   Cl9424982   1.839   3.967   2.089  0.1018 -0.0067 -0.0687
  205MOL    H9524983   1.987   4.023   2.307 -0.3970 -1.9787  3.3106
  205MOL    H9624984   1.917   4.176   2.283  0.6659 -0.3200 -1.4830
  205MOL    H9724985   1.763   3.925   2.298  1.6273 -0.8705 -1.3994
  205MOL    C9824986   1.651   4.100   2.245 -0.4091 -0.4923  0.7429
  205MOL    C9924987   1.535   4.023   2.178 -0.4445  0.3136 -0.2534
  205MOL  Cl10024988   1.401   4.136   2.167 -0.4244  0.0739 -0.2388
  205MOL   H10124989   1.678   4.193   2.194  1.9240 -1.3238  0.3932
  205MOL   H10224990   1.619   4.126   2.346  0.1403 -1.5962  1.2057
  205MOL   H10324991   1.555   4.001   2.073 -0.9611 -2.1886  0.1279
  205MOL   C10424992   1.489   3.895   2.251 -0.0719 -0.7798 -0.1351
  205MOL   C10524993   1.380   3.801   2.195 -0.4330 -0.6815  0.4739
  205MOL  Cl10624994   1.295   3.712   2.324 -0.1318  0.6323  0.0155
  205MOL   H10724995   1.444   3.938   2.341 -0.6234  1.3809 -1.4027
  205MOL   H10824996   1.567   3.829   2.288 -2.0541 -3.4509 -0.6183
  205MOL   H10924997   1.311   3.869   2.144  2.3399  2.9782  1.4080
  205MOL   C11024998   1.439   3.707   2.097  0.0620  0.4101  0.8262
  205MOL   C11124999   1.356   3.606   2.014 -0.1647 -0.1352  1.0268
  205MOL  Cl11225000   1.467   3.516   1.904  0.3108  0.2126  0.2609
  205MOL   H11325001   1.514   3.650   2.151  0.7916  1.7359  1.2197
  205MOL   H11425002   1.495   3.771   2.029  0.1014 -0.3515  0.1284
  205MOL   H11525003   1.315   3.529   2.078  1.8491 -0.8105  1.5306
  205MOL   C11625004   1.246   3.655   1.920 -0.0777  1.0564 -0.2210
  205MOL   C11725005   1.176   3.551   1.845  0.5795 -0.2821 -0.7714
  205MOL  Cl11825006   1.041   3.628   1.760  0.3676  0.1045 -0.0917
  205MOL   H11925007   1.297   3.724   1.852 -1.0960 -0.3658 -2.4926
  205MOL   H12025008   1.173   3.707   1.981 -2.5439 -3.0719  0.4796
  205MOL   H12125009   1.235   3.491   1.775  1.4492 -1.1410  0.6513
  205MOL   H12225010   1.133   3.483   1.918 -0.3326  0.9122 -0.1827
  206MOL     C125011   0.518   0.174   7.786  0.2357  0.3402  0.6573
  206MOL     C225012   0.531   0.017   7.777 -0.3197  0.0166 -0.0996
  206MOL    Cl325013   0.420   8.476   7.901  0.1411  0.3092  0.1306
  206MOL     H425014   0.578   0.217   7.706  2.6266 -2.3375  0.9433
  206MOL     H525015   0.419   0.218   7.777 -0.1332 -0.6969 -0.5024
  206MOL     H625016   0.491   8.512   7.681  1.0587 -2.0340 -0.0614
  206MOL     H725017   0.571   0.208   7.875  2.7122 -1.4028 -0.1097
  206MOL     C825018   0.677   8.487   7.791  0.2394  0.7167  0.2785
  206MOL     C925019   0.782   8.510   7.678 -0.3176 -0.5175 -0.1900
  206MOL   Cl1025020   0.831   0.162   7.692 -0.0017 -0.6141 -0.0986
  206MOL    H1125021   0.668   8.379   7.790 -1.8560  0.8418  2.6740
  206MOL    H1225022   0.711   8.497   7.894  1.3565  0.9518 -0.1066
  206MOL    H1325023   0.869   8.447   7.698  1.4934  1.8788 -0.2637
  206MOL    C1425024   0.723   8.484   7.539 -0.8532 -0.0870 -0.0132
  206MOL    C1525025   0.831   8.482   7.429  0.1741 -0.2369  0.1864
  206MOL   Cl1625026   0.985   8.399   7.482  0.1059 -0.1514 -0.1373
  206MOL    H1725027   0.650   0.037   7.520  2.9848  3.6457 -0.1666
  206MOL    H1825028   0.669   8.390   7.544 -0.1073 -0.5247 -0.1255
  206MOL    H1925029   0.791   8.422   7.348 -0.3247  0.1870  0.1116
  206MOL    C2025030   0.859   0.093   7.365  0.1987 -0.0410  0.6770
  206MOL    C2125031   0.744   0.143   7.280  0.5005 -0.6445  0.2724
  206MOL   Cl2225032   0.746   0.068   7.113 -0.2651 -0.0417  0.0231
  206MOL    H2325033   0.946   0.092   7.299 -1.1647 -0.2490 -1.1569
  206MOL    H2425034   0.881   0.158   7.449 -0.9715  1.5788 -0.2405
  206MOL    H2525035   0.650   0.108   7.324  0.3932  0.2940  0.8082
  206MOL    C2625036   0.740   0.296   7.266 -0.0306 -0.4734  0.5889
  206MOL    C2725037   0.685   0.358   7.393  0.3677  0.0896  0.0520
  206MOL   Cl2825038   0.509   0.372   7.381  0.4927 -0.1294 -0.2730
  206MOL    H2925039   0.678   0.334   7.184  1.3347 -1.0163 -0.7226
  206MOL    H3025040   0.840   0.338   7.251  1.0468 -2.2354  2.6370
  206MOL    H3125041   0.707   0.305   7.486 -0.5131  1.6983  1.1984
  206MOL    C3225042   0.739   0.491   7.427  0.3697 -0.1172 -0.4939
  206MOL    C3325043   0.657   0.578   7.527  0.5724  0.5082 -0.2129
  206MOL   Cl3425044   0.543   0.689   7.440  0.2252  0.2907 -0.0660
  206MOL    H3525045   0.746   0.549   7.335 -1.1354  1.9431  0.6369
  206MOL    H3625046   0.840   0.479   7.467  0.1625  0.4796  0.2066
  206MOL    H3725047   0.585   0.520   7.583 -0.4453  2.1403  0.2162
  206MOL    C3825048   0.745   0.647   7.631 -0.0583  0.4189  0.2009
  206MOL    C3925049   0.780   0.544   7.739  0.7679  0.2138  0.4429
  206MOL   Cl4025050   0.656   0.545   7.870  0.5174 -0.0230 -0.0103
  206MOL    H4125051   0.699   0.739   7.667  0.5425  1.0882 -0.7266
  206MOL    H4225052   0.834   0.699   7.596  0.1122 -0.0844 -0.1168
  206MOL    H4325053   0.776   0.447   7.690 -1.3071  1.7748 -2.6127
  206MOL    C4425054   0.920   0.561   7.805  0.1058  0.5344 -0.4395
  206MOL    C4525055   1.039   0.545   7.708  0.3016 -0.4911 -0.3436
  206MOL   Cl4625056   1.023   0.388   7.618  0.1800  0.1343 -0.4538
  206MOL    H4725057   0.942   0.490   7.884  3.4020  0.7380 -1.1137
  206MOL    H4825058   0.923   0.657   7.857 -1.7348 -0.7629  2.1890
  206MOL    H4925059   1.045   0.623   7.632 -0.6695 -0.2338 -0.1588
  206MOL    C5025060   1.178   0.534   7.773  0.1796 -0.1554 -0.4193
  206MOL    C5125061   1.218   0.662   7.844  0.0093  0.5247  0.7808
  206MOL   Cl5225062   1.292   0.783   7.728  0.0006  0.1272 -0.3374
  206MOL    H5325063   1.243   0.504   7.690  0.3213  1.0127 -0.7433
  206MOL    H5425064   1.178   0.450   7.843  3.3552 -0.3022 -0.5235
  206MOL    H5525065   1.134   0.716   7.889 -1.2207 -1.1619  0.5869
  206MOL    C5625066   1.320   0.637   7.955  0.3647  0.2958  0.1068
  206MOL    C5725067   1.457   0.586   7.909  0.1739  0.2212 -0.1562
  206MOL   Cl5825068   1.453   0.410   7.871  0.4240  0.0255 -0.1575
  206MOL    H5925069   1.270   0.562   8.016  1.9614 -0.5806  0.3358
  206MOL    H6025070   1.337   0.727   8.014 -0.5163  2.0210 -2.2084
  206MOL    H6125071   1.488   0.634   7.816 -3.7970  1.8847 -0.7243
  206MOL    C6225072   1.558   0.600   8.026  0.4818  0.1821  0.4406
  206MOL    C6325073   1.600   0.741   8.071 -0.3169  0.2612  0.3927
  206MOL   Cl6425074   1.700   0.812   7.945 -0.3612 -0.5494 -0.3369
  206MOL    H6525075   1.646   0.538   8.008  0.1917  0.0498 -0.5015
  206MOL    H6625076   1.512   0.560   8.117 -1.1854 -1.1303 -0.9524
  206MOL    H6725077   1.520   0.814   8.083 -0.4862  0.3881 -1.3654
  206MOL    C6825078   1.678   0.735   8.208  0.3626  0.2798  0.0529
  206MOL    C6925079   1.706   0.870   8.281  0.5208  0.4346 -0.5078
  206MOL   Cl7025080   1.790   0.834   8.433  0.1442 -0.0153  0.4093
  206MOL    H7125081   1.771   0.677   8.204  0.2563 -0.0442  2.0953
  206MOL    H7225082   1.620   0.675   8.277  2.1407 -2.7315 -0.9720
  206MOL    H7325083   1.781   0.916   8.216  2.2901 -1.3615  0.2160
  206MOL    C7425084   1.593   0.975   8.288 -0.3510 -0.8348 -0.1041
  206MOL    C7525085   1.477   0.951   8.390  0.5295  0.0678 -0.0910
  206MOL   Cl7625086   1.406   0.792   8.382  0.1824  0.0697  0.2023
  206MOL    H7725087   1.558   1.002   8.188  1.2217  0.8443 -0.2280
  206MOL    H7825088   1.637   1.066   8.328 -1.2691 -0.6499  0.5234
  206MOL    H7925089   1.512   0.959   8.493  2.1941  2.8033 -0.8542
  206MOL    C8025090   1.369   1.055   8.356 -0.1168 -0.1403  0.1396
  206MOL    C8125091   1.254   1.064   8.459  0.4101 -0.3539 -0.1103
  206MOL   Cl8225092   1.104   1.131   8.382  0.3205 -0.3596 -0.0581
  206MOL    H8325093   1.319   1.030   8.262  0.6770  1.1943 -0.6498
  206MOL    H8425094   1.418   1.152   8.350 -1.5465  0.8495  3.4746
  206MOL    H8525095   1.220   0.964   8.486 -1.2931 -0.1748 -1.4889
  206MOL    C8625096   1.298   1.152   0.056  0.3510  0.1599  0.3281
  206MOL    C8725097   1.184   1.175   0.159  0.2111  0.1320  0.7167
  206MOL   Cl8825098   1.239   1.303   0.265  0.1989 -0.2700  0.1183
  206MOL    H8925099   1.331   1.252   0.031  1.8636 -0.2343  0.7017
  206MOL    H9025100   1.380   1.093   0.097 -0.3427 -0.5914  0.6483
  206MOL    H9125101   1.101   1.213   0.099  0.8102  0.5040  0.1117
  206MOL    C9225102   1.137   1.056   0.241 -0.7711 -0.2835 -0.2435
  206MOL    C9325103   1.020   1.076   0.340  0.4415 -0.8957  0.2681
  206MOL   Cl9425104   0.979   0.913   0.396  0.3468 -0.1186  0.2373
  206MOL    H9525105   1.220   1.016   0.299  1.2393  1.3812 -1.8698
  206MOL    H9625106   1.122   0.972   0.173  0.5051 -0.9491  0.2774
  206MOL    H9725107   1.049   1.139   0.424  2.8147  1.1748 -1.9751
  206MOL    C9825108   0.895   1.162   0.288 -0.5827  0.1068 -0.3169
  206MOL    C9925109   0.788   1.079   0.202  0.1300 -0.1888 -0.4390
  206MOL  Cl10025110   0.836   1.073   0.031  0.3118 -0.2594 -0.3441
  206MOL   H10125111   0.930   1.258   0.249  1.8249 -0.2009  1.0619
  206MOL   H10225112   0.847   1.201   0.377  2.9418 -2.0187  2.6244
  206MOL   H10325113   0.782   0.978   0.244  2.9606  0.1510  0.8596
  206MOL   C10425114   0.641   1.138   0.203  0.1633 -0.5072 -0.1623
  206MOL   C10525115   0.534   1.049   0.122  0.9388  0.1046  0.2230
  206MOL  Cl10625116   0.406   1.156   0.075  0.6291  0.0149 -0.1272
  206MOL   H10725117   0.642   1.238   0.159 -2.0187 -0.3102  0.1854
  206MOL   H10825118   0.593   1.153   0.300 -1.5576 -0.5309 -0.9875
  206MOL   H10925119   0.560   1.004   0.027  1.2939  1.4064 -0.3081
  206MOL   C11025120   0.471   0.936   0.214 -1.5489 -1.0694 -0.0468
  206MOL   C11125121   0.355   0.854   0.160  0.0835  0.2486 -0.0639
  206MOL  Cl11225122   0.314   0.732   0.283 -0.2559  0.3498 -0.4019
  206MOL   H11325123   0.429   0.985   0.302 -1.4634 -0.7017 -0.2116
  206MOL   H11425124   0.542   0.870   0.265  0.2851  0.8659 -0.0313
  206MOL   H11525125   0.269   0.921   0.151  0.1013  0.2223 -0.4644
  206MOL   C11625126   0.385   0.794   0.018 -0.5490 -0.0390 -0.1422
  206MOL   C11725127   0.274   0.703   8.478 -0.3784  0.6575 -0.0216
  206MOL  Cl11825128   0.188   0.802   8.361 -0.1970  0.1835  0.3616
  206MOL   H11925129   0.473   0.733   0.034 -0.0405  0.6255 -0.3767
  206MOL   H12025130   0.411   0.873   8.473 -0.4708 -1.0259 -1.2303
  206MOL   H12125131   0.314   0.614   8.430 -0.7055 -0.5429  1.8715
  206MOL   H12225132   0.210   0.659   0.029 -0.8897  0.5525 -0.5047
  207MOL     C125133   3.528   7.278   0.390 -0.0487  0.5827 -0.1820
  207MOL     C225134   3.447   7.393   0.450 -0.0455  0.8251 -0.0802
  207MOL    Cl325135   3.332   7.429   0.318 -0.1223 -0.0194 -0.5074
  207MOL     H425136   3.602   7.316   0.319 -1.2549 -0.3516 -1.9889
  207MOL     H525137   3.590   7.227   0.462  1.8420 -1.0301 -2.8621
  207MOL     H625138   3.391   7.362   0.538  1.7588  0.7201  1.0601
  207MOL     H725139   3.463   7.205   0.340 -0.2578 -0.5115  1.6607
  207MOL     C825140   3.527   7.521   0.476 -0.9319  0.4919  0.3772
  207MOL     C925141   3.617   7.513   0.598  0.2004  0.0948  0.1283
  207MOL   Cl1025142   3.499   7.500   0.738 -0.0680  0.1597  0.0576
  207MOL    H1125143   3.460   7.605   0.490 -0.5377  0.9920 -0.6680
  207MOL    H1225144   3.585   7.546   0.387  1.1555 -4.5500  0.1457
  207MOL    H1325145   3.683   7.427   0.609  1.1737  1.0449  2.1628
  207MOL    C1425146   3.701   7.646   0.615  0.4918  0.2584  0.5714
  207MOL    C1525147   3.798   7.673   0.500 -0.5563  0.2369  0.6087
  207MOL   Cl1625148   3.945   7.571   0.506  0.0909 -0.1334 -0.2851
  207MOL    H1725149   3.751   7.655   0.712  0.8419  2.7842  0.1918
  207MOL    H1825150   3.625   7.724   0.611  0.5457  0.2248 -1.4229
  207MOL    H1925151   3.747   7.647   0.408  0.0417 -0.7928  0.5633
  207MOL    C2025152   3.847   7.820   0.473 -0.1027 -0.2080  0.2260
  207MOL    C2125153   3.925   7.895   0.582  0.0727 -0.9655  0.1469
  207MOL   Cl2225154   3.824   7.939   0.715 -0.3811  0.1294  0.1162
  207MOL    H2325155   3.756   7.879   0.469  0.4356  0.6348  0.4358
  207MOL    H2425156   3.900   7.830   0.378  0.7450 -2.9485  0.3429
  207MOL    H2525157   4.009   7.838   0.622  1.5489  0.0616 -1.4106
  207MOL    C2625158   3.974   8.025   0.503  0.2604  0.3321 -0.3506
  207MOL    C2725159   4.051   8.137   0.587  0.5464 -0.6541  0.0562
  207MOL   Cl2825160   4.088   8.268   0.477 -0.0843  0.1295 -0.1034
  207MOL    H2925161   3.885   8.082   0.477 -1.3374 -2.0515 -0.3044
  207MOL    H3025162   4.029   7.991   0.416  1.6131 -0.2838  0.7193
  207MOL    H3125163   3.982   8.172   0.664  2.0071  2.0130  0.2221
  207MOL    C3225164   4.187   8.096   0.643 -0.1705  0.1673 -0.1578
  207MOL    C3325165   4.266   8.200   0.730 -0.1355  0.9510 -0.3174
  207MOL   Cl3425166   4.418   8.137   0.787 -0.1558  0.0527 -0.0643
  207MOL    H3525167   4.248   8.053   0.564 -1.6885 -1.1449 -0.6315
  207MOL    H3625168   4.169   8.010   0.708  0.1775  1.0173  1.0855
  207MOL    H3725169   4.290   8.281   0.661  2.4595  0.8137  0.3762
  207MOL    C3825170   4.187   8.254   0.849 -0.0849 -0.0511  0.5382
  207MOL    C3925171   4.244   8.363   0.948  0.0363  0.1770  0.1028
  207MOL   Cl4025172   4.170   8.344   1.111  0.4161 -0.2189 -0.0962
  207MOL    H4125173   4.169   8.167   0.913  2.7771 -0.3383  1.0017
  207MOL    H4225174   4.086   8.279   0.815  0.2215 -1.5184 -1.4963
  207MOL    H4325175   4.352   8.357   0.949  0.0862  0.1491 -2.3909
  207MOL    C4425176   4.199   8.503   0.912 -0.2476 -0.0922  0.3721
  207MOL    C4525177   4.254   0.048   0.780  0.4803  0.1082  0.0222
  207MOL   Cl4625178   4.435   0.053   0.786 -0.5806  0.4117  0.4076
  207MOL    H4725179   4.226   0.051   0.988  0.2549 -0.0087  0.1104
  207MOL    H4825180   4.091   8.492   0.905  0.0490 -2.6659 -0.7678
  207MOL    H4925181   4.232   8.516   0.690 -1.0191  1.0563 -0.2500
  207MOL    C5025182   4.206   0.193   0.778 -0.2886  0.0604  0.6594
  207MOL    C5125183   4.051   0.214   0.766 -0.8931  0.0212  0.2110
  207MOL   Cl5225184   4.001   0.124   0.622 -0.4479 -0.2613 -0.1002
  207MOL    H5325185   4.246   0.254   0.696  0.2249 -0.6708  0.3660
  207MOL    H5425186   4.237   0.251   0.865 -1.6308  1.0848  0.4867
  207MOL    H5525187   4.015   0.160   0.854  2.0496  0.9134  2.0559
  207MOL    C5625188   4.009   0.360   0.769 -0.3636 -0.0088  0.1897
  207MOL    C5725189   3.856   0.382   0.784 -0.2302 -0.6147 -1.0365
  207MOL   Cl5825190   3.792   0.270   0.917 -0.0167  0.0040  0.0478
  207MOL    H5925191   4.055   0.413   0.686  0.9774 -0.3321  0.6981
  207MOL    H6025192   4.053   0.406   0.858 -0.1964 -0.5029  0.3665
  207MOL    H6125193   3.851   0.479   0.835 -1.8698 -1.4004  0.3414
  207MOL    C6225194   3.774   0.383   0.652 -0.0252 -0.3153 -0.1652
  207MOL    C6325195   3.827   0.467   0.532 -0.0586 -0.4870  0.2231
  207MOL   Cl6425196   3.831   0.637   0.579  0.2867  0.3883  0.5276
  207MOL    H6525197   3.671   0.410   0.674 -0.0934  0.1426 -1.0120
  207MOL    H6625198   3.770   0.279   0.620 -2.4610 -0.4277  0.4160
  207MOL    H6725199   3.927   0.450   0.492 -0.5360 -0.2664 -1.1189
  207MOL    C6825200   3.730   0.448   0.412  0.5656  0.4720  0.2094
  207MOL    C6925201   3.721   0.308   0.343  0.5808 -0.0122 -0.0770
  207MOL   Cl7025202   3.884   0.247   0.309 -0.0724  0.0700  0.0878
  207MOL    H7125203   3.760   0.517   0.333  1.0976 -1.0724 -0.9708
  207MOL    H7225204   3.639   0.491   0.453  0.7175 -0.0055  1.0483
  207MOL    H7325205   3.672   0.234   0.407  1.2648 -2.0245 -1.8048
  207MOL    C7425206   3.642   0.319   0.216  0.0503  0.4796  0.0875
  207MOL    C7525207   3.490   0.291   0.240 -0.6083  0.2104 -0.8587
  207MOL   Cl7625208   3.459   0.133   0.310  0.2442 -0.0338  0.2174
  207MOL    H7725209   3.681   0.252   0.140  1.6226  0.0628  1.2250
  207MOL    H7825210   3.649   0.420   0.177  1.9636  0.8723  1.3654
  207MOL    H7925211   3.452   0.367   0.308  0.0218  0.2291 -0.5192
  207MOL    C8025212   3.421   0.318   0.104  0.2857  0.1677 -0.4292
  207MOL    C8125213   3.264   0.316   0.099  0.1549  0.6021 -0.4281
  207MOL   Cl8225214   3.202   0.337   8.454  0.1890 -0.2300 -0.4922
  207MOL    H8325215   3.443   0.235   0.036  2.2450 -0.1190  0.5221
  207MOL    H8425216   3.455   0.408   0.053 -1.9777  1.8097  0.9098
  207MOL    H8525217   3.238   0.215   0.131 -0.3009  0.4093 -1.3852
  207MOL    C8625218   3.208   0.431   0.188  0.3607  0.0102  0.1373
  207MOL    C8725219   3.053   0.457   0.196 -0.0012  1.1926  0.0617
  207MOL   Cl8825220   2.991   0.546   0.048  0.1503 -0.1252 -0.6569
  207MOL    H8925221   3.263   0.519   0.156  1.3965 -0.0937  1.5827
  207MOL    H9025222   3.229   0.388   0.286  0.4943 -1.6835 -0.6095
  207MOL    H9125223   3.004   0.360   0.185  0.9900  0.4085  2.3280
  207MOL    C9225224   3.004   0.522   0.326 -0.1666 -0.1789  0.1018
  207MOL    C9325225   3.049   0.661   0.366 -0.0444 -0.1619  0.0919
  207MOL   Cl9425226   3.220   0.644   0.429 -0.0226 -0.0388  0.0623
  207MOL    H9525227   3.042   0.461   0.408  1.4766 -0.1478 -0.6135
  207MOL    H9625228   2.897   0.517   0.308  0.2141  0.9497 -2.9069
  207MOL    H9725229   3.052   0.726   0.278 -0.8752 -0.9978 -0.5694
  207MOL    C9825230   2.945   0.730   0.459 -0.0744  0.4313  0.1828
  207MOL    C9925231   2.979   0.881   0.493 -0.2428 -0.0267  0.0820
  207MOL  Cl10025232   3.091   0.884   0.630  0.0167 -0.0430  0.0146
  207MOL   H10125233   2.943   0.659   0.542  0.4456 -0.3332 -0.4466
  207MOL   H10225234   2.846   0.727   0.413 -0.7774 -0.3954  1.6987
  207MOL   H10325235   3.040   0.924   0.414  1.4470 -1.9654  0.2969
  207MOL   C10425236   2.849   0.964   0.521 -0.1195  0.0622  0.1554
  207MOL   C10525237   2.855   1.120   0.502 -0.3151  0.3329 -0.4446
  207MOL  Cl10625238   2.913   1.173   0.340  0.4526 -0.2562  0.4183
  207MOL   H10725239   2.798   0.925   0.609  3.1804  0.3300  2.2798
  207MOL   H10825240   2.785   0.941   0.435 -0.4646 -1.2636  0.7551
  207MOL   H10925241   2.758   1.168   0.512 -0.3861  0.4307 -1.4947
  207MOL   C11025242   2.938   1.198   0.610 -0.1350  0.1598 -0.3632
  207MOL   C11125243   2.884   1.178   0.760 -0.0696  0.5915 -0.2934
  207MOL  Cl11225244   2.725   1.259   0.773  0.1369  0.0352 -0.3418
  207MOL   H11325245   2.941   1.306   0.596 -0.7830  0.4049  1.2216
  207MOL   H11425246   3.043   1.168   0.606 -0.2710 -0.4134  0.3016
  207MOL   H11525247   2.864   1.071   0.773 -0.2548  0.5794 -0.6699
  207MOL   C11625248   2.976   1.216   0.875  0.4178  0.7816  0.4088
  207MOL   C11725249   2.944   1.132   0.996  0.7653  1.0742 -0.5359
  207MOL  Cl11825250   3.055   1.154   1.133  0.0429 -0.1964 -0.2318
  207MOL   H11925251   2.979   1.317   0.916  1.5315 -0.0321  2.3840
  207MOL   H12025252   3.081   1.202   0.850 -0.3232 -1.3586 -1.6401
  207MOL   H12125253   2.846   1.166   1.029  0.2694 -1.6644  0.9525
  207MOL   H12225254   2.931   1.024   0.993  2.9712  0.7326  0.9868
  208MOL     C125255   0.026   4.157   4.721  0.0184  0.3745 -0.2936
  208MOL     C225256   8.454   4.045   4.708  0.5901  0.6490 -0.1364
  208MOL    Cl325257   8.328   4.065   4.838 -0.0249 -0.3240 -0.6023
  208MOL     H425258   0.090   4.160   4.633 -0.9031  0.1542 -0.9765
  208MOL     H525259   8.507   4.255   4.739 -0.3454  0.2481 -0.5070
  208MOL     H625260   8.406   4.050   4.611 -0.9072  1.6058  0.6257
  208MOL     H725261   0.088   4.134   4.808 -1.2513  0.5708  0.6781
  208MOL     C825262   8.513   3.904   4.731  0.2338  0.2993 -0.7228
  208MOL     C925263   8.420   3.779   4.724 -0.0368  0.3668 -0.2057
  208MOL   Cl1025264   8.517   3.638   4.780  0.3757 -0.1513 -0.1263
  208MOL    H1125265   0.043   3.901   4.825 -0.3984 -2.3837 -0.4104
  208MOL    H1225266   0.066   3.880   4.659  0.3223 -2.0616  0.1093
  208MOL    H1325267   8.345   3.786   4.802  0.5142 -2.2760  0.6137
  208MOL    C1425268   8.344   3.750   4.587  0.3721  0.0883 -0.0385
  208MOL    C1525269   8.435   3.707   4.469  0.3249 -0.3112  0.6164
  208MOL   Cl1625270   8.495   3.863   4.394  0.0128  0.1345  0.0889
  208MOL    H1725271   8.278   3.828   4.551 -0.8840 -1.1535 -0.4617
  208MOL    H1825272   8.282   3.669   4.624 -0.2819  0.5401 -0.1450
  208MOL    H1925273   0.001   3.662   4.509 -0.9652 -0.5302  3.4296
  208MOL    C2025274   8.371   3.625   4.359 -0.3875 -0.0567  0.3184
  208MOL    C2125275   8.322   3.485   4.396  0.3612  0.1627  0.0572
  208MOL   Cl2225276   8.468   3.397   4.426  0.1758  0.1635 -0.0005
  208MOL    H2325277   8.442   3.618   4.277  0.1864 -0.6353  0.8581
  208MOL    H2425278   8.289   3.683   4.319 -0.1217 -0.0607 -0.2383
  208MOL    H2525279   8.267   3.467   4.489 -0.5852  1.2383 -0.2793
  208MOL    C2625280   8.244   3.404   4.279 -0.1735 -0.1721 -0.0831
  208MOL    C2725281   8.095   3.447   4.241  0.1735 -0.2508  0.1905
  208MOL   Cl2825282   7.975   3.424   4.374 -0.3960 -0.3152 -0.0021
  208MOL    H2925283   8.230   3.301   4.311 -2.3200  0.6538  1.7498
  208MOL    H3025284   8.313   3.415   4.196 -0.9641  2.9831 -0.4022
  208MOL    H3125285   8.094   3.554   4.219 -0.4749 -0.6967 -2.0871
  208MOL    C3225286   8.062   3.363   4.115  0.6397  0.0644 -0.4805
  208MOL    C3325287   7.939   3.387   4.024 -0.5043  0.0079  0.3726
  208MOL   Cl3425288   7.930   3.562   3.977 -0.2187 -0.0100  0.2514
  208MOL    H3525289   8.069   3.260   4.148  2.2318 -0.4379 -2.3186
  208MOL    H3625290   8.146   3.369   4.046  1.1690 -0.2111  0.1388
  208MOL    H3725291   7.956   3.337   3.928  3.6152  0.6737  0.6298
  208MOL    C3825292   7.804   3.345   4.082 -0.5636 -0.1796  0.4830
  208MOL    C3925293   7.798   3.205   4.140 -0.1477  0.3649 -0.4275
  208MOL   Cl4025294   7.861   3.083   4.027 -0.1023 -0.1585  0.3572
  208MOL    H4125295   7.737   3.344   3.996  0.7244 -1.4637 -0.5242
  208MOL    H4225296   7.780   3.417   4.161  1.3650  0.1976  0.7722
  208MOL    H4325297   7.862   3.209   4.228  0.2054 -1.1367 -0.6057
  208MOL    C4425298   7.651   3.165   4.186  0.1314  0.9607  0.1857
  208MOL    C4525299   7.648   3.063   4.307 -0.6280 -0.0175  0.3794
  208MOL   Cl4625300   7.483   3.015   4.320 -0.0311 -0.1720 -0.0648
  208MOL    H4725301   7.608   3.113   4.101  0.3556 -1.7565  1.6771
  208MOL    H4825302   7.598   3.253   4.220 -1.5060 -0.2702  0.8604
  208MOL    H4925303   7.700   2.969   4.289 -0.0746  0.6839 -1.8017
  208MOL    C5025304   7.689   3.124   4.438  0.4075 -0.1057  0.6213
  208MOL    C5125305   7.740   3.033   4.555 -0.5165  0.2437 -0.3111
  208MOL   Cl5225306   7.888   2.951   4.499  0.1495 -0.0558 -0.0813
  208MOL    H5325307   7.606   3.184   4.475 -0.7352 -0.6926 -0.9256
  208MOL    H5425308   7.763   3.200   4.413 -1.6432  1.9238  0.5466
  208MOL    H5525309   7.780   3.102   4.629  1.3663 -1.9428  0.7693
  208MOL    C5625310   7.634   2.938   4.608 -0.5326  0.1682 -0.8893
  208MOL    C5725311   7.538   3.005   4.701 -0.3428 -0.1409  0.0828
  208MOL   Cl5825312   7.629   3.064   4.840  0.0233  0.2873  0.0691
  208MOL    H5925313   7.689   2.868   4.670 -1.6994 -0.1140 -0.1567
  208MOL    H6025314   7.583   2.880   4.531 -0.6950  0.4918 -1.0274
  208MOL    H6125315   7.514   3.102   4.656 -0.3417  0.9133  2.2995
  208MOL    C6225316   7.409   2.923   4.733  1.2768 -0.6191 -0.0743
  208MOL    C6325317   7.418   2.782   4.805 -0.7606 -0.5274 -0.1396
  208MOL   Cl6425318   7.252   2.715   4.817 -0.3637 -0.0014 -0.3615
  208MOL    H6525319   7.351   2.919   4.641  0.2465  0.7950  0.4908
  208MOL    H6625320   7.348   2.978   4.805 -0.3270 -0.7296 -1.3185
  208MOL    H6725321   7.468   2.717   4.734  0.5232 -2.0834  2.1401
  208MOL    C6825322   7.496   2.778   4.936 -0.0064  0.4053  0.2185
  208MOL    C6925323   7.462   2.656   5.021  0.3964 -0.4415 -0.5170
  208MOL   Cl7025324   7.351   2.707   5.162 -0.1047  0.3386  0.1570
  208MOL    H7125325   7.456   2.863   4.991 -0.8911  0.0440  0.1494
  208MOL    H7225326   7.604   2.790   4.934  0.0678 -0.0716  1.1387
  208MOL    H7325327   7.416   2.571   4.971 -0.3210 -0.7442  0.6299
  208MOL    C7425328   7.583   2.613   5.102 -0.6003 -0.0811  0.5022
  208MOL    C7525329   7.704   2.554   5.022 -0.0607 -0.6764 -0.8317
  208MOL   Cl7625330   7.651   2.432   4.905 -0.2339  0.1334 -0.4753
  208MOL    H7725331   7.546   2.547   5.181  1.3482 -1.6739  0.1532
  208MOL    H7825332   7.624   2.702   5.149  0.7395 -0.2323 -0.3413
  208MOL    H7925333   7.760   2.633   4.972 -1.2698  1.6879  1.4531
  208MOL    C8025334   7.808   2.476   5.109  0.0977  0.3727 -0.0366
  208MOL    C8125335   7.879   2.545   5.229  0.5174  0.1345  0.1769
  208MOL   Cl8225336   7.988   2.676   5.165 -0.0605  0.4828 -1.0463
  208MOL    H8325337   7.882   2.444   5.036  0.8089  1.1874  0.3214
  208MOL    H8425338   7.770   2.379   5.142  1.1537 -0.7863 -2.1319
  208MOL    H8525339   7.803   2.597   5.287  0.7153  0.1714  0.4017
  208MOL    C8625340   7.961   2.448   5.324  0.7075 -0.7064 -0.2638
  208MOL    C8725341   7.998   2.495   5.466 -0.5390 -0.1960 -0.2694
  208MOL   Cl8825342   7.844   2.536   5.539  0.5647 -0.2120 -0.1118
  208MOL    H8925343   8.050   2.408   5.274 -0.3186 -1.7198 -1.3245
  208MOL    H9025344   7.901   2.357   5.330  0.5703 -0.5150  1.3017
  208MOL    H9125345   8.038   2.411   5.522  1.7077  0.1449 -1.2960
  208MOL    C9225346   8.104   2.607   5.469  0.0824  0.4614  0.5794
  208MOL    C9325347   8.137   2.675   5.602 -0.5221 -0.7697  0.1723
  208MOL   Cl9425348   8.232   2.826   5.577  0.0072 -0.4905 -0.2971
  208MOL    H9525349   8.067   2.689   5.407 -0.5580  0.1163  0.4984
  208MOL    H9625350   8.194   2.573   5.420  0.4578  0.5072  1.2343
  208MOL    H9725351   8.039   2.703   5.642  0.0917 -0.4729  1.4910
  208MOL    C9825352   8.214   2.591   5.713  0.0215 -0.6568 -0.2142
  208MOL    C9925353   8.190   2.663   5.845 -0.1331 -0.1277 -0.8056
  208MOL  Cl10025354   8.322   2.641   5.960 -0.3436 -0.1042  0.2074
  208MOL   H10125355   8.319   2.583   5.684  0.2234 -0.9544  0.5773
  208MOL   H10225356   8.181   2.488   5.715  0.0737 -0.6655  0.5636
  208MOL   H10325357   8.189   2.770   5.823 -1.6554 -0.1000 -0.6451
  208MOL   C10425358   8.054   2.626   5.917 -0.4310 -0.2247 -0.1803
  208MOL   C10525359   7.997   2.728   6.003 -0.1524  0.3245  0.0892
  208MOL  Cl10625360   7.974   2.878   5.909  0.2022  0.3157  0.0289
  208MOL   H10725361   8.059   2.527   5.962 -0.6015 -0.5182 -0.7893
  208MOL   H10825362   7.983   2.611   5.835  0.4481  1.4096 -1.2824
  208MOL   H10925363   7.900   2.688   6.031  0.9211 -2.1372  0.4339
  208MOL   C11025364   8.076   2.754   6.127  0.1407 -0.0726  0.0989
  208MOL   C11125365   8.009   2.855   6.225 -0.5981 -0.3317  0.4456
  208MOL  Cl11225366   8.136   2.898   6.347 -0.3505 -0.1076 -0.2787
  208MOL   H11325367   8.171   2.797   6.096  0.5226 -1.4822 -0.7090
  208MOL   H11425368   8.098   2.656   6.170 -1.7491 -0.4946  0.1491
  208MOL   H11525369   7.979   2.942   6.167 -0.2398 -1.8469 -2.0948
  208MOL   C11625370   7.886   2.786   6.292  0.0567  0.2830  0.2494
  208MOL   C11725371   7.828   2.861   6.409  0.0005  0.1096 -0.1235
  208MOL  Cl11825372   7.704   2.759   6.494  0.1494  0.0529 -0.3142
  208MOL   H11925373   7.912   2.685   6.323  1.0421  0.8245  1.2304
  208MOL   H12025374   7.808   2.790   6.216  1.7901 -0.6073 -1.6228
  208MOL   H12125375   7.911   2.880   6.477 -1.4666 -1.3495  2.1545
  208MOL   H12225376   7.795   2.964   6.403  0.8624  0.4871  1.3992
  209MOL     C125377   2.760   1.341   7.781 -0.1500 -0.4532  0.9655
  209MOL     C225378   2.832   1.284   7.903 -0.0342 -0.2723 -0.5013
  209MOL    Cl325379   2.809   1.399   8.040  0.0483  0.5089 -0.0813
  209MOL     H425380   2.764   1.259   7.709 -0.4392  0.0961  0.3199
  209MOL     H525381   2.655   1.365   7.795 -0.0267  1.5193 -1.1354
  209MOL     H625382   2.782   1.193   7.937 -0.7428  1.0548  2.1509
  209MOL     H725383   2.817   1.427   7.745  0.8260 -0.3790  2.6389
  209MOL     C825384   2.984   1.270   7.881  0.1161  0.0185  0.1563
  209MOL     C925385   3.037   1.173   7.762 -0.1694 -0.1547 -0.5135
  209MOL   Cl1025386   2.944   1.024   7.779 -0.4616 -0.1075  0.7199
  209MOL    H1125387   3.031   1.242   7.975  2.9850  0.1760 -1.1801
  209MOL    H1225388   3.027   1.369   7.868 -0.1709 -0.1607 -2.4511
  209MOL    H1325389   3.005   1.209   7.665 -1.6821  1.2369  0.4743
  209MOL    C1425390   3.192   1.143   7.762 -0.3734  0.1803  0.4597
  209MOL    C1525391   3.281   1.253   7.701  0.1139  0.4773  0.6393
  209MOL   Cl1625392   3.229   1.305   7.535 -0.0541 -0.0950 -0.2886
  209MOL    H1725393   3.200   1.049   7.708 -1.8628  0.4577 -0.2701
  209MOL    H1825394   3.237   1.108   7.855 -0.5643 -1.1819  0.0571
  209MOL    H1925395   3.277   1.341   7.765  1.4586 -0.6937  2.3915
  209MOL    C2025396   3.432   1.209   7.696  0.4087  0.4783  0.0701
  209MOL    C2125397   3.541   1.315   7.653  0.3525 -0.1374  0.2635
  209MOL   Cl2225398   3.551   1.325   7.478 -0.1832 -0.0578  0.2753
  209MOL    H2325399   3.430   1.124   7.628 -1.8079 -0.5147  1.2993
  209MOL    H2425400   3.460   1.170   7.794 -0.7656 -1.0672 -0.1830
  209MOL    H2525401   3.498   1.407   7.694  0.5930  0.0159  0.1716
  209MOL    C2625402   3.683   1.265   7.698 -0.4580  0.0614  0.0575
  209MOL    C2725403   3.804   1.352   7.657  0.5897  0.6118 -0.5067
  209MOL   Cl2825404   3.953   1.266   7.709 -0.1263  0.1290 -0.1319
  209MOL    H2925405   3.688   1.165   7.653  1.3809  0.1104  0.1509
  209MOL    H3025406   3.680   1.244   7.805 -2.4406 -0.0547  0.0145
  209MOL    H3125407   3.807   1.358   7.548 -0.2881  2.0986 -0.4570
  209MOL    C3225408   3.800   1.489   7.728 -0.5585 -0.8861  0.3005
  209MOL    C3325409   3.847   1.610   7.645 -0.0056  0.3160 -0.9204
  209MOL   Cl3425410   3.742   1.653   7.512 -0.0532  0.1898  0.3707
  209MOL    H3525411   3.862   1.486   7.818  1.3224 -1.1184 -0.9703
  209MOL    H3625412   3.701   1.506   7.769 -1.3436 -1.8342 -1.2014
  209MOL    H3725413   3.853   1.696   7.711  2.4627 -0.7790  0.3807
  209MOL    C3825414   3.992   1.591   7.588  1.1177  0.3141 -0.7649
  209MOL    C3925415   4.106   1.566   7.698 -0.2573  0.2045 -0.0016
  209MOL   Cl4025416   4.129   1.706   7.805 -0.3156 -0.4681  0.2092
  209MOL    H4125417   4.008   1.671   7.515  0.4291  1.5566  0.4269
  209MOL    H4225418   3.983   1.495   7.537 -0.4946  1.5162 -2.8363
  209MOL    H4325419   4.091   1.476   7.758 -0.1974 -0.1133 -0.4633
  209MOL    C4425420   4.246   1.538   7.630  0.8554 -0.3077  0.0884
  209MOL    C4525421   4.270   1.399   7.570  0.3024  0.3107 -0.2029
  209MOL   Cl4625422   4.278   1.274   7.704 -0.0796  0.2208  0.2181
  209MOL    H4725423   4.334   1.552   7.694  1.5935  0.5814 -1.1037
  209MOL    H4825424   4.265   1.613   7.554 -1.5002 -0.0616 -0.2943
  209MOL    H4925425   4.172   1.383   7.524 -0.1713 -0.9909  1.2194
  209MOL    C5025426   4.374   1.378   7.463 -0.0760  0.3801  0.4053
  209MOL    C5125427   4.524   1.404   7.490  0.2536 -0.8641 -0.4664
  209MOL   Cl5225428   4.596   1.457   7.341 -0.7248 -0.0019  0.0961
  209MOL    H5325429   4.354   1.439   7.375  2.1455  0.1662 -0.2739
  209MOL    H5425430   4.367   1.278   7.420  0.1357 -0.5217  2.4029
  209MOL    H5525431   4.536   1.484   7.564 -2.3973 -1.4029  0.5841
  209MOL    C5625432   4.605   1.275   7.552 -0.2117  0.3255  0.3336
  209MOL    C5725433   4.758   1.296   7.556  0.1593  0.1872 -0.1472
  209MOL   Cl5825434   4.840   1.139   7.576  0.0123 -0.5122  0.5043
  209MOL    H5925435   4.581   1.187   7.493 -0.6748 -0.5851  1.8658
  209MOL    H6025436   4.566   1.242   7.648  0.0036  0.1892  0.3734
  209MOL    H6125437   4.784   1.332   7.456 -2.0543  5.1529  0.8772
  209MOL    C6225438   4.801   1.391   7.670 -1.0349  0.4642 -0.5051
  209MOL    C6325439   4.940   1.450   7.647 -0.6677 -0.1766 -0.3967
  209MOL   Cl6425440   5.011   1.501   7.806  0.2782 -0.3655 -0.2735
  209MOL    H6525441   4.791   1.325   7.756 -1.0281  1.3602  0.1852
  209MOL    H6625442   4.728   1.466   7.701 -1.7721 -0.9310  1.2747
  209MOL    H6725443   5.003   1.370   7.608  0.0587  0.0197  0.3573
  209MOL    C6825444   4.945   1.573   7.547  0.2874  0.5929 -0.3356
  209MOL    C6925445   5.083   1.640   7.506 -0.0588 -0.7980 -0.1759
  209MOL   Cl7025446   5.061   1.805   7.450 -0.1156 -0.4285 -0.0450
  209MOL    H7125447   4.875   1.650   7.580 -0.0687  0.0806  0.1192
  209MOL    H7225448   4.888   1.532   7.464  0.9369 -3.1656  0.9720
  209MOL    H7325449   5.151   1.654   7.590 -2.0715 -0.0030  1.3610
  209MOL    C7425450   5.150   1.557   7.393 -0.5059  0.5086  0.3471
  209MOL    C7525451   5.302   1.556   7.370 -0.8421 -0.1967 -0.1820
  209MOL   Cl7625452   5.384   1.509   7.525  0.0450  0.1659  0.0723
  209MOL    H7725453   5.107   1.575   7.294 -1.2994 -2.1381  0.1867
  209MOL    H7825454   5.122   1.455   7.417 -0.3613  0.2320 -0.6390
  209MOL    H7925455   5.328   1.481   7.295 -3.2427 -1.9196  0.6313
  209MOL    C8025456   5.352   1.695   7.332  0.0123  0.1391 -0.0147
  209MOL    C8125457   5.317   1.738   7.187  0.0003  0.0408  0.5092
  209MOL   Cl8225458   5.376   1.618   7.069  0.9300 -0.0834 -0.0145
  209MOL    H8325459   5.459   1.697   7.354 -0.1623 -0.8309  0.9586
  209MOL    H8425460   5.314   1.756   7.415 -0.3784 -1.3583  0.9176
  209MOL    H8525461   5.209   1.740   7.173 -0.0310  1.0479  0.8496
  209MOL    C8625462   5.367   1.874   7.144 -0.3508 -0.4520  0.9983
  209MOL    C8725463   5.299   1.993   7.205 -0.6078  1.2336  0.6691
  209MOL   Cl8825464   5.126   2.005   7.149  0.4815 -0.4735  0.0952
  209MOL    H8925465   5.354   1.874   7.036 -0.7375 -1.1875  1.0436
  209MOL    H9025466   5.476   1.873   7.140 -0.4387 -0.9068 -2.6698
  209MOL    H9125467   5.295   1.980   7.313 -0.2475  1.9474  0.7747
  209MOL    C9225468   5.376   2.124   7.166 -0.4551  0.5638  0.1091
  209MOL    C9325469   5.317   2.259   7.208 -0.4094  0.5429 -0.9937
  209MOL   Cl9425470   5.432   2.381   7.157 -0.4604 -0.6648 -0.0707
  209MOL    H9525471   5.400   2.114   7.060  1.0060  1.2341  0.3571
  209MOL    H9625472   5.478   2.117   7.205 -1.0258  0.1459  1.5259
  209MOL    H9725473   5.224   2.282   7.158 -0.6157  1.7521 -0.0826
  209MOL    C9825474   5.311   2.276   7.362 -1.2324 -0.0171 -0.3867
  209MOL    C9925475   5.256   2.409   7.410 -0.1838  0.9194  0.4231
  209MOL  Cl10025476   5.113   2.451   7.316  0.2434  0.0209  0.1959
  209MOL   H10125477   5.405   2.257   7.414 -1.0123  1.0512 -0.3820
  209MOL   H10225478   5.243   2.199   7.397  0.0965  0.1102  2.5900
  209MOL   H10325479   5.208   2.392   7.507 -1.2741 -0.9466 -0.4151
  209MOL   C10425480   5.355   2.529   7.417 -0.2424 -0.6611 -0.0585
  209MOL   C10525481   5.327   2.633   7.525  0.0276  0.4961  0.0515
  209MOL  Cl10625482   5.319   2.563   7.688  0.0342  0.0639 -0.2883
  209MOL   H10725483   5.359   2.584   7.322 -1.3976 -0.1099  0.1987
  209MOL   H10825484   5.454   2.492   7.444  0.3757  0.4669 -0.6966
  209MOL   H10925485   5.405   2.710   7.533  1.3494 -0.8517  0.4642
  209MOL   C11025486   5.194   2.698   7.494  0.4536 -0.2983 -0.0324
  209MOL   C11125487   5.177   2.844   7.549  0.4181  0.2535  0.1570
  209MOL  Cl11225488   5.143   2.843   7.726 -0.0091 -0.3489 -0.1206
  209MOL   H11325489   5.114   2.645   7.547  1.6054 -0.9611  1.0800
  209MOL   H11425490   5.173   2.704   7.388 -0.5190  0.6653  0.2061
  209MOL   H11525491   5.281   2.876   7.537  0.3385 -0.0800 -1.7002
  209MOL   C11625492   5.071   2.922   7.480  0.2002  0.3655 -0.0517
  209MOL   C11725493   5.061   3.071   7.505  0.2141  0.5981 -0.0717
  209MOL  Cl11825494   4.903   3.137   7.471 -0.0092  0.3451  0.2325
  209MOL   H11925495   4.981   2.872   7.516  0.2059  0.7275  0.4726
  209MOL   H12025496   5.075   2.914   7.371  0.0626 -1.4641  0.0707
  209MOL   H12125497   5.086   3.077   7.611  2.4132 -2.8850 -0.2976
  209MOL   H12225498   5.143   3.133   7.468  0.4363  0.3974  0.0784
  210MOL     C125499   5.349   1.464   1.288 -0.9979 -0.0438  0.5317
  210MOL     C225500   5.221   1.385   1.286 -0.4378 -0.1415 -0.3577
  210MOL    Cl325501   5.141   1.393   1.446  0.2449 -0.1787  0.0756
  210MOL     H425502   5.331   1.555   1.346  3.4163  0.6617  0.9403
  210MOL     H525503   5.429   1.419   1.347  0.1046  1.3498  0.1319
  210MOL     H625504   5.153   1.429   1.214 -1.3627 -4.4535 -2.2981
  210MOL     H725505   5.383   1.487   1.188 -2.1741 -3.6692 -0.7920
  210MOL     C825506   5.233   1.241   1.239 -0.2850 -0.0378  0.0866
  210MOL     C925507   5.273   1.223   1.092 -0.0214  0.5507 -0.7720
  210MOL   Cl1025508   5.118   1.240   0.998  0.2062 -0.0537 -0.3422
  210MOL    H1125509   5.135   1.196   1.254 -0.7936  0.8765 -0.4737
  210MOL    H1225510   5.290   1.179   1.308  0.4348 -2.1072 -2.2942
  210MOL    H1325511   5.350   1.294   1.062  2.7091 -2.2122 -0.4827
  210MOL    C1425512   5.329   1.076   1.074 -0.4916  0.4181  0.1817
  210MOL    C1525513   5.483   1.064   1.109  0.1052 -0.5962 -0.6750
  210MOL   Cl1625514   5.581   1.156   0.993 -0.1976  0.2348 -0.2907
  210MOL    H1725515   5.307   1.030   0.978  0.7105 -1.4771  0.7776
  210MOL    H1825516   5.265   1.002   1.123  0.8272 -1.3301 -0.7069
  210MOL    H1925517   5.498   1.098   1.211  0.4808 -0.8903 -0.6350
  210MOL    C2025518   5.528   0.919   1.099  0.6075 -0.4563 -0.2518
  210MOL    C2125519   5.672   0.886   1.156 -0.3382 -0.4769 -0.5114
  210MOL   Cl2225520   5.703   0.709   1.141  0.3850  0.2341 -0.0329
  210MOL    H2325521   5.525   0.886   0.996 -1.4016  0.0160 -0.3517
  210MOL    H2425522   5.461   0.847   1.145 -1.3987  0.2427 -2.0354
  210MOL    H2525523   5.745   0.936   1.093 -0.4919 -2.1326 -2.0352
  210MOL    C2625524   5.701   0.925   1.302 -0.2476 -0.7987  0.4512
  210MOL    C2725525   5.624   0.855   1.418 -0.0836 -0.3037 -0.2726
  210MOL   Cl2825526   5.455   0.912   1.435  0.0359 -0.0819  0.0143
  210MOL    H2925527   5.711   1.032   1.323 -1.0615 -0.6629  0.1533
  210MOL    H3025528   5.808   0.905   1.304 -0.3941 -1.7191 -0.7516
  210MOL    H3125529   5.630   0.747   1.407  1.1340 -0.3542  0.7515
  210MOL    C3225530   5.690   0.883   1.546  0.2878 -0.2718 -0.3540
  210MOL    C3325531   5.840   0.851   1.567 -0.1967  0.3213 -0.0082
  210MOL   Cl3425532   5.876   0.686   1.513 -0.1290 -0.4486  0.1161
  210MOL    H3525533   5.640   0.811   1.610 -2.0074 -1.1779 -3.0668
  210MOL    H3625534   5.662   0.982   1.581  0.1388 -0.7399  0.8899
  210MOL    H3725535   5.902   0.922   1.512  0.9412  0.5018  1.4488
  210MOL    C3825536   5.877   0.869   1.713 -0.3357  0.7615 -0.4320
  210MOL    C3925537   6.023   0.852   1.749 -0.5339 -0.3605 -0.4482
  210MOL   Cl4025538   6.021   0.820   1.919  0.0076 -0.2019  0.0905
  210MOL    H4125539   5.811   0.816   1.781  1.2234  0.7403  1.0926
  210MOL    H4225540   5.839   0.966   1.747  1.5126  1.3595 -0.0087
  210MOL    H4325541   6.065   0.763   1.701 -0.5141 -1.4214  1.4913
  210MOL    C4425542   6.108   0.978   1.722 -0.0371 -0.4978 -0.3122
  210MOL    C4525543   6.235   0.950   1.644 -0.0930 -0.2332 -0.1212
  210MOL   Cl4625544   6.311   1.115   1.652  0.1009 -0.3207  0.0004
  210MOL    H4725545   6.137   1.009   1.823  0.1298 -1.8685  0.0698
  210MOL    H4825546   6.049   1.050   1.667 -0.5618 -2.5642 -2.5421
  210MOL    H4925547   6.309   0.880   1.684  1.0504  0.5410 -0.8653
  210MOL    C5025548   6.199   0.913   1.501  0.1976 -0.3243  0.0010
  210MOL    C5125549   6.314   0.869   1.418 -0.2445  0.1987 -0.7842
  210MOL   Cl5225550   6.442   1.002   1.406  0.3359 -0.2234  0.4170
  210MOL    H5325551   6.150   0.997   1.452  1.8731  1.5841  1.4344
  210MOL    H5425552   6.135   0.825   1.501  2.3829 -1.9748  0.8354
  210MOL    H5525553   6.354   0.779   1.464 -1.1287  0.1210 -0.1383
  210MOL    C5625554   6.288   0.814   1.280 -0.1680 -0.0470 -0.1481
  210MOL    C5725555   6.214   0.675   1.278 -0.0356 -0.5053  0.3315
  210MOL   Cl5825556   6.320   0.552   1.341  0.0733  0.2637  0.0896
  210MOL    H5925557   6.382   0.808   1.227  0.3258 -1.0515  0.8251
  210MOL    H6025558   6.231   0.887   1.222 -1.4991 -0.5814  0.4552
  210MOL    H6125559   6.129   0.678   1.346 -0.6927  1.5085 -0.5431
  210MOL    C6225560   6.148   0.635   1.145 -0.3105 -0.1722  0.3226
  210MOL    C6325561   6.089   0.487   1.135  0.4220  0.0766  0.9446
  210MOL   Cl6425562   6.028   0.483   0.966 -0.0063  0.1080 -0.0360
  210MOL    H6525563   6.220   0.650   1.064  0.4078 -1.0393  0.7936
  210MOL    H6625564   6.067   0.706   1.130  0.3964  0.7618  0.8373
  210MOL    H6725565   6.172   0.417   1.134 -0.9806 -1.6916  3.8488
  210MOL    C6825566   5.987   0.451   1.240  0.2563 -0.0445  0.7166
  210MOL    C6925567   5.906   0.324   1.212 -0.1580  0.1188 -0.1697
  210MOL   Cl7025568   5.793   0.293   1.341 -0.0414  0.1839 -0.0828
  210MOL    H7125569   5.919   0.536   1.253 -0.8629 -0.8156  0.0197
  210MOL    H7225570   6.030   0.449   1.340 -0.0885 -2.1640  0.8509
  210MOL    H7325571   5.842   0.351   1.128  0.8699 -2.2774 -1.7754
  210MOL    C7425572   5.982   0.194   1.183  0.5164  0.2440  0.4159
  210MOL    C7525573   5.907   0.058   1.149  0.8960 -0.1650 -0.2784
  210MOL   Cl7625574   6.027   8.450   1.167 -0.2452  0.0305  0.3090
  210MOL    H7725575   6.041   0.172   1.272  0.5083  0.4757  0.4781
  210MOL    H7825576   6.051   0.209   1.100 -0.1238  1.0894  0.0335
  210MOL    H7925577   5.829   0.032   1.220  1.7954 -1.0528  0.4018
  210MOL    C8025578   5.853   0.057   1.006  0.4333 -0.1143 -0.5012
  210MOL    C8125579   5.779   8.451   0.967  0.6128 -0.0246  0.4259
  210MOL   Cl8225580   5.759   8.454   0.787  0.5348 -0.0131  0.2314
  210MOL    H8325581   5.941   0.075   0.944  0.0300 -0.2500 -1.1136
  210MOL    H8425582   5.788   0.144   1.000  2.0557  1.1805  0.2824
  210MOL    H8525583   5.846   8.367   0.987  1.1013  0.1336 -0.5458
  210MOL    C8625584   5.634   8.446   1.032 -0.9034  0.2979 -0.0903
  210MOL    C8725585   5.550   8.321   0.996 -0.4855  0.8980 -0.4740
  210MOL   Cl8825586   5.388   8.349   1.064  0.1808 -0.2193  0.1468
  210MOL    H8925587   5.586   0.017   1.018  1.2393  1.2323 -1.4666
  210MOL    H9025588   5.661   8.446   1.137 -0.7942  3.3311 -0.0772
  210MOL    H9125589   5.533   8.319   0.889  0.3398 -0.6633 -0.5794
  210MOL    C9225590   5.604   8.181   1.050  0.0693  0.4424 -0.5349
  210MOL    C9325591   5.541   8.055   0.975  0.0708 -0.1970  0.8651
  210MOL   Cl9425592   5.597   7.909   1.058  0.3755  0.1473  0.2364
  210MOL    H9525593   5.568   8.170   1.152  1.4277 -4.8379 -0.5124
  210MOL    H9625594   5.713   8.176   1.055  0.2676  3.9122  0.2917
  210MOL    H9725595   5.433   8.065   0.978  0.2435  1.4390  2.2052
  210MOL    C9825596   5.591   8.037   0.835  0.1629 -0.0062 -0.8042
  210MOL    C9925597   5.534   7.915   0.750 -0.5853 -0.4421 -0.4363
  210MOL  Cl10025598   5.633   7.915   0.594 -0.3451  0.6044 -0.2638
  210MOL   H10125599   5.699   8.044   0.842  0.0052  1.6977  0.4483
  210MOL   H10225600   5.568   8.122   0.770  0.0531 -0.8933 -1.9387
  210MOL   H10325601   5.548   7.826   0.811 -1.2273  0.0566  0.4554
  210MOL   C10425602   5.388   7.945   0.707 -0.6729 -0.2074 -0.3977
  210MOL   C10525603   5.314   7.838   0.624  0.2130  0.6450 -0.2940
  210MOL  Cl10625604   5.166   7.897   0.553 -0.4446 -0.4400 -0.1901
  210MOL   H10725605   5.386   8.041   0.656 -1.1059 -0.6370 -1.1967
  210MOL   H10825606   5.325   7.955   0.796 -0.0227  0.1899  0.0246
  210MOL   H10925607   5.385   7.831   0.541  1.1817  1.6506  0.4531
  210MOL   C11025608   5.287   7.699   0.689 -1.0801 -0.3276 -0.2636
  210MOL   C11125609   5.271   7.575   0.598  0.0587 -0.8937  0.1577
  210MOL  Cl11225610   5.423   7.583   0.497 -0.0633 -0.2403  0.6525
  210MOL   H11325611   5.208   7.696   0.763 -2.5321 -0.6142 -1.7796
  210MOL   H11425612   5.382   7.684   0.740  0.1670  0.2389 -2.3252
  210MOL   H11525613   5.267   7.482   0.654 -0.6157 -0.5356  0.7126
  210MOL   C11625614   5.158   7.587   0.495  0.2697 -0.7624  0.0470
  210MOL   C11725615   5.008   7.598   0.538 -0.3754  0.5480  0.3123
  210MOL  Cl11825616   4.894   7.599   0.397  0.1537  0.5298 -0.0786
  210MOL   H11925617   5.158   7.499   0.430  2.7770  0.1261 -1.2111
  210MOL   H12025618   5.187   7.670   0.431 -1.5753  0.5686  0.8946
  210MOL   H12125619   4.989   7.511   0.600  0.8403  0.0507  0.0098
  210MOL   H12225620   4.994   7.686   0.601  2.0685  0.8067  0.5504
  211MOL     C125621   4.554   2.996   1.015 -0.6347 -0.0309 -0.2124
  211MOL     C225622   4.621   2.900   1.120 -0.3075  0.1640  0.0297
  211MOL    Cl325623   4.573   2.944   1.282 -0.1093  0.1935  0.0808
  211MOL     H425624   4.446   2.996   1.027 -0.8386 -3.5077 -1.3511
  211MOL     H525625   4.597   3.092   1.043 -0.1255  0.0560 -1.2862
  211MOL     H625626   4.601   2.794   1.102  1.9487 -0.1879 -0.5233
  211MOL     H725627   4.578   2.950   0.919 -1.0370  2.5428 -1.5747
  211MOL     C825628   4.774   2.911   1.117 -0.3036  0.0235  0.1953
  211MOL     C925629   4.832   2.868   0.985 -0.4553  1.2333 -0.5662
  211MOL   Cl1025630   4.782   2.697   0.952 -0.4236  0.1052  0.3025
  211MOL    H1125631   4.810   2.853   1.202 -0.8913  0.6680  0.8885
  211MOL    H1225632   4.801   3.015   1.134 -2.0669  0.3269  1.1877
  211MOL    H1325633   4.803   2.929   0.899 -3.2220 -0.6727 -1.0431
  211MOL    C1425634   4.989   2.870   0.998 -0.4015  0.3169  0.4173
  211MOL    C1525635   5.053   2.871   0.860 -0.1047 -0.6253 -0.1308
  211MOL   Cl1625636   5.011   3.026   0.770 -0.5940 -0.6285 -0.1266
  211MOL    H1725637   5.023   2.786   1.058  0.6193  0.4936  0.0880
  211MOL    H1825638   5.014   2.959   1.056 -0.1395 -0.1848  1.0798
  211MOL    H1925639   5.156   2.898   0.884 -0.2636  0.8421 -1.0921
  211MOL    C2025640   5.055   2.744   0.773 -0.4404 -0.1050 -0.2457
  211MOL    C2125641   5.122   2.621   0.843 -0.7637 -0.4709  0.3075
  211MOL   Cl2225642   5.297   2.665   0.856  0.1346 -0.0999 -0.2061
  211MOL    H2325643   5.095   2.760   0.674  0.7687  0.9414  0.4019
  211MOL    H2425644   4.954   2.720   0.740  0.0137 -1.6957 -0.5480
  211MOL    H2525645   5.075   2.607   0.940  2.3309  0.2451  1.9830
  211MOL    C2625646   5.126   2.498   0.758  0.5012  0.0227  0.3488
  211MOL    C2725647   5.127   2.367   0.838 -0.1760  0.6340  0.0558
  211MOL   Cl2825648   5.250   2.374   0.966 -0.3132  0.0287  0.0388
  211MOL    H2925649   5.194   2.497   0.673 -0.0662 -2.9194 -0.1250
  211MOL    H3025650   5.025   2.503   0.717 -0.8562  0.7442  3.6212
  211MOL    H3125651   5.028   2.352   0.880 -0.3046 -0.0291 -0.4767
  211MOL    C3225652   5.175   2.241   0.753 -0.0923  0.3940 -0.0300
  211MOL    C3325653   5.108   2.211   0.621  0.0682 -0.2396  0.1013
  211MOL   Cl3425654   4.939   2.159   0.653 -0.2870 -0.6415 -0.1761
  211MOL    H3525655   5.163   2.148   0.810 -0.4469  0.5902  0.2200
  211MOL    H3625656   5.280   2.241   0.724  0.4755 -0.1001  1.9547
  211MOL    H3725657   5.105   2.305   0.565  0.2821  0.6818  1.6027
  211MOL    C3825658   5.187   2.093   0.547  0.1792  0.0667 -0.1050
  211MOL    C3925659   5.311   2.146   0.472  0.2438 -0.6596 -0.9983
  211MOL   Cl4025660   5.267   2.263   0.352 -0.1787  0.0948  0.1498
  211MOL    H4125661   5.127   2.040   0.473  1.2347 -0.4161 -0.6159
  211MOL    H4225662   5.219   2.010   0.610  1.6257  1.1367  0.5969
  211MOL    H4325663   5.378   2.199   0.541  0.6098 -2.2324 -0.1134
  211MOL    C4425664   5.381   2.036   0.398  0.2244  0.9765  0.7341
  211MOL    C4525665   5.466   1.940   0.481 -0.0429 -0.5114 -1.0966
  211MOL   Cl4625666   5.563   2.031   0.602  0.2424  0.1107 -0.1964
  211MOL    H4725667   5.441   2.081   0.318 -0.7821  0.9306 -0.0635
  211MOL    H4825668   5.316   1.975   0.336  2.5523 -1.6498  0.8065
  211MOL    H4925669   5.406   1.876   0.546 -1.2665  1.4970 -0.1940
  211MOL    C5025670   5.561   1.852   0.399 -0.5133 -0.8854  0.2362
  211MOL    C5125671   5.496   1.736   0.327  0.1335  0.1378  0.0151
  211MOL   Cl5225672   5.481   1.594   0.441 -0.1998  0.0852 -0.0759
  211MOL    H5325673   5.628   1.803   0.470 -0.2082 -0.7147  0.0704
  211MOL    H5425674   5.622   1.911   0.331  0.3437 -1.8946  0.1176
  211MOL    H5525675   5.395   1.754   0.289 -0.4300 -0.8300  1.0056
  211MOL    C5625676   5.575   1.681   0.204 -0.4878  0.6173  0.0034
  211MOL    C5725677   5.562   1.759   0.076  0.1866 -0.2474  0.4956
  211MOL   Cl5825678   5.385   1.767   0.038 -0.3589  0.1022  0.3789
  211MOL    H5925679   5.545   1.579   0.180  0.3912  0.9807 -2.7570
  211MOL    H6025680   5.679   1.680   0.239  0.3295 -1.1101 -2.3073
  211MOL    H6125681   5.590   1.863   0.095 -0.0252 -0.0289 -0.3212
  211MOL    C6225682   5.638   1.705   8.474  1.0560  0.4131 -0.0637
  211MOL    C6325683   5.785   1.676   8.483  0.2722  0.0580  0.4360
  211MOL   Cl6425684   5.862   1.826   0.015 -0.1636 -0.0103 -0.6361
  211MOL    H6525685   5.620   1.777   8.395  2.2518  0.7750 -0.0255
  211MOL    H6625686   5.580   1.615   8.451  0.1362  0.2581  2.7124
  211MOL    H6725687   5.800   1.599   0.033  0.8121 -0.6459 -0.3890
  211MOL    C6825688   5.850   1.631   8.345  0.3229 -0.3108 -0.2297
  211MOL    C6925689   5.968   1.525   8.353 -0.5596 -0.0052 -1.1660
  211MOL   Cl7025690   6.101   1.591   8.461  0.0839 -0.2301 -0.0144
  211MOL    H7125691   5.874   1.717   8.282 -0.2275 -3.3076 -4.8089
  211MOL    H7225692   5.776   1.594   8.274 -0.5615  3.0499 -1.1756
  211MOL    H7325693   5.946   1.434   8.409  1.3567 -0.6478 -1.4158
  211MOL    C7425694   6.045   1.489   8.220 -0.0710 -0.7155  0.2971
  211MOL    C7525695   5.950   1.409   8.124 -0.4508 -0.4803  0.0347
  211MOL   Cl7625696   5.897   1.268   8.203 -0.0134 -0.2936  0.2947
  211MOL    H7725697   6.125   1.418   8.239  0.0296 -1.0826 -1.3640
  211MOL    H7825698   6.082   1.579   8.172 -0.3896  0.9347  3.0938
  211MOL    H7925699   5.859   1.460   8.095  0.8344  0.9190 -1.6879
  211MOL    C8025700   6.033   1.365   7.993  0.3078 -0.2304 -0.7718
  211MOL    C8125701   5.965   1.273   7.891  0.0507  0.4226 -0.5786
  211MOL   Cl8225702   6.071   1.240   7.749  0.2303  0.1160 -0.3339
  211MOL    H8325703   6.126   1.315   8.019 -0.0135  0.5222  1.8988
  211MOL    H8425704   6.056   1.458   7.942  1.3317  1.1758  2.1379
  211MOL    H8525705   5.960   1.181   7.950 -0.2834  0.7030 -0.1699
  211MOL    C8625706   5.818   1.306   7.841  0.2948  0.0388 -0.2030
  211MOL    C8725707   5.754   1.206   7.755 -0.1096  0.1108 -0.4527
  211MOL   Cl8825708   5.616   1.293   7.690  0.1621 -0.1743 -0.3147
  211MOL    H8925709   5.830   1.399   7.786  1.1826  0.0454 -0.0057
  211MOL    H9025710   5.759   1.336   7.928  2.1407  2.5131  0.2473
  211MOL    H9125711   5.810   1.171   7.667 -1.6373 -2.8721 -0.2892
  211MOL    C9225712   5.702   1.079   7.825  0.3984  0.1940 -0.1480
  211MOL    C9325713   5.708   0.940   7.755 -0.2279 -0.6295  0.3800
  211MOL   Cl9425714   5.606   0.945   7.616 -0.4084 -0.0494 -0.4567
  211MOL    H9525715   5.595   1.079   7.848  0.2949 -0.7102 -0.6232
  211MOL    H9625716   5.765   1.054   7.910  0.6119 -0.5738 -0.5290
  211MOL    H9725717   5.807   0.934   7.711 -1.0562 -1.6561 -1.3911
  211MOL    C9825718   5.661   0.825   7.848  0.2973 -0.3799  0.2978
  211MOL    C9925719   5.658   0.684   7.796 -0.3903 -0.4006 -0.0370
  211MOL  Cl10025720   5.576   0.583   7.919 -0.1609 -0.3315 -0.0696
  211MOL   H10125721   5.562   0.852   7.887 -0.1266 -1.7044  0.1418
  211MOL   H10225722   5.736   0.831   7.927 -0.1488 -1.2862  0.7933
  211MOL   H10325723   5.609   0.676   7.699 -0.2715 -2.8659  0.0778
  211MOL   C10425724   5.794   0.622   7.777 -0.0802 -0.4645  0.6215
  211MOL   C10525725   5.801   0.471   7.742  0.3118 -0.2667  0.0085
  211MOL  Cl10625726   5.968   0.437   7.713  0.2133 -0.5312  0.5297
  211MOL   H10725727   5.859   0.638   7.862 -0.8706  0.0512  1.1396
  211MOL   H10825728   5.847   0.680   7.701 -1.7401  0.5233  0.1886
  211MOL   H10925729   5.774   0.413   7.831  0.6796  1.7582  1.4701
  211MOL   C11025730   5.702   0.436   7.632 -0.3418 -0.3719  0.1858
  211MOL   C11125731   5.706   0.287   7.575 -0.2104 -0.1827 -0.0428
  211MOL  Cl11225732   5.741   0.301   7.407  0.0975 -0.3504  0.3237
  211MOL   H11325733   5.734   0.505   7.554 -0.2194  0.3852  0.8936
  211MOL   H11425734   5.602   0.469   7.658 -1.1781 -1.5118 -1.5167
  211MOL   H11525735   5.783   0.226   7.623  2.5622  2.7370 -0.6029
  211MOL   C11625736   5.566   0.221   7.589  0.0438  0.1002  0.2096
  211MOL   C11725737   5.565   0.074   7.546  0.2990 -0.4417 -0.1933
  211MOL  Cl11825738   5.460   8.504   7.659  0.1679  0.0539 -0.1453
  211MOL   H11925739   5.486   0.264   7.530 -0.1166 -0.2825  0.1492
  211MOL   H12025740   5.528   0.237   7.690 -1.6415 -1.4424 -0.1650
  211MOL   H12125741   5.517   0.067   7.448  0.2074  1.6918 -0.3152
  211MOL   H12225742   5.666   0.033   7.541  0.9113  0.7667  1.9818
  212MOL     C125743   5.272   1.159   6.940  0.2386  0.2660  0.3672
  212MOL     C225744   5.122   1.170   6.964  0.3871 -0.5301 -0.2699
  212MOL    Cl325745   5.045   1.239   6.817 -0.0888  0.5420  0.0914
  212MOL     H425746   5.323   1.254   6.930  0.6269 -0.1428 -1.6725
  212MOL     H525747   5.333   1.096   7.006 -0.8378  0.0335  1.1465
  212MOL     H625748   5.079   1.070   6.975  1.9763 -1.0911  1.1695
  212MOL     H725749   5.280   1.119   6.839 -0.0342  0.9678  0.0718
  212MOL     C825750   5.095   1.269   7.084  0.0533  0.0880  0.2193
  212MOL     C925751   4.950   1.289   7.113  0.0561 -1.1450 -0.2075
  212MOL   Cl1025752   4.908   1.421   7.224  0.1416 -0.1856  0.3876
  212MOL    H1125753   5.149   1.363   7.074 -0.1282  0.0333 -1.5593
  212MOL    H1225754   5.139   1.219   7.170  0.3802 -2.3713 -1.3209
  212MOL    H1325755   4.900   1.323   7.022  1.9365  1.5167 -0.3145
  212MOL    C1425756   4.868   1.168   7.173 -0.4747  0.2366  0.4444
  212MOL    C1525757   4.718   1.179   7.142 -0.6076 -0.3835 -0.1399
  212MOL   Cl1625758   4.627   1.051   7.225 -0.0885  0.2810 -0.6341
  212MOL    H1725759   4.882   1.169   7.281 -1.2831  1.2315  0.5496
  212MOL    H1825760   4.911   1.072   7.145 -1.0949  0.0032  0.2717
  212MOL    H1925761   4.681   1.277   7.171 -0.3649 -0.3000 -0.1141
  212MOL    C2025762   4.705   1.143   6.989 -0.2212 -0.1617 -0.1084
  212MOL    C2125763   4.565   1.160   6.937  0.2711  0.1666  0.1526
  212MOL   Cl2225764   4.550   1.066   6.786  0.1291 -0.1292  0.1542
  212MOL    H2325765   4.739   1.042   6.969 -0.2617 -0.1659 -0.1573
  212MOL    H2425766   4.778   1.199   6.931  0.3299  0.3981  1.1065
  212MOL    H2525767   4.505   1.117   7.017  0.2678  1.3240  0.7904
  212MOL    C2625768   4.541   1.313   6.914 -0.2820 -0.2118 -0.0773
  212MOL    C2725769   4.393   1.363   6.912  0.7545  0.2551  0.2007
  212MOL   Cl2825770   4.314   1.336   7.075  0.0653 -0.5301 -0.1878
  212MOL    H2925771   4.590   1.328   6.818 -4.8181 -2.0473 -2.8610
  212MOL    H3025772   4.600   1.382   6.975 -0.4017  0.2570 -0.4864
  212MOL    H3125773   4.388   1.471   6.905 -2.3601  0.2225  1.0980
  212MOL    C3225774   4.306   1.299   6.801 -0.5150  0.0256  0.2264
  212MOL    C3325775   4.355   1.334   6.661  0.3970 -0.6618  0.5905
  212MOL   Cl3425776   4.350   1.503   6.639 -0.2802  0.3951 -0.2570
  212MOL    H3525777   4.203   1.330   6.817  0.4930  3.3340  0.8713
  212MOL    H3625778   4.311   1.192   6.819  0.4943  0.0737  0.2634
  212MOL    H3725779   4.460   1.304   6.660  0.2359 -1.2694 -1.9260
  212MOL    C3825780   4.259   1.261   6.559 -0.3380 -0.1399  0.1479
  212MOL    C3925781   4.323   1.236   6.416  0.2762  0.6746 -0.0868
  212MOL   Cl4025782   4.482   1.154   6.444  0.2016 -0.1030  0.1395
  212MOL    H4125783   4.161   1.309   6.551 -0.0940  0.1592 -1.2828
  212MOL    H4225784   4.228   1.163   6.595 -3.2391  0.8522  0.5002
  212MOL    H4325785   4.261   1.167   6.358 -0.0935  1.5055 -0.6757
  212MOL    C4425786   4.338   1.361   6.323  0.7475  0.0484 -0.1128
  212MOL    C4525787   4.204   1.431   6.287  0.1238 -0.3669 -0.2909
  212MOL   Cl4625788   4.100   1.331   6.177 -0.0637  0.3172 -0.2358
  212MOL    H4725789   4.376   1.327   6.227 -1.7205 -0.4028 -0.9578
  212MOL    H4825790   4.410   1.430   6.368  0.4143  1.9190 -2.3287
  212MOL    H4925791   4.145   1.438   6.379  0.7668  3.1748 -0.0712
  212MOL    C5025792   4.216   1.571   6.212 -0.1505  0.0681  0.1775
  212MOL    C5125793   4.088   1.645   6.188  0.8072 -0.1927 -0.1842
  212MOL   Cl5225794   4.131   1.769   6.065  0.2879  0.4023 -0.5391
  212MOL    H5325795   4.262   1.546   6.116  1.4397 -0.3658  1.0373
  212MOL    H5425796   4.287   1.637   6.262 -0.9386  0.1410  1.2146
  212MOL    H5525797   4.018   1.569   6.151  0.2481 -0.6454  1.7630
  212MOL    C5625798   4.031   1.717   6.311  0.0877 -0.1817 -0.2450
  212MOL    C5725799   3.890   1.786   6.290 -0.5405 -0.7882 -0.1088
  212MOL   Cl5825800   3.833   1.798   6.459 -0.0636  0.4268 -0.1002
  212MOL    H5925801   4.113   1.767   6.362 -1.4062 -0.2109  2.2785
  212MOL    H6025802   4.012   1.647   6.392  0.8678  0.5239  0.5558
  212MOL    H6125803   3.890   1.892   6.267  0.1151 -0.8091 -0.2366
  212MOL    C6225804   3.787   1.696   6.217  1.0945 -0.3980  0.3188
  212MOL    C6325805   3.644   1.756   6.207  0.2434 -0.0885  0.3654
  212MOL   Cl6425806   3.531   1.636   6.147  0.1699  0.0268  0.0596
  212MOL    H6525807   3.790   1.604   6.275  1.1174 -0.7571 -0.2422
  212MOL    H6625808   3.823   1.668   6.118 -0.8167 -0.7637 -0.2901
  212MOL    H6725809   3.602   1.782   6.305 -0.6390 -2.0186  0.5094
  212MOL    C6825810   3.631   1.882   6.113 -0.1763 -0.6314  0.4683
  212MOL    C6925811   3.684   1.854   5.968 -0.1634 -0.3437 -0.4096
  212MOL   Cl7025812   3.849   1.937   5.954  0.1158 -0.3062  0.1016
  212MOL    H7125813   3.680   1.971   6.150  0.3296 -0.7825  0.1764
  212MOL    H7225814   3.527   1.915   6.112 -0.2028 -0.6888  1.6522
  212MOL    H7325815   3.715   1.750   5.954  2.2262  0.0917  1.2955
  212MOL    C7425816   3.587   1.887   5.856  0.5559  0.3318 -0.7764
  212MOL    C7525817   3.632   1.852   5.715  0.7474 -0.8598 -0.1428
  212MOL   Cl7625818   3.502   1.903   5.613 -0.2376  0.1414  0.2299
  212MOL    H7725819   3.560   1.993   5.858 -0.2762  0.1365 -1.7775
  212MOL    H7825820   3.493   1.835   5.872  0.9938 -0.4934 -0.8959
  212MOL    H7925821   3.718   1.916   5.694  0.2031  0.5389  1.7441
  212MOL    C8025822   3.654   1.700   5.688 -0.2206  0.1196 -0.4414
  212MOL    C8125823   3.805   1.689   5.643  0.3948  0.4258 -0.3672
  212MOL   Cl8225824   3.825   1.773   5.479 -0.0585 -0.5144 -0.1079
  212MOL    H8325825   3.577   1.661   5.622  0.0454  1.9707 -1.8703
  212MOL    H8425826   3.627   1.647   5.779 -3.0038 -0.0924 -1.3591
  212MOL    H8525827   3.862   1.750   5.713  1.2604 -1.1676  0.3327
  212MOL    C8625828   3.852   1.547   5.631 -0.1018  0.3610 -0.2671
  212MOL    C8725829   3.820   1.444   5.751 -0.7018 -0.1642  0.4886
  212MOL   Cl8825830   3.909   1.522   5.887 -0.0735 -0.2526 -0.2040
  212MOL    H8925831   3.958   1.539   5.605  0.2642 -0.7037  1.4686
  212MOL    H9025832   3.810   1.502   5.541  0.7232 -0.7526 -0.1128
  212MOL    H9125833   3.714   1.437   5.774 -0.6024 -2.3480  0.4398
  212MOL    C9225834   3.888   1.305   5.722 -0.6267 -0.4811 -0.2311
  212MOL    C9325835   3.814   1.223   5.609  0.3281 -0.1533 -0.4877
  212MOL   Cl9425836   3.653   1.184   5.665  0.1595 -0.1858 -0.0980
  212MOL    H9525837   3.878   1.251   5.816  2.0289 -1.9597 -0.7566
  212MOL    H9625838   3.994   1.316   5.699 -0.3467  0.8361  1.6282
  212MOL    H9725839   3.800   1.275   5.514  2.5679 -0.0700 -0.8040
  212MOL    C9825840   3.904   1.099   5.594  0.5575  0.9032 -0.5520
  212MOL    C9925841   3.849   0.987   5.498  0.2694  0.2099 -0.3808
  212MOL  Cl10025842   3.932   0.837   5.537 -0.0958  0.0166  0.4706
  212MOL   H10125843   3.913   1.053   5.693 -1.3215  0.1961 -0.6827
  212MOL   H10225844   4.008   1.122   5.570  0.6813  1.5457  0.5478
  212MOL   H10325845   3.742   0.969   5.508 -0.0020  1.4277 -0.9778
  212MOL   C10425846   3.884   1.022   5.353  0.4085  0.6657  0.2582
  212MOL   C10525847   3.889   0.910   5.245 -0.2504  0.7779 -0.1313
  212MOL  Cl10625848   3.921   0.993   5.088 -0.1612 -0.1974  0.4047
  212MOL   H10725849   3.980   1.072   5.347  1.6622 -1.8880 -1.6837
  212MOL   H10825850   3.814   1.099   5.321 -1.6248 -1.4060 -0.4395
  212MOL   H10925851   3.966   0.836   5.264  0.2035  0.8085 -1.7428
  212MOL   C11025852   3.749   0.848   5.242  0.2173 -0.5315  0.6425
  212MOL   C11125853   3.716   0.747   5.125  0.1042  0.2396 -0.4346
  212MOL  Cl11225854   3.545   0.715   5.131 -0.3375 -0.1113  0.1053
  212MOL   H11325855   3.678   0.930   5.242  1.3962  0.5041  1.7725
  212MOL   H11425856   3.728   0.787   5.330 -0.6217 -2.7016 -1.0064
  212MOL   H11525857   3.735   0.803   5.034  2.0866  1.3684  0.6298
  212MOL   C11625858   3.797   0.615   5.118 -0.4192 -0.1103  0.8029
  212MOL   C11725859   3.749   0.529   5.001  0.3195  0.5114  0.4472
  212MOL  Cl11825860   3.854   0.385   4.987 -0.4913 -0.1425 -0.0459
  212MOL   H11925861   3.792   0.547   5.203 -2.3865 -2.9388 -1.4436
  212MOL   H12025862   3.899   0.654   5.113 -0.6083  0.5686  2.1756
  212MOL   H12125863   3.647   0.495   5.019 -0.1389  0.6847 -1.7006
  212MOL   H12225864   3.748   0.582   4.905 -1.8552  0.4241  0.3990
  213MOL     C125865   4.527   3.573   5.215 -0.6886  0.3311 -0.2688
  213MOL     C225866   4.506   3.427   5.194 -0.3649 -0.0714  0.3420
  213MOL    Cl325867   4.338   3.396   5.164  0.1325  0.1952  0.2834
  213MOL     H425868   4.474   3.593   5.308  2.3013 -1.9130  2.0272
  213MOL     H525869   4.635   3.581   5.229 -0.6410  0.2644 -0.5994
  213MOL     H625870   4.567   3.400   5.108  1.2349 -1.3225  1.8354
  213MOL     H725871   4.507   3.637   5.130 -1.7676 -0.0585 -0.3156
  213MOL     C825872   4.536   3.344   5.323 -0.8529 -0.0670  0.3817
  213MOL     C925873   4.677   3.356   5.369  0.7574 -0.7764 -0.1167
  213MOL   Cl1025874   4.787   3.310   5.237  0.2027 -0.1539  0.1574
  213MOL    H1125875   4.513   3.240   5.300  1.6527 -0.5815  0.0607
  213MOL    H1225876   4.459   3.360   5.398 -0.7653 -0.0870  0.4748
  213MOL    H1325877   4.700   3.459   5.398 -0.5187 -0.4019 -0.4175
  213MOL    C1425878   4.702   3.261   5.482 -0.4340  0.2486  0.2898
  213MOL    C1525879   4.818   3.292   5.585  0.5443  0.3706  0.8085
  213MOL   Cl1625880   4.803   3.468   5.637  0.0173  0.0070  0.1515
  213MOL    H1725881   4.704   3.156   5.453  1.5732  0.5244 -0.6265
  213MOL    H1825882   4.615   3.263   5.548 -0.6920  3.5808 -0.0568
  213MOL    H1925883   4.804   3.233   5.676  2.8318 -1.0326  0.2767
  213MOL    C2025884   4.964   3.265   5.533  0.5401  0.2621 -0.3623
  213MOL    C2125885   4.994   3.117   5.507  0.3660 -0.0397 -0.6778
  213MOL   Cl2225886   4.962   3.019   5.653  0.1048 -0.3884  0.4024
  213MOL    H2325887   5.037   3.308   5.602  1.2721 -0.6246 -0.5650
  213MOL    H2425888   4.972   3.307   5.433 -0.3981  1.7499  0.1697
  213MOL    H2525889   4.938   3.069   5.427  0.6714 -0.1403 -0.8283
  213MOL    C2625890   5.146   3.092   5.481  0.3945  0.4141  0.2617
  213MOL    C2725891   5.198   3.142   5.351 -0.2233 -0.4218 -0.2444
  213MOL   Cl2825892   5.106   3.062   5.223  0.3137 -0.1684  0.3204
  213MOL    H2925893   5.170   2.986   5.493 -0.7291  0.3897  2.4876
  213MOL    H3025894   5.201   3.137   5.564 -0.5183  1.0848  0.5077
  213MOL    H3125895   5.174   3.246   5.333  0.1381 -0.3455 -0.2977
  213MOL    C3225896   5.343   3.110   5.319 -0.1391  0.3906  0.0476
  213MOL    C3325897   5.447   3.218   5.376  0.1440 -0.0134  0.3192
  213MOL   Cl3425898   5.426   3.378   5.293  0.1176 -0.4125 -0.0607
  213MOL    H3525899   5.360   3.084   5.215  0.1195  0.9307 -0.0475
  213MOL    H3625900   5.366   3.012   5.360  3.2019 -0.0502 -2.6829
  213MOL    H3725901   5.421   3.228   5.482  1.9685 -1.3827  0.9305
  213MOL    C3825902   5.594   3.190   5.350  0.3256  0.4842 -0.0615
  213MOL    C3925903   5.706   3.295   5.408  1.1133 -0.2975  0.3409
  213MOL   Cl4025904   5.868   3.224   5.364  0.2442  0.1381 -0.2623
  213MOL    H4125905   5.595   3.183   5.242 -0.5210  1.9654 -0.1873
  213MOL    H4225906   5.605   3.090   5.393 -1.6355  0.2133 -0.1679
  213MOL    H4325907   5.693   3.391   5.358  1.7867 -1.7053 -2.6151
  213MOL    C4425908   5.692   3.322   5.559  0.0458 -0.2687 -0.1546
  213MOL    C4525909   5.807   3.419   5.607  0.1476  0.4976  0.7066
  213MOL   Cl4625910   5.957   3.331   5.654 -0.0128  0.0845  0.0204
  213MOL    H4725911   5.692   3.230   5.618  0.9090 -1.3882 -1.8531
  213MOL    H4825912   5.597   3.371   5.579 -0.5371 -1.9582  1.3564
  213MOL    H4925913   5.846   3.474   5.522 -0.8132  0.0094 -0.0567
  213MOL    C5025914   5.754   3.498   5.726 -0.2122  0.2245  0.5015
  213MOL    C5125915   5.645   3.607   5.710 -0.3332 -0.3430  0.4822
  213MOL   Cl5225916   5.705   3.712   5.582 -0.1471  0.0569 -0.6162
  213MOL    H5325917   5.846   3.547   5.759  0.1392  0.7086 -1.1675
  213MOL    H5425918   5.725   3.433   5.809 -0.3631  1.6714  1.6003
  213MOL    H5525919   5.553   3.566   5.668 -2.5706  3.1312  1.7187
  213MOL    C5625920   5.615   3.684   5.845 -0.7134 -0.5432  0.1020
  213MOL    C5725921   5.722   3.783   5.909 -0.1589  0.6849  0.1603
  213MOL   Cl5825922   5.679   3.802   6.083  0.0386 -0.0229  0.1633
  213MOL    H5925923   5.619   3.602   5.916  0.7522 -0.3593  0.2329
  213MOL    H6025924   5.517   3.732   5.832 -0.1002  1.1634  1.6624
  213MOL    H6125925   5.813   3.727   5.890  0.5399  2.4338 -1.8020
  213MOL    C6225926   5.717   3.921   5.841  0.0249 -0.2137  0.5452
  213MOL    C6325927   5.854   3.984   5.847  0.0096  0.1013 -0.3282
  213MOL   Cl6425928   5.805   4.154   5.829  0.1339 -0.1218 -0.0584
  213MOL    H6525929   5.646   3.985   5.894  0.2253 -1.0681  1.8741
  213MOL    H6625930   5.671   3.910   5.743 -1.0875  1.2058  0.8865
  213MOL    H6725931   5.899   3.978   5.946 -0.4671 -0.8413 -0.1624
  213MOL    C6825932   5.960   3.957   5.736 -0.4540  0.1210  0.1499
  213MOL    C6925933   6.033   3.815   5.736  0.0723  0.2520 -0.2817
  213MOL   Cl7025934   6.090   3.787   5.901 -0.1566 -0.0911 -0.4268
  213MOL    H7125935   6.041   4.029   5.739  0.0867 -0.4816  0.1745
  213MOL    H7225936   5.926   3.969   5.633 -0.9689  0.7892  0.3897
  213MOL    H7325937   5.965   3.733   5.714  0.8324  0.1072 -2.1748
  213MOL    C7425938   6.167   3.810   5.654 -0.0026  0.3761 -0.0725
  213MOL    C7525939   6.149   3.825   5.495  0.5843  0.2903 -0.2633
  213MOL   Cl7625940   6.039   3.697   5.433  0.1162 -0.0381 -0.3618
  213MOL    H7725941   6.218   3.717   5.681 -1.5893 -0.3303  0.5591
  213MOL    H7825942   6.236   3.885   5.692  1.3737 -1.8366  1.9583
  213MOL    H7925943   6.114   3.926   5.476 -0.3562 -0.0352 -0.2624
  213MOL    C8025944   6.288   3.805   5.444 -0.8862 -0.0043 -0.1351
  213MOL    C8125945   6.318   3.882   5.316 -0.0481  0.4638  0.6687
  213MOL   Cl8225946   6.219   3.808   5.178 -0.4910  0.8618 -0.4231
  213MOL    H8325947   6.311   3.700   5.426 -2.1671  0.1230 -2.7394
  213MOL    H8425948   6.360   3.825   5.523 -1.5061  1.4241  0.0806
  213MOL    H8525949   6.293   3.988   5.320 -0.0611  0.5988 -2.0505
  213MOL    C8625950   6.467   3.864   5.287  0.8490 -0.0709 -0.5287
  213MOL    C8725951   6.528   3.945   5.170  0.3059 -0.2798  0.3832
  213MOL   Cl8825952   6.680   3.858   5.138  0.0770  0.2239 -0.1002
  213MOL    H8925953   6.488   3.759   5.268  0.5858 -0.1317 -0.4938
  213MOL    H9025954   6.534   3.885   5.370  2.0956  1.5999 -1.9205
  213MOL    H9125955   6.466   3.930   5.082  1.9258 -0.2212 -0.7817
  213MOL    C9225956   6.546   4.100   5.199 -0.4642 -0.2214 -0.6607
  213MOL    C9325957   6.589   4.181   5.077  0.6162  0.0363  0.3540
  213MOL   Cl9425958   6.762   4.162   5.044 -0.0599  0.0719  0.0066
  213MOL    H9525959   6.613   4.123   5.283  0.6619 -1.0017 -1.3458
  213MOL    H9625960   6.449   4.125   5.244 -0.3661 -0.5034 -0.2902
  213MOL    H9725961   6.533   4.131   4.998  0.5460  0.5504  0.0751
  213MOL    C9825962   6.538   4.326   5.080 -0.3087 -0.4348  0.1867
  213MOL    C9925963   6.488   4.385   4.944 -0.0763 -0.0209  0.4955
  213MOL  Cl10025964   6.596   4.340   4.811 -0.2547 -0.3539  0.1700
  213MOL   H10125965   6.627   4.374   5.120 -0.5649  0.8628 -0.7674
  213MOL   H10225966   6.466   4.335   5.161  1.1645 -1.4992  1.6358
  213MOL   H10325967   6.392   4.340   4.919  0.9470 -1.7446 -0.3825
  213MOL   C10425968   6.469   4.541   4.940 -0.0502 -0.2106 -0.3109
  213MOL   C10525969   6.365   4.599   5.042 -0.6121 -0.1271 -0.1702
  213MOL  Cl10625970   6.213   4.528   4.984 -0.0710 -0.0497  0.1801
  213MOL   H10725971   6.446   4.569   4.838  0.0837 -2.0800 -0.8671
  213MOL   H10825972   6.570   4.577   4.960  0.8011 -0.9478 -3.0861
  213MOL   H10925973   6.386   4.545   5.135  0.1453 -2.0757 -1.4343
  213MOL   C11025974   6.375   4.757   5.046  0.1880 -0.0279  0.1765
  213MOL   C11125975   6.267   4.834   5.119  0.4355  0.4395  0.1376
  213MOL  Cl11225976   6.294   5.010   5.104  0.2916  0.2454  0.1283
  213MOL   H11325977   6.369   4.797   4.945 -0.4013 -2.6730 -0.8783
  213MOL   H11425978   6.473   4.786   5.082  0.0531 -0.6641  1.0874
  213MOL   H11525979   6.169   4.821   5.074 -0.5437  0.1655  2.2888
  213MOL   C11625980   6.257   4.798   5.270  0.1347 -0.0999 -1.0913
  213MOL   C11725981   6.118   4.817   5.331  0.7145 -0.2848 -0.1544
  213MOL  Cl11825982   6.113   4.779   5.500 -0.0554 -0.1631 -0.1097
  213MOL   H11925983   6.336   4.834   5.336 -0.2547  0.8549 -1.1365
  213MOL   H12025984   6.273   4.691   5.284  0.5737  0.1349  0.3400
  213MOL   H12125985   6.087   4.921   5.321 -0.6984 -0.5120  1.5096
  213MOL   H12225986   6.036   4.765   5.282  2.3805 -1.5668 -1.6166
  214MOL     C125987   3.116   3.491   1.780  0.1579  0.7634  0.8695
  214MOL     C225988   3.105   3.627   1.846 -0.4498  0.1599  0.4352
  214MOL    Cl325989   2.929   3.656   1.869 -0.0608 -0.0972 -0.1351
  214MOL     H425990   3.076   3.483   1.679  0.5696  1.5180  0.6447
  214MOL     H525991   3.220   3.457   1.778 -0.2785 -0.5765 -0.0971
  214MOL     H625992   3.145   3.613   1.946 -1.3993 -1.4328  0.6129
  214MOL     H725993   3.062   3.424   1.847 -0.5660  1.6976  1.2303
  214MOL     C825994   3.172   3.746   1.769 -0.1401 -0.2928  0.1187
  214MOL     C925995   3.309   3.717   1.708  0.8437  0.6723 -0.4644
  214MOL   Cl1025996   3.423   3.700   1.846  0.6364  0.0726  0.2689
  214MOL    H1125997   3.185   3.829   1.838  0.9371 -1.9606  1.9596
  214MOL    H1225998   3.103   3.783   1.693  0.3116  1.3258  0.4968
  214MOL    H1325999   3.313   3.626   1.649  0.4739 -1.2644  2.3981
  214MOL    C1426000   3.359   3.834   1.617  0.9031 -0.2344  0.3899
  214MOL    C1526001   3.305   3.829   1.460  0.2424 -0.2076 -0.1378
  214MOL   Cl1626002   3.396   3.706   1.378  0.0463 -0.2795 -0.0353
  214MOL    H1726003   3.468   3.826   1.612  0.9942 -1.2829  3.3295
  214MOL    H1826004   3.336   3.932   1.658 -1.9191  0.5787 -2.9249
  214MOL    H1926005   3.204   3.788   1.460 -0.1702  0.7911  0.7907
  214MOL    C2026006   3.317   3.958   1.374 -0.4907  0.0827 -0.4970
  214MOL    C2126007   3.225   4.064   1.431 -0.0709  0.1672 -0.7293
  214MOL   Cl2226008   3.053   3.998   1.465  0.3984 -0.3024  0.4786
  214MOL    H2326009   3.281   3.935   1.274  1.2783 -1.2283 -0.8638
  214MOL    H2426010   3.420   3.992   1.368 -1.0025  1.5981 -0.7425
  214MOL    H2526011   3.270   4.104   1.522 -0.9977  2.0340 -1.0640
  214MOL    C2626012   3.203   4.175   1.330  0.0131  0.4297 -0.7189
  214MOL    C2726013   3.327   4.259   1.301  0.1830  0.6292  0.0384
  214MOL   Cl2826014   3.342   4.366   1.439 -0.0634 -0.4556 -0.2637
  214MOL    H2926015   3.123   4.244   1.357 -0.0396 -0.0110  0.2596
  214MOL    H3026016   3.167   4.145   1.231  2.0307 -0.0973 -1.3020
  214MOL    H3126017   3.414   4.195   1.316 -0.8628 -0.5511  1.1715
  214MOL    C3226018   3.327   4.329   1.160 -0.9852  0.4875 -0.8808
  214MOL    C3326019   3.457   4.405   1.128  1.1934 -0.7493 -0.6520
  214MOL   Cl3426020   3.418   4.497   0.982 -0.3748  0.0736  0.0195
  214MOL    H3526021   3.238   4.391   1.148  1.7690  4.5218 -1.0365
  214MOL    H3626022   3.330   4.251   1.084  0.0118  0.8158 -1.1836
  214MOL    H3726023   3.487   4.477   1.205  1.0073 -0.3951 -0.9117
  214MOL    C3826024   3.578   4.318   1.114 -0.4213 -0.0419  0.1861
  214MOL    C3926025   3.710   4.403   1.087  0.5765 -0.3824 -0.3459
  214MOL   Cl4026026   3.816   4.290   1.007  0.0604  0.0794  0.4800
  214MOL    H4126027   3.566   4.249   1.030 -0.1310 -2.8318  2.3527
  214MOL    H4226028   3.597   4.265   1.207  0.5026  2.2750  1.3384
  214MOL    H4326029   3.692   4.484   1.016  0.4639  0.0460  0.1717
  214MOL    C4426030   3.777   4.450   1.221  0.2286  0.1834  0.4876
  214MOL    C4526031   3.928   4.489   1.216  0.0539  0.1150  1.0055
  214MOL   Cl4626032   3.988   4.528   1.379  0.2728  0.2287  0.0268
  214MOL    H4726033   3.772   4.370   1.295 -1.1019  0.5734  0.8284
  214MOL    H4826034   3.720   4.530   1.267  0.4065  1.7118 -1.9022
  214MOL    H4926035   3.987   4.403   1.185 -0.1076  0.2832  0.2382
  214MOL    C5026036   3.949   4.608   1.127 -0.4961  0.7993  0.8593
  214MOL    C5126037   4.095   4.667   1.134  0.1967  0.3353 -0.4799
  214MOL   Cl5226038   4.088   4.822   1.042  0.1386 -0.0858 -0.0223
  214MOL    H5326039   3.867   4.679   1.142 -1.8026 -0.0107 -2.0629
  214MOL    H5426040   3.930   4.559   1.032  0.8262 -0.6458  1.3188
  214MOL    H5526041   4.113   4.694   1.238 -0.9644 -1.3613  0.1965
  214MOL    C5626042   4.195   4.562   1.087  0.5535 -0.1787  0.5042
  214MOL    C5726043   4.343   4.603   1.126 -0.8550 -0.8966  0.3448
  214MOL   Cl5826044   4.357   4.600   1.304 -0.3682 -0.3465 -0.1858
  214MOL    H5926045   4.176   4.559   0.980  0.3837  0.2068  0.5236
  214MOL    H6026046   4.178   4.459   1.118 -0.0137 -0.5605 -1.0408
  214MOL    H6126047   4.403   4.522   1.084 -0.5398 -0.3996 -0.1750
  214MOL    C6226048   4.395   4.735   1.073  0.3316 -0.2722 -0.0225
  214MOL    C6326049   4.547   4.757   1.069  0.2541  0.6042  0.3404
  214MOL   Cl6426050   4.590   4.932   1.079 -0.4704 -0.4568 -0.2140
  214MOL    H6526051   4.351   4.812   1.135 -0.3744  0.6092 -1.5851
  214MOL    H6626052   4.358   4.743   0.971  1.3728 -2.2020 -0.5826
  214MOL    H6726053   4.591   4.707   1.155  0.2148  0.2179  0.1408
  214MOL    C6826054   4.615   4.696   0.936  0.0830 -0.5893 -0.2389
  214MOL    C6926055   4.763   4.668   0.948 -0.2028 -0.8363  0.3389
  214MOL   Cl7026056   4.790   4.544   1.074  0.1502  0.2231  0.1579
  214MOL    H7126057   4.594   4.767   0.855  1.9167 -1.0375 -1.1278
  214MOL    H7226058   4.560   4.604   0.918  1.2804 -1.3002 -0.2658
  214MOL    H7326059   4.796   4.621   0.855  0.6024  0.7251 -0.1820
  214MOL    C7426060   4.866   4.787   0.973 -0.2704 -0.8017  0.6333
  214MOL    C7526061   4.864   4.889   0.859 -0.3617 -0.3641 -0.1215
  214MOL   Cl7626062   4.920   4.810   0.708 -0.1665  0.1216  0.3602
  214MOL    H7726063   4.969   4.754   0.990  0.5484  1.4405  0.2375
  214MOL    H7826064   4.840   4.840   1.064 -2.7400  0.2084 -0.5964
  214MOL    H7926065   4.766   4.926   0.831 -0.7187 -1.2961 -0.1422
  214MOL    C8026066   4.952   5.006   0.904  0.6688  0.2605 -0.0386
  214MOL    C8126067   4.879   5.124   0.966  0.4424 -0.2930  0.4283
  214MOL   Cl8226068   4.765   5.201   0.849 -0.3121 -0.2253  0.0645
  214MOL    H8326069   4.990   5.040   0.808  0.2545 -0.1938 -0.3667
  214MOL    H8426070   5.040   4.978   0.962  0.1253  0.0140  0.6776
  214MOL    H8526071   4.815   5.095   1.050 -0.0014 -0.0859  0.1670
  214MOL    C8626072   4.985   5.232   1.015  0.1438  0.1104  0.1886
  214MOL    C8726073   4.935   5.343   1.103 -0.5863  0.3626  0.3223
  214MOL   Cl8826074   5.061   5.468   1.129  0.4196 -0.2117  0.4966
  214MOL    H8926075   5.036   5.275   0.929  0.1054  0.5135  0.3681
  214MOL    H9026076   5.066   5.187   1.073  1.3201  0.0533 -1.4920
  214MOL    H9126077   4.860   5.395   1.043 -0.1278  0.8689  0.1792
  214MOL    C9226078   4.875   5.304   1.232  0.3866  0.3016 -1.1006
  214MOL    C9326079   4.964   5.223   1.325  0.2516  0.7422  0.0041
  214MOL   Cl9426080   4.944   5.049   1.278 -0.2318 -0.0007  0.1982
  214MOL    H9526081   4.777   5.258   1.222 -0.5506  2.1563 -0.5778
  214MOL    H9626082   4.844   5.396   1.280  0.5750  0.2881 -0.9488
  214MOL    H9726083   5.067   5.252   1.301  0.0626  0.6425 -0.9337
  214MOL    C9826084   4.930   5.250   1.478 -0.3708  0.1290 -0.0156
  214MOL    C9926085   5.012   5.177   1.590  0.3681  0.7389  0.0553
  214MOL  Cl10026086   5.184   5.216   1.569 -0.0244 -0.1608 -0.2622
  214MOL   H10126087   4.822   5.250   1.493 -0.1379 -1.7019  1.9315
  214MOL   H10226088   4.954   5.356   1.492 -0.0713  0.1683 -0.8239
  214MOL   H10326089   4.996   5.227   1.685  0.2301 -1.0505  0.9942
  214MOL   C10426090   4.983   5.022   1.598 -0.1593 -0.4572  0.2581
  214MOL   C10526091   4.834   4.986   1.624 -0.5690  0.3328 -0.1461
  214MOL  Cl10626092   4.746   5.059   1.769 -0.1401 -0.1159  0.0863
  214MOL   H10726093   5.038   4.987   1.685  0.8286 -1.4205 -0.7383
  214MOL   H10826094   5.024   4.973   1.510  0.1576  0.8891 -0.3595
  214MOL   H10926095   4.782   5.021   1.535 -1.1182  0.8013  0.3583
  214MOL   C11026096   4.818   4.831   1.649  0.2075  0.6614  0.4123
  214MOL   C11126097   4.870   4.732   1.538  0.1825 -0.0231  0.7492
  214MOL  Cl11226098   4.774   4.749   1.389  0.1537 -0.0496 -0.0158
  214MOL   H11326099   4.714   4.807   1.670  0.8294 -2.1855  0.4514
  214MOL   H11426100   4.869   4.813   1.744  0.4505 -0.3347  0.0932
  214MOL   H11526101   4.975   4.751   1.516  0.0988 -0.1796  0.2134
  214MOL   C11626102   4.859   4.583   1.578  0.2161 -0.7962 -0.6317
  214MOL   C11726103   4.720   4.526   1.597  0.3785 -0.2957 -0.2227
  214MOL  Cl11826104   4.724   4.384   1.712  0.4562 -0.2892 -0.5352
  214MOL   H11926105   4.911   4.573   1.673 -2.2395 -0.4705  0.7830
  214MOL   H12026106   4.913   4.524   1.504  2.0355 -1.6044  1.3101
  214MOL   H12126107   4.651   4.596   1.643  0.0436  1.4518 -3.2184
  214MOL   H12226108   4.672   4.493   1.505 -1.9776 -2.0793  1.6057
  215MOL     C126109   3.329   1.642   7.407  0.1927  0.6733 -0.7518
  215MOL     C226110   3.378   1.722   7.288  0.3573 -0.4839  0.6169
  215MOL    Cl326111   3.337   1.615   7.148  0.0127  0.0012 -0.1874
  215MOL     H426112   3.306   1.698   7.498  0.8275  0.1215 -0.2471
  215MOL     H526113   3.231   1.601   7.380  0.1353 -0.5470  1.1715
  215MOL     H626114   3.324   1.817   7.279  1.9736  0.2038 -2.4199
  215MOL     H726115   3.389   1.554   7.431  0.4989  0.8712 -0.7930
  215MOL     C826116   3.526   1.746   7.289 -0.3830  0.9270 -0.0029
  215MOL     C926117   3.587   1.828   7.166  0.1346 -0.7268  0.6799
  215MOL   Cl1026118   3.770   1.822   7.185 -0.1049  0.0635  0.2853
  215MOL    H1126119   3.580   1.652   7.303  0.6566  1.2228 -1.8794
  215MOL    H1226120   3.549   1.797   7.383  0.8645 -0.9068  0.7292
  215MOL    H1326121   3.556   1.777   7.076  3.1602  1.4303 -1.6844
  215MOL    C1426122   3.540   1.972   7.148  0.2423 -0.5128 -0.6076
  215MOL    C1526123   3.583   2.035   7.017  0.1598  0.9675 -0.2453
  215MOL   Cl1626124   3.533   2.210   7.032 -0.0042 -0.2859  0.1395
  215MOL    H1726125   3.579   2.035   7.228 -0.0997 -1.1574  0.0643
  215MOL    H1826126   3.432   1.974   7.153  0.1308  1.5710 -2.7211
  215MOL    H1926127   3.688   2.047   6.988  0.9193 -0.9031  1.5718
  215MOL    C2026128   3.518   1.968   6.893  0.3946 -0.1910  0.5421
  215MOL    C2126129   3.522   2.060   6.767  0.8027 -0.0346  0.1382
  215MOL   Cl2226130   3.439   1.969   6.637  0.0943  0.2134  0.5526
  215MOL    H2326131   3.416   1.944   6.926  0.6203  1.0735  2.2014
  215MOL    H2426132   3.566   1.874   6.865  0.5981 -0.5369  1.9908
  215MOL    H2526133   3.491   2.163   6.778 -0.0168 -0.0719 -1.6402
  215MOL    C2626134   3.668   2.069   6.709 -0.8471  0.3721 -0.4442
  215MOL    C2726135   3.674   2.130   6.566 -0.1274  0.3035 -0.5142
  215MOL   Cl2826136   3.843   2.141   6.509  0.0783 -0.3630  0.2664
  215MOL    H2926137   3.710   1.968   6.700  0.1519  0.4904  2.1778
  215MOL    H3026138   3.735   2.129   6.771 -0.2539 -0.4697 -0.2493
  215MOL    H3126139   3.627   2.061   6.495 -1.9826  1.9859 -0.9559
  215MOL    C3226140   3.610   2.268   6.557  0.2396  0.2210  0.2497
  215MOL    C3326141   3.617   2.337   6.418 -0.2264  0.1343  0.6608
  215MOL   Cl3426142   3.514   2.483   6.435  0.1269  0.3444  0.2408
  215MOL    H3526143   3.659   2.333   6.630 -1.7798  0.0750  1.7942
  215MOL    H3626144   3.505   2.256   6.584 -0.0287  0.8648 -0.4563
  215MOL    H3726145   3.718   2.364   6.388  0.1299 -2.2474 -0.4053
  215MOL    C3826146   3.561   2.256   6.293 -0.1822 -0.5436 -0.1469
  215MOL    C3926147   3.559   2.328   6.158 -0.3188  0.3694 -0.3664
  215MOL   Cl4026148   3.483   2.215   6.044 -0.1651 -0.1603 -0.1384
  215MOL    H4126149   3.466   2.210   6.318 -0.5137  1.0470  1.6566
  215MOL    H4226150   3.620   2.166   6.275 -0.5017 -0.3314 -2.4509
  215MOL    H4326151   3.496   2.417   6.169 -4.8284 -2.4916 -1.5351
  215MOL    C4426152   3.703   2.365   6.109 -0.9079 -0.5646 -0.3544
  215MOL    C4526153   3.716   2.441   5.982  0.0120  0.4865 -0.5837
  215MOL   Cl4626154   3.672   2.347   5.835  0.2300  0.2037 -0.0646
  215MOL    H4726155   3.754   2.271   6.087 -1.0836 -0.5753 -0.7204
  215MOL    H4826156   3.770   2.413   6.180  0.6336  1.5680 -3.1771
  215MOL    H4926157   3.648   2.527   5.981 -0.6506 -0.0282 -1.6925
  215MOL    C5026158   3.866   2.485   5.968 -0.2395 -0.3581 -0.6915
  215MOL    C5126159   3.903   2.620   6.042 -0.1932 -0.0162 -0.0325
  215MOL   Cl5226160   3.793   2.751   5.974  0.3353  0.0012 -0.2033
  215MOL    H5326161   3.877   2.510   5.862 -1.5266 -1.4245 -1.0880
  215MOL    H5426162   3.936   2.407   5.997  0.6111  0.6198 -0.1008
  215MOL    H5526163   3.891   2.616   6.150  1.9775  1.8577  0.3264
  215MOL    C5626164   4.048   2.665   6.037  0.2956 -0.4029 -1.1190
  215MOL    C5726165   4.080   2.792   6.121 -0.2610  0.8923  0.7495
  215MOL   Cl5826166   4.223   2.872   6.050  0.1031  0.1309 -0.1014
  215MOL    H5926167   4.062   2.696   5.933  1.6002  1.1836 -0.4934
  215MOL    H6026168   4.118   2.586   6.064  2.8046  1.8800 -0.7736
  215MOL    H6126169   3.994   2.859   6.114 -0.3817  0.5802 -1.0437
  215MOL    C6226170   4.105   2.770   6.270  0.0756  0.4449 -0.2564
  215MOL    C6326171   4.140   2.895   6.357  0.1867  0.2180  0.5443
  215MOL   Cl6426172   4.222   2.846   6.508 -0.1140 -0.1873  0.0144
  215MOL    H6526173   4.190   2.703   6.281 -1.5367 -1.5169  0.5408
  215MOL    H6626174   4.019   2.710   6.299  0.1879 -0.3598 -1.5381
  215MOL    H6726175   4.200   2.969   6.303  0.6123  0.6018  1.5413
  215MOL    C6826176   4.011   2.971   6.391  0.1087  0.2691 -0.0339
  215MOL    C6926177   4.018   3.096   6.479 -0.5846  0.1493 -0.3605
  215MOL   Cl7026178   3.853   3.140   6.519 -0.1085 -0.1975 -0.1988
  215MOL    H7126179   3.953   2.904   6.455  2.6966 -2.8873 -0.8701
  215MOL    H7226180   3.945   2.975   6.304 -1.3609 -3.3632  0.8103
  215MOL    H7326181   4.069   3.071   6.572 -1.6533 -2.3575 -0.4227
  215MOL    C7426182   4.106   3.201   6.420  0.3745 -0.6316 -0.1947
  215MOL    C7526183   4.051   3.282   6.300  0.1177  0.6378 -0.4597
  215MOL   Cl7626184   4.042   3.188   6.150  0.0744 -0.0731  0.1529
  215MOL    H7726185   4.207   3.169   6.393  0.1931 -0.5260 -0.9970
  215MOL    H7826186   4.120   3.275   6.500 -0.5272  1.6834 -2.1290
  215MOL    H7926187   3.947   3.305   6.320  0.6119  1.1991  1.6712
  215MOL    C8026188   4.137   3.410   6.281 -0.0905  0.0398 -0.0198
  215MOL    C8126189   4.091   3.516   6.182 -0.4744 -0.2307  0.2663
  215MOL   Cl8226190   4.213   3.639   6.174  0.1623 -0.0551  0.2153
  215MOL    H8326191   4.230   3.373   6.236  1.0446 -1.2522  3.2515
  215MOL    H8426192   4.162   3.446   6.381  2.0966  0.1184 -0.5518
  215MOL    H8526193   4.069   3.472   6.085 -1.9982  0.4931  0.2641
  215MOL    C8626194   3.956   3.584   6.218  0.2586 -0.0377  0.1481
  215MOL    C8726195   3.945   3.661   6.350  0.7772  0.2827 -0.1553
  215MOL   Cl8826196   3.928   3.547   6.488 -0.0445 -0.2060  0.0324
  215MOL    H8926197   3.878   3.508   6.214  0.2121 -0.0648  1.4296
  215MOL    H9026198   3.939   3.650   6.133 -1.3356 -1.3034 -0.5339
  215MOL    H9126199   4.021   3.737   6.366  0.8219 -0.1631  1.8184
  215MOL    C9226200   3.810   3.737   6.360  0.1174  0.2294 -0.5311
  215MOL    C9326201   3.793   3.835   6.485  1.1131 -0.0113 -0.1186
  215MOL   Cl9426202   3.621   3.883   6.490  0.0222 -0.1438 -0.2679
  215MOL    H9526203   3.729   3.665   6.361  0.0683  0.2765  0.6583
  215MOL    H9626204   3.802   3.794   6.268 -1.5400  0.1191 -0.4642
  215MOL    H9726205   3.820   3.781   6.576 -0.5053  2.1222  1.6764
  215MOL    C9826206   3.879   3.960   6.475 -0.3527 -0.9161  0.2397
  215MOL    C9926207   3.846   4.075   6.570 -0.9588  0.2645 -0.4105
  215MOL  Cl10026208   3.961   4.209   6.528 -0.3999  0.4571  0.5891
  215MOL   H10126209   3.871   4.000   6.373  1.4651 -2.0348 -0.3643
  215MOL   H10226210   3.986   3.938   6.480 -0.4567 -1.8571 -1.2042
  215MOL   H10326211   3.749   4.120   6.552 -1.3352 -0.4544 -0.1911
  215MOL   C10426212   3.853   4.044   6.722 -0.3121 -0.2907  0.5763
  215MOL   C10526213   3.775   4.156   6.809  0.1229 -0.0403 -0.1345
  215MOL  Cl10626214   3.605   4.162   6.772  0.1173 -0.3805  0.5219
  215MOL   H10726215   3.960   4.047   6.744  0.2469  1.5698 -2.2090
  215MOL   H10826216   3.809   3.945   6.736  0.9694 -0.8602  0.6942
  215MOL   H10926217   3.787   4.108   6.906 -1.0338 -0.4199 -0.1687
  215MOL   C11026218   3.830   4.299   6.810 -0.2569  0.7476  0.0149
  215MOL   C11126219   3.969   4.316   6.869 -0.1849  0.2733 -0.7952
  215MOL  Cl11226220   3.957   4.305   7.048 -0.4560 -0.0178  0.2868
  215MOL   H11326221   3.771   4.372   6.866  0.0373  1.1063 -0.1369
  215MOL   H11426222   3.822   4.335   6.707 -2.9133 -0.3268 -0.1932
  215MOL   H11526223   4.025   4.231   6.832  1.1446  0.2170  1.2866
  215MOL   C11626224   4.042   4.449   6.826 -0.0303 -0.7786 -0.0731
  215MOL   C11726225   3.963   4.573   6.878  0.1810  0.0996 -0.2717
  215MOL  Cl11826226   4.068   4.720   6.861 -0.0154  0.0648  0.0983
  215MOL   H11926227   4.068   4.472   6.722  0.9019  0.3684  0.4087
  215MOL   H12026228   4.139   4.436   6.872 -0.1959 -1.8116  0.0104
  215MOL   H12126229   3.876   4.594   6.815 -1.8844 -2.0541  1.7331
  215MOL   H12226230   3.942   4.565   6.985 -2.9930 -4.5961 -1.0775
  216MOL     C126231   5.259   1.185   3.958  0.2841  0.1466  0.3774
  216MOL     C226232   5.255   1.054   4.037 -0.2651 -0.1103  0.4251
  216MOL    Cl326233   5.335   0.927   3.946 -0.1440 -0.1344  0.1632
  216MOL     H426234   5.224   1.251   4.038  1.2485  0.2444  0.7246
  216MOL     H526235   5.358   1.223   3.934  0.7804 -0.9174  0.7194
  216MOL     H626236   5.314   1.052   4.128  1.0406 -1.5724 -0.4308
  216MOL     H726237   5.194   1.183   3.871  1.1188 -0.9078 -0.2301
  216MOL     C826238   5.115   1.013   4.075  0.7291  0.1080 -0.3633
  216MOL     C926239   5.096   0.870   4.134 -0.0182 -0.4574 -0.3288
  216MOL   Cl1026240   4.919   0.841   4.151  0.2352  0.5979  0.3467
  216MOL    H1126241   5.046   1.020   3.991 -0.9910  1.2620  1.0866
  216MOL    H1226242   5.076   1.080   4.152  2.1780  1.5093 -0.8118
  216MOL    H1326243   5.128   0.801   4.056 -0.4335  0.1207 -1.0245
  216MOL    C1426244   5.167   0.849   4.268  0.1054  0.0506  0.1873
  216MOL    C1526245   5.144   0.709   4.330  0.2272 -0.0922  0.2835
  216MOL   Cl1626246   5.214   0.707   4.495 -0.3175 -0.1691 -0.2215
  216MOL    H1726247   5.142   0.928   4.338 -1.2090 -0.5863  0.4598
  216MOL    H1826248   5.274   0.865   4.260  0.1533 -0.3979 -0.1178
  216MOL    H1926249   5.037   0.697   4.341  0.2247 -0.1694  0.1802
  216MOL    C2026250   5.192   0.584   4.259  0.7235  0.1965  0.1779
  216MOL    C2126251   5.138   0.447   4.311  0.1266  0.2203  0.1129
  216MOL   Cl2226252   5.234   0.316   4.231  0.1469 -0.1971 -0.0909
  216MOL    H2326253   5.301   0.581   4.258  0.7572  1.2939 -0.4025
  216MOL    H2426254   5.165   0.618   4.159  1.5521  1.4721  0.3768
  216MOL    H2526255   5.163   0.450   4.417  1.4536 -3.2375 -0.0519
  216MOL    C2626256   4.990   0.427   4.281  0.4039 -0.4886 -0.5569
  216MOL    C2726257   4.915   0.289   4.313 -0.0459 -0.3456  0.0064
  216MOL   Cl2826258   4.937   0.259   4.493 -0.2434 -0.5415 -0.0493
  216MOL    H2926259   4.970   0.436   4.174 -1.7951  2.1047  0.0346
  216MOL    H3026260   4.928   0.498   4.336  0.9574  0.0844 -0.6544
  216MOL    H3126261   4.811   0.313   4.292  0.1236  0.1507 -0.2859
  216MOL    C3226262   4.943   0.166   4.219 -0.0206 -0.4258 -0.1300
  216MOL    C3326263   4.838   0.059   4.206 -0.0328 -0.6773 -0.0136
  216MOL   Cl3426264   4.702   0.126   4.108 -0.3740 -0.3612  0.2677
  216MOL    H3526265   5.039   0.122   4.245  0.8621  0.1256 -2.3329
  216MOL    H3626266   4.960   0.211   4.121 -0.6721 -2.0325 -0.9986
  216MOL    H3726267   4.870   8.501   4.144 -1.9560  0.4721 -2.6070
  216MOL    C3826268   4.797   0.001   4.341 -0.2459  0.3889 -0.3249
  216MOL    C3926269   4.909   8.454   4.419  0.9622  0.3194 -0.7181
  216MOL   Cl4026270   4.975   8.323   4.322 -0.1252  0.0614 -0.0356
  216MOL    H4126271   4.719   8.459   4.306 -0.4074  2.2221 -3.6836
  216MOL    H4226272   4.742   0.069   4.406 -0.3222  0.6203 -0.6341
  216MOL    H4326273   4.983   0.003   4.449  0.5570 -0.5182  2.5786
  216MOL    C4426274   4.848   8.397   4.548 -0.4706 -0.7662  0.3673
  216MOL    C4526275   4.948   8.326   4.644  0.0476 -0.1045  0.0301
  216MOL   Cl4626276   4.866   8.271   4.788 -0.1465  0.3075 -0.1559
  216MOL    H4726277   4.759   8.336   4.532 -3.0529  2.9128  0.0594
  216MOL    H4826278   4.812   8.482   4.605  1.8992  0.4797  0.0932
  216MOL    H4926279   4.995   8.243   4.592  0.2166 -0.1536  0.2634
  216MOL    C5026280   5.053   8.435   4.699 -0.0394  0.5384  0.5064
  216MOL    C5126281   5.199   8.402   4.666 -0.6314 -0.0239 -0.0234
  216MOL   Cl5226282   5.232   8.241   4.735  0.5325  0.3963  0.3295
  216MOL    H5326283   5.050   8.440   4.808  0.1265 -1.0525  0.5945
  216MOL    H5426284   5.025   0.010   4.665 -0.0244  0.1503 -0.6995
  216MOL    H5526285   5.214   8.394   4.558  1.7246 -0.7392  0.3352
  216MOL    C5626286   5.301   8.499   4.722  0.0676 -0.1754  0.1161
  216MOL    C5726287   5.295   0.119   4.687 -0.3904 -0.4556 -0.5137
  216MOL   Cl5826288   5.366   0.142   4.524  0.1995 -0.1581 -0.1863
  216MOL    H5926289   5.398   8.451   4.704 -0.5346 -1.5088  0.3654
  216MOL    H6026290   5.298   8.498   4.831  1.6088  1.8517  0.2044
  216MOL    H6126291   5.193   0.156   4.677  0.2212  1.1541 -0.8619
  216MOL    C6226292   5.361   0.219   4.788  0.8910 -0.2051  0.2774
  216MOL    C6326293   5.336   0.367   4.751  0.5820 -0.0245 -0.5232
  216MOL   Cl6426294   5.423   0.474   4.869 -0.0008 -0.4097  0.4314
  216MOL    H6526295   5.467   0.194   4.797  0.3277 -2.7285  0.2868
  216MOL    H6626296   5.331   0.219   4.893 -0.9212 -0.8799 -0.2330
  216MOL    H6726297   5.381   0.389   4.655 -1.2015  1.5498 -1.0225
  216MOL    C6826298   5.188   0.418   4.744  0.5905 -0.2429 -0.5383
  216MOL    C6926299   5.101   0.420   4.866 -0.1780  0.1963 -0.5323
  216MOL   Cl7026300   5.070   0.255   4.937  0.5207 -0.1728  0.1448
  216MOL    H7126301   5.148   0.359   4.662  1.2010 -3.8621  1.6391
  216MOL    H7226302   5.189   0.518   4.702 -1.0572  0.0302  0.0515
  216MOL    H7326303   5.149   0.467   4.952 -1.8742  0.5286  0.2568
  216MOL    C7426304   4.967   0.481   4.829  0.6279 -0.6546  0.2179
  216MOL    C7526305   4.975   0.638   4.827 -0.0615  0.2383 -0.3375
  216MOL   Cl7626306   5.049   0.691   4.983  0.3944 -0.0653  0.0855
  216MOL    H7726307   4.886   0.454   4.897  0.4456  2.2481  1.2281
  216MOL    H7826308   4.936   0.437   4.734 -0.6743 -1.7554  1.1394
  216MOL    H7926309   5.045   0.677   4.753  0.3903  0.3657  0.1510
  216MOL    C8026310   4.830   0.710   4.821 -0.1726  0.1860  0.4607
  216MOL    C8126311   4.734   0.655   4.711 -0.2748 -0.3211  0.3797
  216MOL   Cl8226312   4.829   0.641   4.557  0.1055  0.0148  0.2453
  216MOL    H8326313   4.845   0.814   4.791 -1.8517  0.3786  0.2619
  216MOL    H8426314   4.782   0.723   4.918 -1.1772  5.4172 -0.5864
  216MOL    H8526315   4.706   0.556   4.746 -0.2785  0.2926  2.1385
  216MOL    C8626316   4.616   0.751   4.689 -0.3685 -0.1902  0.3623
  216MOL    C8726317   4.519   0.699   4.582  0.2328  0.1679 -0.1297
  216MOL   Cl8826318   4.401   0.826   4.541 -0.3758 -0.1445  0.4033
  216MOL    H8926319   4.646   0.854   4.669  0.1392  0.0996  2.5405
  216MOL    H9026320   4.568   0.757   4.787  1.1594  0.2705  1.0881
  216MOL    H9126321   4.571   0.673   4.491  0.1243 -4.0898  0.8886
  216MOL    C9226322   4.430   0.587   4.620  0.4160  0.0023  1.1021
  216MOL    C9326323   4.428   0.460   4.530 -0.5011  0.6209 -0.4469
  216MOL   Cl9426324   4.567   0.354   4.535 -0.3968 -0.5914 -0.2923
  216MOL    H9526325   4.328   0.621   4.637  1.3145  2.3235  2.0041
  216MOL    H9626326   4.450   0.562   4.725 -0.0870  1.7657  1.6262
  216MOL    H9726327   4.347   0.398   4.568  0.7136 -1.1282 -0.6898
  216MOL    C9826328   4.387   0.487   4.383 -0.2635 -0.0072 -0.6030
  216MOL    C9926329   4.247   0.559   4.366  0.3895 -0.4273  0.2564
  216MOL  Cl10026330   4.128   0.450   4.431  0.1537  0.1904  0.0480
  216MOL   H10126331   4.389   0.395   4.325 -0.5180 -0.2521 -0.2310
  216MOL   H10226332   4.466   0.551   4.344 -1.4149  2.7516  1.4391
  216MOL   H10326333   4.235   0.658   4.411  0.1452  1.3898 -3.6066
  216MOL   C10426334   4.225   0.586   4.214 -0.1325 -0.7733  0.0467
  216MOL   C10526335   4.103   0.670   4.174 -0.3629 -0.2605 -0.0887
  216MOL  Cl10626336   4.129   0.840   4.243  0.0124  0.1142  0.2478
  216MOL   H10726337   4.217   0.488   4.166 -2.1430 -1.0802  0.9660
  216MOL   H10826338   4.315   0.631   4.172 -0.0050 -1.0856 -0.0170
  216MOL   H10926339   4.095   0.676   4.065 -0.1506  0.4315 -0.0681
  216MOL   C11026340   3.969   0.616   4.227  0.2268  0.0531  0.4684
  216MOL   C11126341   3.850   0.702   4.184 -0.0318 -0.6825 -0.1498
  216MOL  Cl11226342   3.701   0.637   4.261 -0.0225 -0.3441 -0.4880
  216MOL   H11326343   3.962   0.615   4.336 -1.0431 -1.9548  0.4081
  216MOL   H11426344   3.938   0.518   4.190 -0.5064 -0.0674  1.3661
  216MOL   H11526345   3.860   0.803   4.221  0.5203 -1.0591  0.7513
  216MOL   C11626346   3.821   0.711   4.026  0.2234 -0.6193  0.3794
  216MOL   C11726347   3.684   0.774   3.987 -0.5238 -0.1083  0.2481
  216MOL  Cl11826348   3.664   0.939   4.053  0.0968  0.2127 -0.1961
  216MOL   H11926349   3.832   0.617   3.971  0.5825 -1.6109  2.1067
  216MOL   H12026350   3.905   0.762   3.979  0.6351  0.1530  1.9196
  216MOL   H12126351   3.676   0.801   3.882  3.9735  0.1132 -0.1360
  216MOL   H12226352   3.597   0.712   4.011  0.0682 -0.6928  0.8919
  217MOL     C126353   5.352   0.907   4.919  0.0553 -0.6119 -0.5509
  217MOL     C226354   5.432   0.947   5.044 -0.3950 -0.1688  0.2942
  217MOL    Cl326355   5.298   1.008   5.153  0.0979  0.0164  0.0731
  217MOL     H426356   5.421   0.866   4.845  0.6871 -2.1748  0.8682
  217MOL     H526357   5.282   0.826   4.936  2.1152 -2.6209 -1.2619
  217MOL     H626358   5.486   0.862   5.087  1.2226  0.7128  0.0418
  217MOL     H726359   5.317   0.997   4.868  0.5800 -0.3335 -0.4261
  217MOL     C826360   5.523   1.074   5.016 -0.0942 -0.0525 -0.2307
  217MOL     C926361   5.595   1.127   5.137 -0.0486 -0.8251 -0.0344
  217MOL   Cl1026362   5.489   1.242   5.215  0.4109  0.0531 -0.2146
  217MOL    H1126363   5.468   1.149   4.959 -0.0721  0.8144  0.8792
  217MOL    H1226364   5.601   1.024   4.958 -1.5179 -0.0785 -2.1919
  217MOL    H1326365   5.616   1.048   5.209 -0.4888 -0.3656  0.6090
  217MOL    C1426366   5.726   1.196   5.102  0.3942 -0.2418  0.5397
  217MOL    C1526367   5.850   1.105   5.082  0.4938 -0.2259 -0.1373
  217MOL   Cl1626368   5.886   1.030   5.244 -0.0236  0.4876 -0.0057
  217MOL    H1726369   5.735   1.285   5.164  0.7172  0.3449 -0.3431
  217MOL    H1826370   5.726   1.245   5.005 -1.6019  0.3000  0.7989
  217MOL    H1926371   5.809   1.030   5.014  0.9623 -0.5701 -0.0499
  217MOL    C2026372   5.971   1.166   5.009 -0.0712 -0.6863 -0.2885
  217MOL    C2126373   6.092   1.076   4.963 -0.3407 -0.0523 -0.3918
  217MOL   Cl2226374   6.217   1.188   4.905  0.0433 -0.1440  0.4842
  217MOL    H2326375   6.010   1.247   5.069 -0.1587  1.5344 -3.1211
  217MOL    H2426376   5.926   1.214   4.922  0.6968 -1.8130 -1.3415
  217MOL    H2526377   6.133   1.025   5.050  1.5813  0.9123 -0.7005
  217MOL    C2626378   6.048   0.976   4.869 -0.0736 -0.2546 -0.3587
  217MOL    C2726379   6.147   0.874   4.808 -0.1918  0.4633  0.3924
  217MOL   Cl2826380   6.090   0.811   4.653  0.2223 -0.3320 -0.2584
  217MOL    H2926381   6.009   1.025   4.780  2.3983 -0.3448 -1.5549
  217MOL    H3026382   5.970   0.910   4.908 -0.4538 -0.5590 -1.6022
  217MOL    H3126383   6.233   0.936   4.781 -0.0143  0.3069  0.5964
  217MOL    C3226384   6.196   0.759   4.897 -0.0226 -0.1106  0.1601
  217MOL    C3326385   6.077   0.660   4.943 -0.0558 -0.1685  0.8495
  217MOL   Cl3426386   6.021   0.727   5.099  0.0562  0.3442  0.3699
  217MOL    H3526387   6.243   0.811   4.981  1.8273  0.6037 -1.2862
  217MOL    H3626388   6.275   0.716   4.835 -0.4488 -1.9167  0.8384
  217MOL    H3726389   6.002   0.674   4.865  0.1839  2.2064  0.9969
  217MOL    C3826390   6.114   0.515   4.971  0.0008 -0.4372 -0.5448
  217MOL    C3926391   6.141   0.428   4.843 -0.1964 -0.4428  0.0550
  217MOL   Cl4026392   5.992   0.418   4.756  0.3515  0.4623  0.4446
  217MOL    H4126393   6.040   0.453   5.023  1.5964 -0.7813  1.3577
  217MOL    H4226394   6.198   0.519   5.039  0.4502  1.8629 -1.1913
  217MOL    H4326395   6.211   0.485   4.781 -0.9461  1.4670  0.9336
  217MOL    C4426396   6.196   0.290   4.869 -0.0001  0.4119 -0.7042
  217MOL    C4526397   6.220   0.205   4.743  0.2191  0.5540  0.0688
  217MOL   Cl4626398   6.061   0.120   4.713 -0.1872 -0.0248  0.1353
  217MOL    H4726399   6.135   0.242   4.945 -3.1913  0.7862 -2.9420
  217MOL    H4826400   6.293   0.302   4.917 -0.6557  0.5449  0.6212
  217MOL    H4926401   6.251   0.268   4.660  1.2912  0.8869  0.7273
  217MOL    C5026402   6.328   0.095   4.769 -0.0031  0.0699 -0.1859
  217MOL    C5126403   6.336   8.515   4.654  0.6371 -0.2111 -0.1791
  217MOL   Cl5226404   6.412   8.364   4.706 -0.3546  0.0867 -0.0703
  217MOL    H5326405   6.308   0.036   4.859  1.3674 -1.6034 -0.9447
  217MOL    H5426406   6.428   0.131   4.796  0.3834 -0.8190 -0.3932
  217MOL    H5526407   6.244   8.480   4.608  0.7417 -0.5252 -0.1513
  217MOL    C5626408   6.410   0.055   4.536 -0.8475 -0.4304  0.5886
  217MOL    C5726409   6.454   8.483   4.427 -1.0750 -0.9870  0.0050
  217MOL   Cl5826410   6.568   0.052   4.317 -0.1051  0.1678 -0.2577
  217MOL    H5926411   6.501   0.086   4.585 -1.8789  2.5995  0.6575
  217MOL    H6026412   6.360   0.143   4.495  1.8310 -0.0034 -1.9039
  217MOL    H6126413   6.512   8.400   4.466 -0.3763 -1.0909 -1.2023
  217MOL    C6226414   6.331   8.449   4.340 -0.2143  0.1124 -0.6530
  217MOL    C6326415   6.361   8.353   4.220 -0.3666 -0.0147 -0.0199
  217MOL   Cl6426416   6.207   8.351   4.129  0.0692  0.5798  0.0417
  217MOL    H6526417   6.282   0.013   4.302  0.3899  1.4284  1.5340
  217MOL    H6626418   6.252   8.404   4.400 -0.4804  1.4558  0.0158
  217MOL    H6726419   6.436   8.397   4.154 -1.2619 -0.2117 -1.1832
  217MOL    C6826420   6.400   8.208   4.249 -0.5782  0.5074 -1.5584
  217MOL    C6926421   6.490   8.144   4.142  0.4976  0.0499  0.0503
  217MOL   Cl7026422   6.393   8.115   3.992  0.0112 -0.2245 -0.1790
  217MOL    H7126423   6.314   8.144   4.266 -0.9402  1.0596 -1.3035
  217MOL    H7226424   6.455   8.210   4.343 -1.1868 -1.2428 -1.1413
  217MOL    H7326425   6.575   8.208   4.118  0.8144 -0.4917 -0.2888
  217MOL    C7426426   6.549   8.005   4.178 -0.2381  0.2683 -0.5146
  217MOL    C7526427   6.646   7.996   4.306 -0.1529 -0.1813  0.5148
  217MOL   Cl7626428   6.777   8.123   4.295 -0.2368  0.1141 -0.6005
  217MOL    H7726429   6.604   7.965   4.094 -2.7188 -1.3258 -1.4477
  217MOL    H7826430   6.467   7.935   4.194 -1.2083  1.6376  0.6566
  217MOL    H7926431   6.592   8.007   4.400  0.0205 -0.0798  0.6020
  217MOL    C8026432   6.723   7.868   4.314  0.9764  0.0279 -0.4184
  217MOL    C8126433   6.632   7.743   4.335 -0.2703 -1.1088  0.2457
  217MOL   Cl8226434   6.529   7.773   4.472 -0.0838 -0.0146  0.0318
  217MOL    H8326435   6.791   7.873   4.399 -0.0512  0.0695  0.4042
  217MOL    H8426436   6.790   7.866   4.228 -0.5182  1.0114 -1.6467
  217MOL    H8526437   6.570   7.749   4.246  0.9596  1.6578 -0.4921
  217MOL    C8626438   6.709   7.605   4.332  0.4476  0.1533 -0.0497
  217MOL    C8726439   6.830   7.582   4.418 -0.4783  0.2262 -0.6049
  217MOL   Cl8826440   6.892   7.423   4.372 -0.3484  0.0430  0.0585
  217MOL    H8926441   6.749   7.589   4.232 -1.8818 -1.1935 -0.7944
  217MOL    H9026442   6.645   7.517   4.332  0.0485  0.4277  1.1074
  217MOL    H9126443   6.909   7.656   4.402  1.1915 -1.7163 -1.5593
  217MOL    C9226444   6.792   7.588   4.568  0.2856 -0.0255  0.1955
  217MOL    C9326445   6.903   7.550   4.670 -0.0951 -0.7658  0.1551
  217MOL   Cl9426446   6.837   7.592   4.826 -0.3318 -0.1523  0.4794
  217MOL    H9526447   6.705   7.525   4.586 -0.4680  0.3982 -1.7629
  217MOL    H9626448   6.758   7.691   4.585 -0.5874  0.1026 -2.0428
  217MOL    H9726449   6.912   7.442   4.658 -0.3186 -0.6947 -0.6863
  217MOL    C9826450   7.041   7.625   4.646 -0.1083 -0.3028 -0.3351
  217MOL    C9926451   7.148   7.586   4.741  0.4160  0.5897  0.0704
  217MOL  Cl10026452   7.279   7.707   4.731 -0.0206  0.1225  0.4194
  217MOL   H10126453   7.027   7.732   4.664  0.9627 -0.0706 -0.8590
  217MOL   H10226454   7.074   7.607   4.544  1.7252  0.6357  0.0703
  217MOL   H10326455   7.113   7.615   4.840 -1.7011  2.1115 -1.0731
  217MOL   C10426456   7.193   7.440   4.730 -0.0572  0.0401  0.7609
  217MOL   C10526457   7.187   7.370   4.865  0.6032  0.6800  0.7121
  217MOL  Cl10626458   7.319   7.247   4.863 -0.2852  0.0604  0.1536
  217MOL   H10726459   7.292   7.451   4.686 -0.6020 -1.2986 -0.8625
  217MOL   H10826460   7.136   7.397   4.647  0.9826  2.5705 -1.3511
  217MOL   H10926461   7.227   7.438   4.941  0.9937  1.9102 -0.5752
  217MOL   C11026462   7.050   7.307   4.904 -0.3906  0.6270 -0.4038
  217MOL   C11126463   7.050   7.247   5.048 -0.1267  0.6058  0.3184
  217MOL  Cl11226464   6.909   7.140   5.076 -0.2056  0.0353 -0.0943
  217MOL   H11326465   7.036   7.228   4.831 -2.4693 -0.8012  1.4627
  217MOL   H11426466   6.966   7.377   4.896 -1.7682 -0.6758  1.9429
  217MOL   H11526467   7.135   7.180   5.058 -0.4803  0.2174  0.7120
  217MOL   C11626468   7.070   7.343   5.160 -0.1096 -0.6375 -0.3005
  217MOL   C11726469   6.952   7.430   5.176  0.6234 -0.3589  0.3900
  217MOL  Cl11826470   6.981   7.538   5.305 -0.1339  0.4449  0.1849
  217MOL   H11926471   7.160   7.403   5.145 -0.4668  0.3254  1.2695
  217MOL   H12026472   7.071   7.297   5.259 -1.5769 -1.4946 -0.6817
  217MOL   H12126473   6.927   7.495   5.092 -1.4314 -2.1744 -0.4436
  217MOL   H12226474   6.860   7.376   5.199  0.0821  0.8707  1.1701
  218MOL     C126475   0.545   1.127   0.841  0.0806  0.0320 -0.5195
  218MOL     C226476   0.655   1.132   0.740 -0.2808  0.3395 -0.4315
  218MOL    Cl326477   0.590   1.232   0.606 -0.0792  0.0068  0.0157
  218MOL     H426478   0.471   1.053   0.811  0.8470 -0.1238 -2.0826
  218MOL     H526479   0.577   1.099   0.941  1.5052 -2.0073 -1.5170
  218MOL     H626480   0.744   1.188   0.768  1.9730 -2.0940 -2.5780
  218MOL     H726481   0.495   1.224   0.847  0.0936 -0.0471  1.0840
  218MOL     C826482   0.691   0.992   0.675 -1.1083 -0.1497 -1.0628
  218MOL     C926483   0.758   0.890   0.782 -0.2541  0.0331 -0.2554
  218MOL   Cl1026484   0.904   0.971   0.840 -0.3496 -0.3307 -0.0764
  218MOL    H1126485   0.753   1.003   0.586 -0.8313  1.6334 -0.6745
  218MOL    H1226486   0.602   0.945   0.633 -1.2581  1.7088 -2.8717
  218MOL    H1326487   0.692   0.881   0.868  0.1451 -0.5624 -0.0069
  218MOL    C1426488   0.793   0.742   0.738 -0.2131 -0.6538 -0.4052
  218MOL    C1526489   0.669   0.654   0.713 -0.5498  0.1145  0.4407
  218MOL   Cl1626490   0.595   0.612   0.873 -0.2189 -0.2598 -0.1049
  218MOL    H1726491   0.862   0.700   0.811  0.7691 -0.2754 -1.0941
  218MOL    H1826492   0.850   0.758   0.646 -0.2145  0.7886 -0.1676
  218MOL    H1926493   0.588   0.708   0.664  0.7609 -0.1203 -2.0517
  218MOL    C2026494   0.693   0.522   0.637 -0.3441  0.0568 -0.1728
  218MOL    C2126495   0.736   0.561   0.498 -0.3622 -0.4162  0.3379
  218MOL   Cl2226496   0.602   0.626   0.405 -0.0815 -0.0741  0.0016
  218MOL    H2326497   0.597   0.470   0.632 -0.5597  0.5701 -1.5144
  218MOL    H2426498   0.753   0.450   0.693 -2.9254 -2.2765 -0.3309
  218MOL    H2526499   0.810   0.639   0.492 -0.1715 -0.5194  1.2757
  218MOL    C2626500   0.780   0.427   0.428  0.3301  0.0375  0.1334
  218MOL    C2726501   0.822   0.425   0.281  0.7628 -0.7278 -0.1278
  218MOL   Cl2826502   0.842   0.252   0.261  0.2281 -0.1034 -0.5358
  218MOL    H2926503   0.695   0.360   0.439  0.9576 -0.3067  3.4365
  218MOL    H3026504   0.853   0.376   0.491  0.2717 -0.2435 -0.0275
  218MOL    H3126505   0.733   0.460   0.229  0.5052 -1.0802  0.0697
  218MOL    C3226506   0.947   0.514   0.247  0.4371  0.5017 -0.3721
  218MOL    C3326507   1.010   0.489   0.099 -1.1832 -0.2199 -0.7127
  218MOL   Cl3426508   1.157   0.597   0.088  0.0007  0.0425  0.1280
  218MOL    H3526509   1.020   0.497   0.326  1.9019  1.1447 -1.5693
  218MOL    H3626510   0.925   0.619   0.269 -1.4374  0.2090 -0.7946
  218MOL    H3726511   1.048   0.389   0.083  2.3437  1.0424 -0.7616
  218MOL    C3826512   0.919   0.506   8.504 -0.0282  0.5217 -0.8003
  218MOL    C3926513   0.881   0.648   8.467  0.2378 -0.6925 -0.0897
  218MOL   Cl4026514   0.758   0.717   0.049 -0.1495  0.2961  0.4383
  218MOL    H4126515   0.830   0.444   8.517 -0.0551  0.6423 -0.4090
  218MOL    H4226516   0.965   0.468   8.412 -0.5375 -1.1728 -0.3720
  218MOL    H4326517   0.966   0.716   8.478  0.2742 -0.5774 -1.0933
  218MOL    C4426518   0.805   0.643   8.328 -0.1300  0.1041 -0.9118
  218MOL    C4526519   0.766   0.782   8.267 -0.1354  0.0795 -0.3056
  218MOL   Cl4626520   0.694   0.752   8.106 -0.0865 -0.1723 -0.2079
  218MOL    H4726521   0.722   0.576   8.349  0.0627 -0.2842 -1.3628
  218MOL    H4826522   0.864   0.596   8.249  1.7504 -0.4696  0.8044
  218MOL    H4926523   0.683   0.823   8.325 -1.7186 -1.2037 -1.6385
  218MOL    C5026524   0.884   0.879   8.251 -1.1540 -0.2584  0.7936
  218MOL    C5126525   0.987   0.843   8.146 -0.1917  0.0685  0.1954
  218MOL   Cl5226526   1.114   0.751   8.229 -0.0274  0.5851 -0.0647
  218MOL    H5326527   0.925   0.910   8.347 -1.1236 -1.7284  1.2644
  218MOL    H5426528   0.849   0.972   8.207  0.2980 -0.3280 -0.5865
  218MOL    H5526529   0.952   0.772   8.071 -2.8127  0.1270  1.2992
  218MOL    C5626530   1.055   0.957   8.061  0.1024  0.0490 -0.2553
  218MOL    C5726531   0.972   1.032   7.961 -0.2636  0.3848 -0.5703
  218MOL   Cl5826532   0.868   0.925   7.871  0.2298  0.0505  0.0830
  218MOL    H5926533   1.136   0.909   8.006 -0.6739 -3.0015  1.1876
  218MOL    H6026534   1.101   1.036   8.120  2.0352 -0.9603 -0.3516
  218MOL    H6126535   0.912   1.105   8.016 -1.9581 -2.1310  1.0075
  218MOL    C6226536   1.049   1.114   7.851  0.3953  0.6514  0.1207
  218MOL    C6326537   1.154   1.210   7.906  0.1544  0.1545 -0.1064
  218MOL   Cl6426538   1.078   1.345   7.995 -0.0652 -0.2636 -0.0878
  218MOL    H6526539   0.970   1.178   7.811 -2.4851 -2.0603  1.3076
  218MOL    H6626540   1.072   1.046   7.769  0.6506 -0.9840  1.5253
  218MOL    H6726541   1.219   1.168   7.982  2.7797  3.0050 -0.6769
  218MOL    C6826542   1.250   1.258   7.790  0.8644 -0.0638 -0.2173
  218MOL    C6926543   1.340   1.150   7.721  0.9532 -0.5044 -0.4691
  218MOL   Cl7026544   1.440   1.060   7.838  0.1152 -0.3429 -0.5274
  218MOL    H7126545   1.318   1.331   7.834  1.9516 -0.3169 -1.4472
  218MOL    H7226546   1.195   1.312   7.713  0.9886 -1.5297 -1.3525
  218MOL    H7326547   1.277   1.075   7.672  0.2234 -0.5974  0.6116
  218MOL    C7426548   1.419   1.196   7.597  0.9760 -0.4349  0.6530
  218MOL    C7526549   1.341   1.248   7.478 -0.9762 -0.6267  0.0625
  218MOL   Cl7626550   1.200   1.147   7.436  0.1741 -0.1052 -0.3991
  218MOL    H7726551   1.473   1.106   7.566 -0.5746 -0.7356 -1.3297
  218MOL    H7826552   1.496   1.271   7.613  1.7799 -0.5677 -2.2041
  218MOL    H7926553   1.294   1.344   7.504  0.9875 -0.3081  2.5834
  218MOL    C8026554   1.429   1.271   7.353  0.1133 -0.0898 -0.2454
  218MOL    C8126555   1.546   1.363   7.361 -0.9806 -0.3583  1.2014
  218MOL   Cl8226556   1.485   1.527   7.403  0.0229 -0.2032  0.2969
  218MOL    H8326557   1.366   1.310   7.273  2.0933  3.7286 -0.0568
  218MOL    H8426558   1.455   1.175   7.308 -2.2057 -0.8192 -0.0915
  218MOL    H8526559   1.625   1.332   7.429 -0.1661  0.9099  0.8355
  218MOL    C8626560   1.610   1.373   7.217 -0.5447  0.3880  1.0600
  218MOL    C8726561   1.749   1.438   7.209 -0.2019  0.1820  0.6450
  218MOL   Cl8826562   1.796   1.448   7.037  0.0409  0.2585  0.0513
  218MOL    H8926563   1.553   1.442   7.156 -0.1028 -1.6393 -1.7303
  218MOL    H9026564   1.599   1.281   7.159 -0.8139  1.7161 -1.0467
  218MOL    H9126565   1.748   1.541   7.246  2.5911  0.6446 -0.3957
  218MOL    C9226566   1.861   1.355   7.278  0.0782 -0.0262  0.4460
  218MOL    C9326567   1.880   1.212   7.238 -0.0934  0.2509  0.3102
  218MOL   Cl9426568   1.765   1.102   7.328  0.1775 -0.3963 -0.1974
  218MOL    H9526569   1.828   1.346   7.382  2.1920 -2.3314  0.9860
  218MOL    H9626570   1.951   1.416   7.270 -0.5567  1.2225  2.4373
  218MOL    H9726571   1.866   1.193   7.131 -0.2095 -0.3916  0.4367
  218MOL    C9826572   2.025   1.165   7.268  0.0915  0.1888  0.2274
  218MOL    C9926573   2.141   1.199   7.166 -0.0935 -0.0602 -1.0047
  218MOL  Cl10026574   2.105   1.111   7.014 -0.6080 -0.5540  0.1398
  218MOL   H10126575   2.019   1.056   7.271  1.7258  0.1002  1.5311
  218MOL   H10226576   2.053   1.205   7.366  0.3925 -0.3506  0.3672
  218MOL   H10326577   2.130   1.306   7.145  1.2450  0.4281  0.6800
  218MOL   C10426578   2.280   1.180   7.221 -0.0436  0.4771 -0.1458
  218MOL   C10526579   2.321   1.265   7.343  0.2763 -0.3520  0.2444
  218MOL  Cl10626580   2.349   1.436   7.297 -0.5642  0.2270  0.1964
  218MOL   H10726581   2.347   1.202   7.138  0.0569 -1.5815 -0.6332
  218MOL   H10826582   2.287   1.074   7.248 -2.0867  0.2186 -0.6068
  218MOL   H10926583   2.235   1.268   7.411 -0.2602  3.1381 -0.5163
  218MOL   C11026584   2.447   1.208   7.420 -0.3510 -0.4005 -0.1007
  218MOL   C11126585   2.436   1.117   7.541  0.1058 -0.1814 -0.2821
  218MOL  Cl11226586   2.313   0.985   7.513  0.0373 -0.4929 -0.4715
  218MOL   H11326587   2.516   1.286   7.451  1.0866 -1.7334  0.1058
  218MOL   H11426588   2.507   1.154   7.348  0.7410  0.8973 -0.1854
  218MOL   H11526589   2.531   1.070   7.565 -0.2569 -0.5871  0.3732
  218MOL   C11626590   2.391   1.196   7.672 -0.7441 -0.5888  0.6002
  218MOL   C11726591   2.409   1.116   7.795  0.4634 -0.5026 -0.0615
  218MOL  Cl11826592   2.573   1.063   7.826 -0.4384 -0.1636 -0.0487
  218MOL   H11926593   2.285   1.220   7.662 -0.6373 -0.2997  0.1114
  218MOL   H12026594   2.444   1.291   7.684  0.3115 -1.2453  1.1848
  218MOL   H12126595   2.378   1.179   7.878  1.2985  1.6599 -1.3516
  218MOL   H12226596   2.338   1.033   7.798 -1.6173  1.2300 -0.1559
  219MOL     C126597   8.474   7.634   3.972  0.2732 -0.0527  0.3459
  219MOL     C226598   0.071   7.592   3.884  0.2087 -0.0386 -0.0752
  219MOL    Cl326599   0.206   7.564   4.001 -0.1146  0.0256  0.3325
  219MOL     H426600   8.492   7.737   4.004 -1.1642  1.1214 -2.4117
  219MOL     H526601   8.394   7.633   3.898 -0.0584 -0.1477  0.7016
  219MOL     H626602   0.041   7.496   3.841 -0.3134  0.0116  0.1667
  219MOL     H726603   8.450   7.575   4.060  0.3715 -0.2394  0.2475
  219MOL     C826604   0.109   7.686   3.765  0.3224  0.1677 -0.1804
  219MOL     C926605   0.210   7.625   3.674  0.1155  0.1726 -1.0445
  219MOL   Cl1026606   0.376   7.641   3.740 -0.0696 -0.1933  0.0692
  219MOL    H1126607   0.151   7.781   3.797  2.4074  0.0229 -2.4016
  219MOL    H1226608   0.024   7.705   3.699  0.2785  0.2861 -0.0902
  219MOL    H1326609   0.186   7.521   3.653 -2.3211  0.7752 -1.4095
  219MOL    C1426610   0.223   7.704   3.539 -0.0856  0.2236  0.0154
  219MOL    C1526611   0.112   7.686   3.437  0.3664  0.1672 -0.1883
  219MOL   Cl1626612   0.128   7.525   3.360 -0.1153  0.3579 -0.1753
  219MOL    H1726613   0.309   7.667   3.484 -0.5766 -1.7636  0.5491
  219MOL    H1826614   0.234   7.812   3.554  0.8702  0.0821  0.3218
  219MOL    H1926615   0.019   7.682   3.493  0.1727  0.1340 -0.5084
  219MOL    C2026616   0.123   7.796   3.323 -0.1223  0.6163 -0.0833
  219MOL    C2126617   0.103   7.946   3.351  0.1632  0.3730  0.6280
  219MOL   Cl2226618   8.477   7.976   3.450 -0.6288 -0.0490 -0.1293
  219MOL    H2326619   0.046   7.763   3.253 -0.2066  0.8927 -0.1212
  219MOL    H2426620   0.210   7.787   3.258 -0.0356 -2.4033  0.3683
  219MOL    H2526621   0.192   7.978   3.406  1.3147 -0.2356 -0.8558
  219MOL    C2626622   0.094   8.042   3.226  0.0019  0.2127 -0.1511
  219MOL    C2726623   0.220   8.053   3.147  0.1948 -0.5291  0.5483
  219MOL   Cl2826624   0.352   8.110   3.253  0.3159 -0.2034  0.7046
  219MOL    H2926625   0.082   8.147   3.249 -1.4129 -0.3503  1.7764
  219MOL    H3026626   0.014   7.998   3.166  1.2704 -0.7339 -1.1825
  219MOL    H3126627   0.260   7.955   3.120  2.4292  0.6193 -0.4833
  219MOL    C3226628   0.201   8.146   3.024  0.0232 -0.1421  0.3059
  219MOL    C3326629   0.317   8.126   2.920 -0.4895  0.0237  0.1140
  219MOL   Cl3426630   0.291   8.253   2.805  0.0510  0.0340  0.1355
  219MOL    H3526631   0.203   8.251   3.052 -1.5749 -0.6569  2.4694
  219MOL    H3626632   0.111   8.118   2.969 -1.1028  0.0094  2.0417
  219MOL    H3726633   0.414   8.144   2.966 -0.6937 -0.2072  0.6461
  219MOL    C3826634   0.317   7.983   2.853 -0.0967 -0.3412 -0.4092
  219MOL    C3926635   0.426   7.957   2.748 -0.5970  0.1573  0.2840
  219MOL   Cl4026636   0.397   7.795   2.678 -0.1116 -0.0718  0.3298
  219MOL    H4126637   0.227   7.974   2.793  0.0552  0.1664 -0.7196
  219MOL    H4226638   0.310   7.900   2.922 -2.5033  0.2621  0.1057
  219MOL    H4326639   0.409   8.027   2.667 -2.3707  0.6866  1.0904
  219MOL    C4426640   0.574   7.956   2.794  0.1868  0.3341  0.2038
  219MOL    C4526641   0.660   8.061   2.725 -0.1998 -0.9704  0.4555
  219MOL   Cl4626642   0.667   8.035   2.551  0.2558 -0.1180  0.1445
  219MOL    H4726643   0.603   7.852   2.776  0.2716  0.3865  0.0443
  219MOL    H4826644   0.569   7.980   2.901 -2.3785  0.8124 -0.0144
  219MOL    H4926645   0.602   8.151   2.745 -2.6603 -2.9986  3.1819
  219MOL    C5026646   0.797   8.067   2.787  0.2697  0.1225  0.6586
  219MOL    C5126647   0.849   8.213   2.793 -0.4083 -0.7541 -0.0148
  219MOL   Cl5226648   0.731   8.299   2.902 -0.2933  0.4704  0.0015
  219MOL    H5326649   0.866   8.008   2.727 -0.5202 -0.9943  0.8470
  219MOL    H5426650   0.806   8.020   2.886  0.7776 -0.7947  0.1883
  219MOL    H5526651   0.948   8.217   2.838  0.1577  1.0256 -1.3089
  219MOL    C5626652   0.862   8.295   2.659 -0.9681  0.6700 -0.0238
  219MOL    C5726653   0.969   8.234   2.551 -0.1075 -0.2804  1.0955
  219MOL   Cl5826654   1.135   8.263   2.617 -0.0255 -0.3829 -0.0071
  219MOL    H5926655   0.868   8.402   2.681 -2.3231  0.5464  1.0272
  219MOL    H6026656   0.770   8.288   2.601 -0.1420 -0.2356 -1.2515
  219MOL    H6126657   0.976   8.126   2.533  1.5240  0.2154 -1.4180
  219MOL    C6226658   0.961   8.310   2.422 -0.1494 -0.5626  0.2579
  219MOL    C6326659   0.856   8.255   2.321 -0.0581  0.2215 -0.4379
  219MOL   Cl6426660   0.922   8.126   2.221 -0.3078 -0.1393  0.1882
  219MOL    H6526661   1.054   8.307   2.366 -0.2822  2.4567 -0.2165
  219MOL    H6626662   0.952   8.419   2.428 -1.2425 -0.6241 -0.1264
  219MOL    H6726663   0.768   8.221   2.376 -1.9799  2.6740 -1.9085
  219MOL    C6826664   0.794   8.363   2.225 -0.2528 -0.5327 -0.2615
  219MOL    C6926665   0.734   8.495   2.284 -0.0700 -0.2620  0.7200
  219MOL   Cl7026666   0.649   8.463   2.431 -0.1960  0.0176 -0.0766
  219MOL    H7126667   0.720   8.305   2.170  0.0776 -0.2659 -0.9988
  219MOL    H7226668   0.869   8.398   2.153 -0.3201  2.4358  1.0486
  219MOL    H7326669   0.819   0.029   2.317  1.1682 -1.9039  0.5390
  219MOL    C7426670   0.641   0.069   2.198 -0.3568  0.2888  0.9489
  219MOL    C7526671   0.500   0.016   2.158 -0.2168  0.0645 -0.2640
  219MOL   Cl7626672   0.508   8.414   2.033  0.3816  0.0299 -0.2376
  219MOL    H7726673   0.692   0.092   2.105 -0.6708 -1.2092  0.3898
  219MOL    H7826674   0.632   0.159   2.260 -2.4192  1.0691 -0.4498
  219MOL    H7926675   0.455   8.509   2.252  0.3386  1.4406  0.4998
  219MOL    C8026676   0.404   0.130   2.103  0.3882  0.0498  0.0101
  219MOL    C8126677   0.254   0.089   2.075  0.5365  0.0017 -0.0657
  219MOL   Cl8226678   0.174   0.229   2.008  0.0111  0.1471 -0.1394
  219MOL    H8326679   0.443   0.176   2.012 -1.4718 -0.4067 -1.0502
  219MOL    H8426680   0.392   0.211   2.174 -0.4065  0.4290 -0.5567
  219MOL    H8526681   0.246   0.019   1.993  0.4115  0.7470 -0.6960
  219MOL    C8626682   0.170   0.035   2.191 -0.1518 -0.2789  0.2993
  219MOL    C8726683   0.049   8.477   2.136  0.5885  0.4656  0.0612
  219MOL   Cl8826684   0.096   8.330   2.050 -0.2400 -0.3181  0.2283
  219MOL    H8926685   0.134   0.119   2.250 -1.4274 -0.2317 -0.5281
  219MOL    H9026686   0.228   8.489   2.249  0.1684  0.2469  0.6344
  219MOL    H9126687   0.001   8.444   2.228  2.2936 -1.1226  0.4214
  219MOL    C9226688   8.473   0.024   2.052 -0.0702  0.2569  0.1014
  219MOL    C9326689   8.334   8.474   2.027  0.4116  0.0413 -0.1501
  219MOL   Cl9426690   8.255   0.008   1.879 -0.2461 -0.1800 -0.0973
  219MOL    H9526691   0.001   0.047   1.960 -1.6443  3.5501 -0.0558
  219MOL    H9626692   8.461   0.124   2.094  0.7393  0.6763 -0.6459
  219MOL    H9726693   8.371   8.376   1.997 -1.3510 -0.1949 -1.5826
  219MOL    C9826694   8.232   8.497   2.145  0.1558 -0.0937  0.5919
  219MOL    C9926695   8.128   8.388   2.135  0.0205 -0.4289 -0.6551
  219MOL  Cl10026696   7.990   8.440   2.236 -0.1647  0.1936  0.0263
  219MOL   H10126697   8.186   0.070   2.137  1.7756  0.4731 -1.9638
  219MOL   H10226698   8.281   8.492   2.242  1.5741 -0.8305 -0.1507
  219MOL   H10326699   8.104   8.372   2.030  0.0560  1.3727 -0.9425
  219MOL   C10426700   8.183   8.256   2.189 -0.0632  0.0661 -0.2029
  219MOL   C10526701   8.151   8.131   2.115  0.2144 -0.2600  0.4095
  219MOL  Cl10626702   8.223   8.149   1.952 -0.0863 -0.1899  0.7012
  219MOL   H10726703   8.132   8.243   2.285 -2.6140  0.2941 -1.5022
  219MOL   H10826704   8.289   8.255   2.214 -0.2973  2.0400  0.9327
  219MOL   H10926705   8.202   8.048   2.164 -0.8718 -1.3122 -0.2193
  219MOL   C11026706   8.005   8.096   2.086 -0.1429  0.1351  0.5733
  219MOL   C11126707   7.930   8.052   2.212  0.6496 -0.2482 -0.4798
  219MOL  Cl11226708   8.005   7.915   2.286 -0.1790 -0.0914 -0.0956
  219MOL   H11326709   8.010   8.016   2.013  0.7780 -0.2091  1.0117
  219MOL   H11426710   7.954   8.180   2.037  1.0685 -0.4068 -1.6641
  219MOL   H11526711   7.923   8.127   2.291 -3.6702  0.0991 -1.0647
  219MOL   C11626712   7.785   8.007   2.184  0.7001 -0.0446 -0.0291
  219MOL   C11726713   7.688   7.967   2.301  0.5099  0.2518  0.1178
  219MOL  Cl11826714   7.515   7.962   2.246 -0.4825  0.1871  0.0797
  219MOL   H11926715   7.789   7.922   2.116  1.6763 -1.0168  1.2284
  219MOL   H12026716   7.746   8.092   2.127 -0.5760  0.5004  1.6316
  219MOL   H12126717   7.713   7.867   2.336  0.5042  0.3028  0.2652
  219MOL   H12226718   7.699   8.037   2.384 -0.1702  0.3440  0.1333
  220MOL     C126719   5.186   1.790   2.541 -0.7883 -0.4883  0.5587
  220MOL     C226720   5.167   1.841   2.685  0.9590 -0.2867  0.8940
  220MOL    Cl326721   5.123   2.009   2.670  0.0034  0.1910 -0.1807
  220MOL     H426722   5.094   1.766   2.488  0.4629  0.3106 -2.0580
  220MOL     H526723   5.235   1.866   2.480 -1.1611 -2.2393 -2.0323
  220MOL     H626724   5.087   1.788   2.738  0.9797 -0.6817  0.5321
  220MOL     H726725   5.254   1.706   2.551 -0.3935 -0.2561 -0.1671
  220MOL     C826726   5.301   1.823   2.765  0.0048 -0.5859 -0.5129
  220MOL     C926727   5.285   1.855   2.914 -0.0140  0.3626  0.0455
  220MOL   Cl1026728   5.443   1.902   2.973 -0.4306 -0.2571  0.4264
  220MOL    H1126729   5.378   1.891   2.729  0.8598 -0.1630  1.9957
  220MOL    H1226730   5.331   1.719   2.763 -0.0576 -0.6937  2.1693
  220MOL    H1326731   5.226   1.945   2.925 -0.0838  0.0311  2.5397
  220MOL    C1426732   5.241   1.739   3.000 -0.4143  0.7689  1.8481
  220MOL    C1526733   5.211   1.756   3.144  0.0272  0.5805 -0.3109
  220MOL   Cl1626734   5.180   1.601   3.230  0.3071 -0.1515 -0.0550
  220MOL    H1726735   5.326   1.672   2.990  0.5747  1.9403  2.3409
  220MOL    H1826736   5.167   1.677   2.950  2.2995  1.4173 -3.2927
  220MOL    H1926737   5.296   1.808   3.188  1.2842 -2.0572  0.4822
  220MOL    C2026738   5.093   1.851   3.159 -0.5915  0.1261 -0.0393
  220MOL    C2126739   5.101   1.964   3.262 -0.2327 -0.9504  0.5376
  220MOL   Cl2226740   5.199   2.091   3.183  0.1174  0.5448  0.2560
  220MOL    H2326741   5.006   1.789   3.179 -0.4002 -1.0165 -2.5672
  220MOL    H2426742   5.052   1.894   3.068 -0.3318  1.1748  0.3359
  220MOL    H2526743   5.015   2.030   3.278 -0.4989 -1.2909  0.5056
  220MOL    C2626744   5.156   1.922   3.402 -0.1345 -0.1470  0.1967
  220MOL    C2726745   5.067   1.814   3.475 -0.2966 -0.3535  0.0494
  220MOL   Cl2826746   4.894   1.853   3.448 -0.0557  0.2435  0.1498
  220MOL    H2926747   5.152   2.008   3.468  2.3299  0.5597 -0.5222
  220MOL    H3026748   5.261   1.901   3.421  0.3236 -0.5649 -2.5859
  220MOL    H3126749   5.073   1.714   3.433 -0.1095 -0.4074  0.2041
  220MOL    C3226750   5.091   1.796   3.624  0.6272  0.6030  0.2623
  220MOL    C3326751   5.210   1.718   3.678 -0.9016  0.7287  0.6284
  220MOL   Cl3426752   5.197   1.540   3.630  0.2989 -0.0576 -0.1561
  220MOL    H3526753   5.001   1.740   3.652 -0.3033  1.1006 -1.6996
  220MOL    H3626754   5.068   1.892   3.670  1.6029  0.2392  1.5291
  220MOL    H3726755   5.300   1.750   3.625 -1.1013 -0.6259 -0.5743
  220MOL    C3826756   5.215   1.713   3.830 -0.0023  0.3374 -0.0923
  220MOL    C3926757   5.348   1.661   3.897 -0.3809  0.2557 -0.1026
  220MOL   Cl4026758   5.304   1.628   4.066 -0.4762  0.2474 -0.1571
  220MOL    H4126759   5.137   1.641   3.857 -0.0900 -0.5697 -2.5982
  220MOL    H4226760   5.190   1.812   3.868 -0.4462 -0.2487  1.2012
  220MOL    H4326761   5.386   1.568   3.855 -0.8114 -1.3201  2.8577
  220MOL    C4426762   5.452   1.781   3.888 -0.0086  0.1658 -0.4235
  220MOL    C4526763   5.587   1.734   3.943  0.4381 -0.0808  0.0716
  220MOL   Cl4626764   5.695   1.870   3.958 -0.0979  0.7572  0.3163
  220MOL    H4726765   5.411   1.858   3.953 -1.1158 -0.6632 -0.1272
  220MOL    H4826766   5.450   1.817   3.785 -1.3447  2.3200  0.3236
  220MOL    H4926767   5.580   1.696   4.045 -1.5301 -1.1075 -0.4324
  220MOL    C5026768   5.652   1.626   3.854 -0.7330 -0.2962 -1.0988
  220MOL    C5126769   5.690   1.659   3.708 -0.5975 -0.5561 -0.2843
  220MOL   Cl5226770   5.547   1.662   3.601  0.1330 -0.0011  0.3343
  220MOL    H5326771   5.598   1.534   3.878 -0.1351  0.1163  2.1783
  220MOL    H5426772   5.736   1.607   3.922 -2.7051  0.5332  1.6784
  220MOL    H5526773   5.715   1.765   3.708 -1.3039 -0.3864  0.9599
  220MOL    C5626774   5.804   1.572   3.647 -0.7150  0.3855 -0.5610
  220MOL    C5726775   5.789   1.418   3.668  0.2217  0.3202  0.6401
  220MOL   Cl5826776   5.950   1.356   3.636 -0.1293 -0.5001  0.4414
  220MOL    H5926777   5.890   1.606   3.704  2.2482 -3.2165 -2.6500
  220MOL    H6026778   5.838   1.606   3.549 -0.5705 -1.1793 -1.0797
  220MOL    H6126779   5.762   1.407   3.773  2.2162 -1.5097  1.0000
  220MOL    C6226780   5.686   1.339   3.582  0.4575  0.1474  0.1904
  220MOL    C6326781   5.657   1.191   3.623  0.3259 -0.2595  0.2107
  220MOL   Cl6426782   5.612   1.195   3.790  0.1405 -0.1508  0.2307
  220MOL    H6526783   5.730   1.342   3.482 -1.9176  1.6181 -0.8693
  220MOL    H6626784   5.593   1.395   3.587  1.7396  2.6291 -2.0485
  220MOL    H6726785   5.569   1.167   3.564 -0.1705 -0.3592  0.9826
  220MOL    C6826786   5.753   1.075   3.585 -0.5038  0.2086 -0.3734
  220MOL    C6926787   5.750   1.034   3.436 -0.3680  0.6011 -0.1628
  220MOL   Cl7026788   5.627   0.909   3.419  0.0901  0.5747  0.2680
  220MOL    H7126789   5.718   0.995   3.649 -0.0740 -1.6045 -2.3368
  220MOL    H7226790   5.854   1.098   3.619  0.1949 -1.3895 -1.3085
  220MOL    H7326791   5.727   1.128   3.385  0.9038  0.8873 -0.2482
  220MOL    C7426792   5.890   0.979   3.391 -0.3537  0.0548  0.2096
  220MOL    C7526793   5.999   1.085   3.371  0.1244  0.5851  0.3605
  220MOL   Cl7626794   5.973   1.169   3.215  0.1458  0.3895  0.2018
  220MOL    H7726795   5.875   0.909   3.308 -1.5782  0.9932 -0.3574
  220MOL    H7826796   5.931   0.914   3.469  1.0760 -0.7291 -1.1640
  220MOL    H7926797   5.996   1.159   3.450  0.3180 -1.4225  2.3003
  220MOL    C8026798   6.135   1.018   3.367 -0.2293  0.0888  0.0068
  220MOL    C8126799   6.244   1.116   3.422 -0.4710  0.7232 -0.5488
  220MOL   Cl8226800   6.284   1.232   3.293 -0.2067  0.1880  0.0305
  220MOL    H8326801   6.156   0.967   3.272 -1.0342  0.0489 -0.1523
  220MOL    H8426802   6.131   0.930   3.431  0.3872  0.7315  0.9343
  220MOL    H8526803   6.195   1.179   3.497 -0.6944  2.7352 -2.3430
  220MOL    C8626804   6.371   1.050   3.488 -0.6382 -0.1438 -0.1396
  220MOL    C8726805   6.446   1.131   3.595 -0.0587 -0.2523 -0.6110
  220MOL   Cl8826806   6.354   1.123   3.748 -0.3076 -0.0672 -0.3138
  220MOL    H8926807   6.445   1.028   3.411 -0.4431 -1.6509  0.4700
  220MOL    H9026808   6.359   0.947   3.522 -4.4051  0.2092 -0.0944
  220MOL    H9126809   6.541   1.082   3.616  0.0067  0.3630  0.6397
  220MOL    C9226810   6.478   1.285   3.565  0.0346 -0.7755  0.3849
  220MOL    C9326811   6.580   1.322   3.446 -0.5290  0.3117 -0.0252
  220MOL   Cl9426812   6.734   1.372   3.524  0.0554  0.0667 -0.1170
  220MOL    H9526813   6.523   1.334   3.651 -0.7865  0.4234  0.1543
  220MOL    H9626814   6.387   1.340   3.539  0.4002  0.1751  1.1043
  220MOL    H9726815   6.595   1.227   3.395 -1.3487 -0.3870  1.0108
  220MOL    C9826816   6.548   1.441   3.350  0.5390  0.4967  0.4625
  220MOL    C9926817   6.621   1.453   3.215 -0.0083 -0.2927  0.4305
  220MOL  Cl10026818   6.776   1.543   3.234  0.2554  0.0111  0.3379
  220MOL   H10126819   6.550   1.535   3.406 -1.7170  1.0374 -0.3124
  220MOL   H10226820   6.441   1.432   3.332  0.6104  1.0237 -0.2774
  220MOL   H10326821   6.657   1.352   3.197 -0.3462 -0.2330 -0.6364
  220MOL   C10426822   6.536   1.506   3.095  0.2208  0.5275 -0.9204
  220MOL   C10526823   6.508   1.662   3.101  0.4096 -0.0340 -0.7616
  220MOL  Cl10626824   6.414   1.699   3.249 -0.0134  0.4628 -0.0413
  220MOL   H10726825   6.437   1.462   3.104  1.5291 -2.4706 -0.8301
  220MOL   H10826826   6.575   1.465   3.001 -0.5072 -0.5433 -0.7542
  220MOL   H10926827   6.602   1.716   3.108  0.0398  0.4665  0.4193
  220MOL   C11026828   6.417   1.712   2.986  0.5555  0.3458  0.2435
  220MOL   C11126829   6.385   1.861   2.980 -0.9237 -0.0048  0.9457
  220MOL  Cl11226830   6.253   1.881   2.862  0.0115 -0.2369  0.5049
  220MOL   H11326831   6.328   1.650   2.977  0.9817 -0.0795 -1.1689
  220MOL   H11426832   6.468   1.688   2.892  2.9956  1.0821  1.3326
  220MOL   H11526833   6.337   1.888   3.074  0.8251 -0.6381  2.0270
  220MOL   C11626834   6.506   1.952   2.961  0.3778  0.4134 -0.5909
  220MOL   C11726835   6.475   2.104   2.951  0.1408  0.2670  0.7617
  220MOL  Cl11826836   6.404   2.167   3.101 -0.1315 -0.1962  0.3461
  220MOL   H11926837   6.570   1.918   2.880 -0.5498 -1.8803 -0.4079
  220MOL   H12026838   6.557   1.941   3.056 -2.1397  0.1532  0.7790
  220MOL   H12126839   6.569   2.156   2.935 -1.1014  1.6599 -2.4526
  220MOL   H12226840   6.412   2.133   2.867  0.6015 -1.4016 -0.1758
  221MOL     C126841   6.753   0.312   5.418  0.0443  0.0182  0.5644
  221MOL     C226842   6.798   0.221   5.534  0.3659  0.1686  0.2322
  221MOL    Cl326843   6.903   0.093   5.477 -0.3474 -0.1663 -0.0323
  221MOL     H426844   6.699   0.400   5.451  0.7514  0.4584  0.5599
  221MOL     H526845   6.833   0.337   5.347 -0.1841  0.3756  0.4338
  221MOL     H626846   6.859   0.286   5.597 -0.6626  0.0126  1.4100
  221MOL     H726847   6.674   0.256   5.368  0.1161  0.3794  0.0450
  221MOL     C826848   6.682   0.148   5.610  0.5290  0.5046  0.6519
  221MOL     C926849   6.576   0.242   5.667  1.0393 -0.5265 -0.0428
  221MOL   Cl1026850   6.652   0.376   5.762  0.3308 -0.1951 -0.3192
  221MOL    H1126851   6.720   0.082   5.688  1.5907  0.8992  0.4826
  221MOL    H1226852   6.635   0.084   5.536  0.3672  0.2005  1.0155
  221MOL    H1326853   6.516   0.288   5.588  0.2493  2.0604  2.0208
  221MOL    C1426854   6.479   0.164   5.764 -0.3823 -0.4646 -0.3099
  221MOL    C1526855   6.353   0.089   5.698  0.5062  0.0379 -0.5867
  221MOL   Cl1626856   6.246   0.196   5.607 -0.1251 -0.0803 -0.2228
  221MOL    H1726857   6.436   0.237   5.833  1.4698 -0.8257  1.2982
  221MOL    H1826858   6.539   0.090   5.818  1.3633  1.0517 -0.1236
  221MOL    H1926859   6.383   0.011   5.628 -0.0149 -0.3622 -0.3684
  221MOL    C2026860   6.264   0.028   5.804  0.2704 -0.1196 -0.1011
  221MOL    C2126861   6.315   8.413   5.860 -0.1575 -0.9792  0.7118
  221MOL   Cl2226862   6.269   8.297   5.730 -0.1200 -0.0205  0.0320
  221MOL    H2326863   6.160   0.021   5.771 -0.3992 -1.8816  2.2117
  221MOL    H2426864   6.265   0.107   5.879  1.1526 -0.1106 -0.1132
  221MOL    H2526865   6.422   8.420   5.878  0.0272  1.1219 -1.0161
  221MOL    C2626866   6.245   8.374   5.992 -0.3521 -0.1734 -0.3757
  221MOL    C2726867   6.266   8.480   6.109 -0.2877 -0.2986  0.4732
  221MOL   Cl2826868   6.432   8.496   6.137 -0.4269  0.3352  0.2691
  221MOL    H2926869   6.287   8.277   6.019 -0.2462 -0.0359 -0.0448
  221MOL    H3026870   6.140   8.348   5.980 -1.3906  3.3412  0.4184
  221MOL    H3126871   6.224   0.054   6.090  3.0080  1.5840  2.6111
  221MOL    C3226872   6.205   8.425   6.239  0.1309  0.4724 -0.1544
  221MOL    C3326873   6.052   8.439   6.237 -0.2584 -0.5267 -0.4248
  221MOL   Cl3426874   6.028   0.095   6.249  0.1142  0.0912 -0.2446
  221MOL    H3526875   6.232   8.494   6.320  1.3263  0.5794 -0.6297
  221MOL    H3626876   6.244   8.326   6.264 -1.0690 -0.2612 -1.1027
  221MOL    H3726877   6.012   8.416   6.139 -1.8639  0.1366  0.0605
  221MOL    C3826878   5.969   8.374   6.348  0.0614 -0.2994  0.3321
  221MOL    C3926879   5.819   8.367   6.319  0.4088 -0.3383  0.2232
  221MOL   Cl4026880   5.735   8.311   6.463  0.0290  0.2097  0.4572
  221MOL    H4126881   5.980   8.419   6.447  3.0460 -1.7173  0.7092
  221MOL    H4226882   6.012   8.276   6.370  0.7269 -0.2783 -0.8637
  221MOL    H4326883   5.782   8.467   6.294  0.2486 -0.5552 -0.4231
  221MOL    C4426884   5.792   8.270   6.200 -0.0916 -0.2475 -0.3369
  221MOL    C4526885   5.642   8.276   6.170 -0.2353  0.7525  0.1239
  221MOL   Cl4626886   5.601   8.121   6.089 -0.1278  0.2485  0.3585
  221MOL    H4726887   5.827   8.171   6.232  0.6309 -0.6961 -2.4220
  221MOL    H4826888   5.836   8.291   6.102  0.2744 -1.9530 -0.5602
  221MOL    H4926889   5.586   8.278   6.263  1.5952 -1.8506  1.3364
  221MOL    C5026890   5.599   8.402   6.083 -0.3663  0.5060 -0.3751
  221MOL    C5126891   5.447   8.423   6.074  0.5734 -0.0193  0.0369
  221MOL   Cl5226892   5.430   0.028   5.954  0.1555 -0.1223 -0.1264
  221MOL    H5326893   5.636   8.383   5.982 -1.0095  1.0753 -0.7278
  221MOL    H5426894   5.641   8.499   6.111 -1.0200  0.3738  1.0927
  221MOL    H5526895   5.396   8.338   6.029 -3.2215  1.1486  1.9341
  221MOL    C5626896   5.376   8.470   6.208 -0.6682  0.1328  0.3264
  221MOL    C5726897   5.247   8.407   6.242 -0.0648 -0.0186 -0.3626
  221MOL   Cl5826898   5.130   8.430   6.115  0.0003  0.0860  0.0218
  221MOL    H5926899   5.353   0.049   6.185 -2.4027 -0.1406  0.7263
  221MOL    H6026900   5.452   8.478   6.285 -1.3556 -0.5779  1.0940
  221MOL    H6126901   5.261   8.299   6.249  3.4719  0.4063 -0.0825
  221MOL    C6226902   5.194   8.461   6.381 -0.0070  1.2159  0.2729
  221MOL    C6326903   5.268   8.421   6.502 -0.1470  0.3599 -0.1573
  221MOL   Cl6426904   5.270   8.250   6.509 -0.1050  0.0963 -0.0170
  221MOL    H6526905   5.097   8.414   6.393 -0.4556  2.4605  1.6945
  221MOL    H6626906   5.180   0.044   6.375 -0.0012  1.1915 -0.1999
  221MOL    H6726907   5.370   8.457   6.492  0.0888 -0.5898 -1.2590
  221MOL    C6826908   5.214   8.481   6.628  0.0430  0.1629  0.2367
  221MOL    C6926909   5.226   0.112   6.637  0.2330  0.4961 -0.2811
  221MOL   Cl7026910   5.385   0.167   6.604 -0.4875 -0.0853 -0.2011
  221MOL    H7126911   5.263   8.441   6.717 -2.1538  1.2860  2.0178
  221MOL    H7226912   5.114   8.444   6.652  0.5092 -0.8190  0.7260
  221MOL    H7326913   5.173   0.153   6.551 -0.2456 -2.5389 -1.5123
  221MOL    C7426914   5.177   0.171   6.776  0.7803  0.1892  1.0746
  221MOL    C7526915   5.017   0.166   6.784  0.2717 -0.5270 -0.2101
  221MOL   Cl7626916   4.951   0.315   6.699 -0.1149  0.2520 -0.0813
  221MOL    H7726917   5.203   0.276   6.789 -1.3336  1.0788 -1.2760
  221MOL    H7826918   5.227   0.121   6.859  2.9370 -0.0380 -0.3210
  221MOL    H7926919   4.977   0.084   6.725  0.1787 -0.5862 -0.0643
  221MOL    C8026920   4.971   0.162   6.931  0.2837  0.2954 -0.0266
  221MOL    C8126921   4.819   0.184   6.963  0.0364  0.0592 -0.1188
  221MOL   Cl8226922   4.801   0.180   7.140 -0.0350  0.0108  0.6501
  221MOL    H8326923   5.026   0.239   6.986  2.2166 -1.4648  0.5663
  221MOL    H8426924   5.016   0.069   6.964  1.3239 -0.1509 -2.6126
  221MOL    H8526925   4.788   0.285   6.935  2.0041  0.7697  0.1937
  221MOL    C8626926   4.717   0.078   6.902 -0.3352  0.1972 -0.5130
  221MOL    C8726927   4.570   0.122   6.888  0.9900  0.5048 -0.8136
  221MOL   Cl8826928   4.484   0.148   7.043 -0.0303 -0.1439  0.0602
  221MOL    H8926929   4.725   8.513   6.963  2.7384  2.1153  2.1398
  221MOL    H9026930   4.764   0.063   6.805  0.7730  0.3242 -0.0062
  221MOL    H9126931   4.564   0.219   6.839 -1.8694  0.6951 -0.1899
  221MOL    C9226932   4.480   0.043   6.793 -0.5093  0.1011  0.0979
  221MOL    C9326933   4.540   0.003   6.656 -0.8339 -0.5821  1.1028
  221MOL   Cl9426934   4.632   0.131   6.576 -0.0566 -0.1765  0.2351
  221MOL    H9526935   4.390   0.101   6.773 -0.1679  1.2852  1.8872
  221MOL    H9626936   4.438   8.488   6.853 -0.4661  0.3777  0.5000
  221MOL    H9726937   4.610   8.449   6.683  0.7213  0.7467  1.0130
  221MOL    C9826938   4.443   8.461   6.556  0.2238  0.3169 -0.7644
  221MOL    C9926939   4.408   8.315   6.591  0.3237 -0.6472 -0.3423
  221MOL  Cl10026940   4.553   8.212   6.573 -0.1680 -0.5964 -0.2893
  221MOL   H10126941   4.483   8.460   6.455 -1.1642 -2.4855 -1.3265
  221MOL   H10226942   4.349   8.516   6.551  0.0674  0.2753  1.3288
  221MOL   H10326943   4.383   8.318   6.697  1.3041 -2.4467 -0.0531
  221MOL   C10426944   4.294   8.255   6.494 -0.3708 -0.2579 -0.8785
  221MOL   C10526945   4.241   8.120   6.533  0.2196 -0.0260  0.0207
  221MOL  Cl10626946   4.116   8.083   6.416  0.0796  0.1980 -0.3767
  221MOL   H10726947   4.337   8.250   6.394  0.6099 -2.4688 -0.3946
  221MOL   H10826948   4.216   8.331   6.491  0.4871  0.7347  1.0740
  221MOL   H10926949   4.320   8.045   6.526 -0.9253 -1.6608  3.4165
  221MOL   C11026950   4.191   8.107   6.678  0.3985 -0.2982  0.1311
  221MOL   C11126951   4.165   7.969   6.738  0.7358  0.4516 -0.0567
  221MOL  Cl11226952   4.072   7.979   6.895  0.1722  0.1389  0.6348
  221MOL   H11326953   4.106   8.176   6.672  0.8364  0.1768 -0.7124
  221MOL   H11426954   4.259   8.157   6.747 -2.2659 -1.8878  4.0832
  221MOL   H11526955   4.103   7.908   6.672 -0.0162  1.2341 -0.0671
  221MOL   C11626956   4.294   7.886   6.765 -0.1761  0.4182  0.1290
  221MOL   C11726957   4.253   7.744   6.810  0.4897 -0.7710 -0.1878
  221MOL  Cl11826958   4.394   7.633   6.816  0.1932  0.1075 -0.1623
  221MOL   H11926959   4.368   7.922   6.837  0.4358  0.1911 -0.3848
  221MOL   H12026960   4.346   7.883   6.669  1.5456 -0.3271  1.0537
  221MOL   H12126961   4.216   7.738   6.912  1.3717  0.9355  0.2424
  221MOL   H12226962   4.185   7.694   6.741 -1.8397  0.4043  1.2006
  222MOL     C126963   0.000   4.953   3.120 -0.1049  0.1277 -0.6700
  222MOL     C226964   8.415   4.848   3.085 -0.5407  0.0648  0.4103
  222MOL    Cl326965   8.407   4.852   2.908  0.2155  0.2013 -0.2979
  222MOL     H426966   0.086   4.928   3.058 -0.6783 -1.2974 -0.9231
  222MOL     H526967   8.491   5.049   3.083 -0.6780 -0.2633 -1.1599
  222MOL     H626968   8.444   4.748   3.118  0.2134 -0.3214 -1.3356
  222MOL     H726969   0.037   4.970   3.221  2.4523 -1.1279 -1.3301
  222MOL     C826970   8.277   4.888   3.143  0.2532  0.7402  0.6793
  222MOL     C926971   8.268   4.905   3.296 -0.2440 -0.4976  0.0447
  222MOL   Cl1026972   8.321   4.747   3.373  0.0530 -0.1150  0.0237
  222MOL    H1126973   8.199   4.816   3.118 -0.0238  0.7807  1.4062
  222MOL    H1226974   8.251   4.978   3.087  1.1473  0.2118 -0.5817
  222MOL    H1326975   8.333   4.977   3.346 -0.4221 -0.6625  0.5166
  222MOL    C1426976   8.119   4.921   3.342 -0.5937 -0.9562  0.2435
  222MOL    C1526977   8.043   5.047   3.280 -0.0119  0.1372 -0.0110
  222MOL   Cl1626978   8.119   5.187   3.348 -0.4504 -0.1371  0.0892
  222MOL    H1726979   8.125   4.926   3.451  0.7993  0.8488  0.1099
  222MOL    H1826980   8.055   4.836   3.322 -2.0261 -0.1220  1.2063
  222MOL    H1926981   8.057   5.058   3.172  1.4336  0.3336  0.1848
  222MOL    C2026982   7.895   5.045   3.313  0.0104  0.2382 -0.5144
  222MOL    C2126983   7.814   5.160   3.245 -0.9765  0.0637  0.2737
  222MOL   Cl2226984   7.653   5.163   3.326 -0.1004 -0.1074  0.3278
  222MOL    H2326985   7.886   5.047   3.422  2.1603  1.9020 -0.3409
  222MOL    H2426986   7.851   4.957   3.267  1.7509 -0.3970 -1.0026
  222MOL    H2526987   7.858   5.258   3.267 -0.2621 -0.0882 -0.4626
  222MOL    C2626988   7.798   5.142   3.094  0.4162  0.1754 -0.2453
  222MOL    C2726989   7.730   5.257   3.018 -0.3609  0.1552 -0.5504
  222MOL   Cl2826990   7.647   5.187   2.875  0.1443 -0.0075  0.1873
  222MOL    H2926991   7.727   5.059   3.089 -0.2651  0.3071  4.5684
  222MOL    H3026992   7.882   5.120   3.029  1.1319  3.9182 -0.6727
  222MOL    H3126993   7.642   5.287   3.076 -0.7313 -1.0918 -0.4679
  222MOL    C3226994   7.829   5.363   2.976 -0.3223 -0.6740  0.5252
  222MOL    C3326995   7.779   5.507   2.969 -0.4155 -0.0101 -0.1449
  222MOL   Cl3426996   7.897   5.611   2.885 -0.0003 -0.1714  0.1734
  222MOL    H3526997   7.880   5.327   2.886  0.8878 -0.7224  1.2198
  222MOL    H3626998   7.917   5.364   3.040 -0.2513  0.0517  0.4162
  222MOL    H3726999   7.685   5.519   2.916 -0.6150  0.0214  0.2162
  222MOL    C3827000   7.758   5.563   3.112  0.2836 -0.1548 -0.4237
  222MOL    C3927001   7.614   5.612   3.134  0.6197  0.1810  0.3434
  222MOL   Cl4027002   7.580   5.730   3.005 -0.3993 -0.2680 -0.3886
  222MOL    H4127003   7.831   5.642   3.128 -0.3740  0.0168  1.9940
  222MOL    H4227004   7.769   5.478   3.180 -1.5278 -1.1115 -1.2898
  222MOL    H4327005   7.548   5.525   3.125  0.6979 -0.0163  1.5409
  222MOL    C4427006   7.599   5.681   3.271 -0.2439  0.1741  0.5346
  222MOL    C4527007   7.609   5.582   3.389  0.3080  0.0686  0.3388
  222MOL   Cl4627008   7.469   5.471   3.378  0.2867  0.1884 -0.1867
  222MOL    H4727009   7.502   5.730   3.271  0.0936  0.8798 -1.6620
  222MOL    H4827010   7.666   5.765   3.285 -1.1136  0.5420  2.7076
  222MOL    H4927011   7.695   5.516   3.388  1.4057  1.4545  1.6404
  222MOL    C5027012   7.596   5.643   3.533 -0.3954  0.5081  0.1594
  222MOL    C5127013   7.736   5.637   3.604 -0.4102  0.0942  0.4972
  222MOL   Cl5227014   7.709   5.687   3.769  0.1503  0.0517  0.0187
  222MOL    H5327015   7.526   5.583   3.591 -2.1955  0.6354 -1.8227
  222MOL    H5427016   7.553   5.743   3.530 -1.5999 -0.0164 -0.1186
  222MOL    H5527017   7.767   5.533   3.619 -0.9049  0.1133  1.7424
  222MOL    C5627018   7.850   5.734   3.553 -0.3053 -0.6178  1.3852
  222MOL    C5727019   7.930   5.684   3.431 -0.1108 -0.1803 -0.6711
  222MOL   Cl5827020   7.980   5.510   3.450  0.1678  0.4278  0.2581
  222MOL    H5927021   7.914   5.757   3.639  0.3540  0.0989  0.7085
  222MOL    H6027022   7.809   5.831   3.527 -0.4167 -0.5702  1.7358
  222MOL    H6127023   7.863   5.681   3.345 -0.5439  0.4767 -0.3599
  222MOL    C6227024   8.058   5.760   3.397 -0.1840  0.2088 -0.0567
  222MOL    C6327025   8.053   5.915   3.373 -0.2242  0.2721 -0.4276
  222MOL   Cl6427026   7.958   5.927   3.220 -0.1003 -0.2669 -0.4162
  222MOL    H6527027   8.097   5.721   3.303  1.5994 -1.8125  1.4697
  222MOL    H6627028   8.139   5.746   3.469  2.7652  0.8061 -3.1327
  222MOL    H6727029   7.999   5.970   3.451 -0.6302 -1.6959  0.7215
  222MOL    C6827030   8.198   5.965   3.349  0.0033 -0.1069  0.0159
  222MOL    C6927031   8.236   6.121   3.352 -0.1023  0.0320 -0.4513
  222MOL   Cl7027032   8.103   6.218   3.276 -0.1871  0.0689  0.0624
  222MOL    H7127033   8.241   5.906   3.268 -0.0777 -1.1702  0.7471
  222MOL    H7227034   8.261   5.922   3.428  0.1895  0.7599  0.3473
  222MOL    H7327035   8.228   6.145   3.459  0.9039 -1.2081 -0.0922
  222MOL    C7427036   8.374   6.154   3.286 -0.7550  0.2526  0.3770
  222MOL    C7527037   8.453   6.273   3.344  0.2640  0.4376 -0.0893
  222MOL   Cl7627038   8.372   6.417   3.283 -0.2671  0.2666  0.4363
  222MOL    H7727039   8.365   6.162   3.177  1.4677  1.2015  0.2433
  222MOL    H7827040   8.437   6.068   3.305  1.4283  1.8144  0.4583
  222MOL    H7927041   8.448   6.277   3.453 -1.4255  0.4372 -0.1658
  222MOL    C8027042   0.072   6.271   3.303 -0.4724  0.6635 -0.5208
  222MOL    C8127043   0.169   6.194   3.392 -0.3734 -0.0954 -0.3546
  222MOL   Cl8227044   0.185   6.283   3.545 -0.1941  0.4248  0.3942
  222MOL    H8327045   0.107   6.373   3.291 -1.0024  0.8679 -0.3163
  222MOL    H8427046   0.077   6.236   3.200 -1.9626 -0.8095 -0.1214
  222MOL    H8527047   0.123   6.098   3.419 -1.7192  0.8371  0.7340
  222MOL    C8627048   0.314   6.163   3.333 -0.0596 -0.3087  0.6836
  222MOL    C8727049   0.411   6.105   3.429 -0.4017 -0.2614 -0.3533
  222MOL   Cl8827050   0.561   6.110   3.345  0.2009 -0.5078 -0.1971
  222MOL    H8927051   0.355   6.254   3.289  0.8065 -2.4345 -3.1716
  222MOL    H9027052   0.287   6.101   3.247  0.2079 -0.8122  0.9647
  222MOL    H9127053   0.430   6.164   3.519 -0.2014 -1.4043  0.3764
  222MOL    C9227054   0.377   5.960   3.476 -0.6305 -0.0938 -0.2101
  222MOL    C9327055   0.477   5.918   3.595 -0.6946 -0.2723  0.2661
  222MOL   Cl9427056   0.610   5.821   3.523  0.0335 -0.0299 -0.2514
  222MOL    H9527057   0.384   5.898   3.387 -0.0524  1.3427 -1.1916
  222MOL    H9627058   0.273   5.962   3.508 -0.7598  1.5991 -0.6705
  222MOL    H9727059   0.526   6.005   3.637 -0.8588  0.5946 -1.3080
  222MOL    C9827060   0.395   5.845   3.708 -0.2603  0.1749 -0.4642
  222MOL    C9927061   0.323   5.952   3.801 -0.1363  0.1704  0.0150
  222MOL  Cl10027062   0.441   6.034   3.898  0.0988 -0.3254  0.3721
  222MOL   H10127063   0.462   5.780   3.764 -0.7671 -0.2453 -0.3406
  222MOL   H10227064   0.326   5.770   3.670  0.4938 -0.2036 -1.0877
  222MOL   H10327065   0.270   6.031   3.749  0.0274  0.1450 -0.1884
  222MOL   C10427066   0.218   5.884   3.894 -0.7085  0.4062 -0.2172
  222MOL   C10527067   0.092   5.826   3.826 -0.3511 -0.2932  0.5955
  222MOL  Cl10627068   0.022   5.945   3.713  0.2868  0.1994  0.0088
  222MOL   H10727069   0.187   5.964   3.961 -1.6919  0.3580 -0.6191
  222MOL   H10827070   0.264   5.813   3.962 -2.7515 -0.0445  0.7178
  222MOL   H10927071   0.109   5.734   3.769  0.0535 -0.6356  1.2520
  222MOL   C11027072   8.507   5.790   3.929 -0.1158 -0.9792  0.6218
  222MOL   C11127073   0.018   5.691   4.043 -0.6432 -0.5385  0.6384
  222MOL  Cl11227074   0.018   5.526   3.975 -0.0318 -0.4894  0.4813
  222MOL   H11327075   8.435   5.742   3.861 -1.8450  2.7275 -0.2703
  222MOL   H11427076   8.462   5.881   3.968  0.3316 -0.7846  0.6913
  222MOL   H11527077   0.110   5.708   4.098 -0.1481  2.3532 -1.0054
  222MOL   C11627078   8.430   5.689   4.148  0.5526  0.1185  0.2036
  222MOL   C11727079   8.450   5.603   4.274 -0.1221 -0.7609 -0.5003
  222MOL  Cl11827080   8.316   5.617   4.388 -0.1671 -0.1092  0.0718
  222MOL   H11927081   8.332   5.670   4.104 -0.3896  4.0511  0.4042
  222MOL   H12027082   8.428   5.793   4.183  0.4548 -0.4007  1.7916
  222MOL   H12127083   8.463   5.498   4.248  1.4220 -0.2898 -1.7127
  222MOL   H12227084   0.014   5.648   4.320 -2.5436  0.7620  2.9465
  223MOL     C127085   0.818   4.805   5.221  0.4632 -0.5796 -0.1536
  223MOL     C227086   0.713   4.908   5.244  0.7442  0.0319 -0.3805
  223MOL    Cl327087   0.618   4.911   5.095  0.2124  0.0663  0.3892
  223MOL     H427088   0.774   4.708   5.201  0.4007 -1.2825  3.1487
  223MOL     H527089   0.869   4.841   5.131  0.6182  0.9804  0.5399
  223MOL     H627090   0.647   4.871   5.323 -1.0718  1.5637 -1.1302
  223MOL     H727091   0.889   4.795   5.303 -2.6828 -0.0358  2.7166
  223MOL     C827092   0.777   5.044   5.285 -0.0960 -1.1908 -0.1032
  223MOL     C927093   0.861   5.041   5.410 -0.4010 -0.3429  0.0786
  223MOL   Cl1027094   0.772   4.967   5.552  0.7070 -0.0146 -0.1618
  223MOL    H1127095   0.696   5.114   5.301  1.0809  0.1835 -0.1235
  223MOL    H1227096   0.832   5.081   5.199 -1.0177 -1.2906 -0.7442
  223MOL    H1327097   0.946   4.975   5.390 -0.7987 -1.4584  1.9514
  223MOL    C1427098   0.929   5.171   5.444 -0.0045  0.1624  0.3939
  223MOL    C1527099   1.009   5.243   5.343  0.0856 -0.4435  0.5643
  223MOL   Cl1627100   1.136   5.133   5.273  0.2727 -0.4568  0.3367
  223MOL    H1727101   0.983   5.146   5.535 -0.6433  0.3066  0.8184
  223MOL    H1827102   0.849   5.241   5.471  0.6795  0.9111  0.5090
  223MOL    H1927103   0.941   5.274   5.264  0.4423  0.2579  0.5275
  223MOL    C2027104   1.080   5.367   5.399 -0.1404 -0.1113  0.0923
  223MOL    C2127105   0.994   5.479   5.461  0.3506 -1.1271  1.1920
  223MOL   Cl2227106   0.886   5.554   5.342 -0.0651  0.2509  0.1120
  223MOL    H2327107   1.143   5.409   5.320  2.3594 -1.0672  1.5042
  223MOL    H2427108   1.158   5.335   5.468  0.3899 -0.4502 -0.6615
  223MOL    H2527109   0.926   5.432   5.532 -0.0570 -0.0900  1.4935
  223MOL    C2627110   1.078   5.587   5.529 -0.8281  0.6785  0.4258
  223MOL    C2727111   1.168   5.553   5.646  0.2344 -0.3692 -0.1947
  223MOL   Cl2827112   1.066   5.462   5.750 -0.0135  0.2530 -0.3236
  223MOL    H2927113   1.016   5.670   5.562 -1.6448 -0.1265  0.9561
  223MOL    H3027114   1.145   5.631   5.455 -0.0002 -1.0388  0.1248
  223MOL    H3127115   1.252   5.491   5.612  0.1532  0.5760 -2.1639
  223MOL    C3227116   1.233   5.675   5.714  1.1998  0.2494  0.1033
  223MOL    C3327117   1.358   5.638   5.808  0.1919 -0.2886 -0.8913
  223MOL   Cl3427118   1.288   5.586   5.967 -0.4635  0.1574  0.2407
  223MOL    H3527119   1.159   5.742   5.758 -0.2522  0.0050 -1.8864
  223MOL    H3627120   1.270   5.738   5.634 -2.5574  2.1488 -0.2656
  223MOL    H3727121   1.417   5.555   5.768  1.1360 -1.7721  3.3136
  223MOL    C3827122   1.447   5.764   5.835  0.0065 -0.8484 -0.4875
  223MOL    C3927123   1.565   5.746   5.933 -0.0118  0.6799 -0.5409
  223MOL   Cl4027124   1.622   5.914   5.955  0.7285  0.2329 -0.0676
  223MOL    H4127125   1.379   5.839   5.876  0.7688  0.5332 -1.6893
  223MOL    H4227126   1.483   5.808   5.742  3.3371 -1.0838  0.6346
  223MOL    H4327127   1.512   5.726   6.026  0.8557 -0.3056 -0.2509
  223MOL    C4427128   1.673   5.646   5.912 -0.4900 -0.1752  0.8537
  223MOL    C4527129   1.769   5.675   5.799  0.1784 -0.5919  0.3465
  223MOL   Cl4627130   1.689   5.621   5.642 -0.0116 -0.0327 -0.0334
  223MOL    H4727131   1.644   5.543   5.895 -0.7478  0.2380 -1.5200
  223MOL    H4827132   1.732   5.644   6.003  0.8804  0.2567 -0.0086
  223MOL    H4927133   1.774   5.783   5.788  0.6243 -0.3709  2.6377
  223MOL    C5027134   1.913   5.619   5.823  0.6349 -0.5180  1.1081
  223MOL    C5127135   1.923   5.461   5.827 -0.6063  0.6082 -0.1919
  223MOL   Cl5227136   1.875   5.384   5.988 -0.1879  0.3282  0.4098
  223MOL    H5327137   1.957   5.656   5.916 -0.7287 -0.2804  1.6661
  223MOL    H5427138   1.969   5.667   5.743  0.0378 -0.6870  0.5876
  223MOL    H5527139   1.850   5.424   5.754  0.4870 -0.3440 -0.8323
  223MOL    C5627140   2.057   5.412   5.777 -0.2633 -0.7279  0.0331
  223MOL    C5727141   2.178   5.446   5.858 -0.4971  0.0706  0.5658
  223MOL   Cl5827142   2.228   5.607   5.808  0.2658 -0.0264 -0.0366
  223MOL    H5927143   2.076   5.438   5.673  2.1859 -1.7415  0.1704
  223MOL    H6027144   2.039   5.305   5.768  0.7394 -1.1593  2.5913
  223MOL    H6127145   2.155   5.452   5.964 -1.1062  0.6443  0.3988
  223MOL    C6227146   2.296   5.349   5.829  0.5555  0.6256  0.1397
  223MOL    C6327147   2.412   5.337   5.937  0.1570  0.5445  0.6051
  223MOL   Cl6427148   2.350   5.305   6.102  0.1718  0.4505  0.1673
  223MOL    H6527149   2.342   5.378   5.734  2.4434 -1.8046  0.2739
  223MOL    H6627150   2.251   5.252   5.810  2.1165  0.2627 -1.8989
  223MOL    H6727151   2.463   5.245   5.911 -2.1978  0.1952 -3.3444
  223MOL    C6827152   2.497   5.467   5.952  0.0391  0.3347  0.0623
  223MOL    C6927153   2.637   5.443   6.021 -0.9428 -0.1682  0.3403
  223MOL   Cl7027154   2.742   5.584   6.013  0.0056  0.4836 -0.0119
  223MOL    H7127155   2.432   5.544   5.994  0.9844  0.9168  0.4628
  223MOL    H7227156   2.507   5.532   5.864  1.5886 -0.0222 -0.0350
  223MOL    H7327157   2.617   5.428   6.127 -1.0516  0.3527  0.3958
  223MOL    C7427158   2.722   5.325   5.961 -0.1253 -0.1900  0.1988
  223MOL    C7527159   2.869   5.299   6.011 -0.3351  0.7348 -0.0280
  223MOL   Cl7627160   2.935   5.147   5.953  0.0051  0.1379  0.1238
  223MOL    H7727161   2.724   5.338   5.853  1.3166  0.5257  0.2977
  223MOL    H7827162   2.666   5.233   5.971 -3.0580  1.2996 -1.6649
  223MOL    H7927163   2.931   5.377   5.968 -0.6725 -0.1433 -2.1716
  223MOL    C8027164   2.869   5.284   6.171  0.1651  0.2956 -0.1753
  223MOL    C8127165   3.000   5.239   6.237 -0.2567 -0.7299 -0.3225
  223MOL   Cl8227166   3.003   5.062   6.254 -0.3058 -0.2126  0.1745
  223MOL    H8327167   2.783   5.227   6.207  0.3597 -0.0681 -0.2778
  223MOL    H8427168   2.831   5.380   6.207 -2.1528 -1.1555  1.4046
  223MOL    H8527169   3.081   5.262   6.169 -1.4876  1.8228 -0.9687
  223MOL    C8627170   3.042   5.293   6.376  0.1547  0.2693  0.0849
  223MOL    C8727171   2.950   5.265   6.498  0.1378  0.9482  0.8843
  223MOL   Cl8827172   2.806   5.365   6.488 -0.2030 -0.2090 -0.2266
  223MOL    H8927173   3.056   5.401   6.371  1.0327  0.1199 -0.7159
  223MOL    H9027174   3.142   5.255   6.393 -0.2252  0.1407  2.2167
  223MOL    H9127175   2.929   5.158   6.496  1.6953  0.6367 -0.9924
  223MOL    C9227176   3.030   5.296   6.624  0.7368  0.3640 -0.0878
  223MOL    C9327177   3.155   5.218   6.662 -0.3524  0.1293 -0.4820
  223MOL   Cl9427178   3.122   5.045   6.660  0.6856  0.3188 -0.3149
  223MOL    H9527179   2.962   5.282   6.708  0.6775 -0.2943 -0.2451
  223MOL    H9627180   3.054   5.402   6.632 -2.8811  1.2243  0.2083
  223MOL    H9727181   3.232   5.238   6.587  0.3272  1.0243  0.4450
  223MOL    C9827182   3.219   5.244   6.799 -0.7666 -0.6426 -0.0020
  223MOL    C9927183   3.297   5.372   6.816  0.1941  0.1789  0.4872
  223MOL  Cl10027184   3.420   5.372   6.698 -0.4178  0.0003  0.1457
  223MOL   H10127185   3.282   5.157   6.821 -0.9002 -1.0336 -1.1392
  223MOL   H10227186   3.138   5.249   6.872  0.7152  0.7448  1.5991
  223MOL   H10327187   3.236   5.462   6.803 -0.5394 -0.5987 -1.6690
  223MOL   C10427188   3.377   5.375   6.949  0.1324 -0.2969 -0.1935
  223MOL   C10527189   3.285   5.387   7.070 -0.1468 -0.5802 -0.2132
  223MOL  Cl10627190   3.162   5.522   7.057 -0.1630 -0.0615 -0.3288
  223MOL   H10727191   3.451   5.455   6.938  0.5346 -0.7629 -0.9062
  223MOL   H10827192   3.433   5.282   6.955  2.1576  1.0377  2.7168
  223MOL   H10927193   3.215   5.305   7.083 -2.2099  0.8573 -1.9667
  223MOL   C11027194   3.361   5.412   7.204  0.8989 -0.4275  0.3525
  223MOL   C11127195   3.471   5.302   7.236  0.6927  0.2577  0.3887
  223MOL  Cl11227196   3.387   5.138   7.247  0.2352 -0.0465  0.4829
  223MOL   H11327197   3.295   5.415   7.291 -0.7441  0.3253 -0.8843
  223MOL   H11427198   3.395   5.516   7.211 -0.1189 -0.1408  1.1089
  223MOL   H11527199   3.554   5.295   7.165  1.1104  0.6303  0.8378
  223MOL   C11627200   3.534   5.316   7.373  0.4604 -0.4808  0.4012
  223MOL   C11727201   3.660   5.406   7.385  0.0757  0.4539 -0.0148
  223MOL  Cl11827202   3.616   5.582   7.389 -0.2134 -0.5266  0.3073
  223MOL   H11927203   3.566   5.215   7.399 -0.6548 -1.0961 -0.5517
  223MOL   H12027204   3.459   5.349   7.445  2.2478 -0.5955  2.3525
  223MOL   H12127205   3.720   5.381   7.472  2.2892 -2.4582 -2.2728
  223MOL   H12227206   3.728   5.393   7.301  0.1857 -2.2807  0.4560
  224MOL     C127207   5.929   7.923   0.043  0.0708 -0.6079  0.6920
  224MOL     C227208   5.782   7.878   0.009  0.7401 -0.5411  0.4911
  224MOL    Cl327209   5.760   7.874   8.357 -0.2593  0.0111 -0.0211
  224MOL     H427210   5.948   7.945   0.148 -0.3185  0.4221  0.5597
  224MOL     H527211   5.995   7.853   8.518 -3.2015 -1.8832 -2.0325
  224MOL     H627212   5.764   7.773   0.035 -0.6875 -0.8065 -1.4366
  224MOL     H727213   5.949   8.025   0.008  1.3531 -1.3351 -0.7361
  224MOL     C827214   5.672   7.962   0.080  0.6931 -0.0292 -1.0219
  224MOL     C927215   5.560   7.873   0.145  0.3637  0.0535  1.1872
  224MOL   Cl1027216   5.630   7.760   0.264 -0.4164 -0.2119 -0.1011
  224MOL    H1127217   5.622   8.023   0.005  0.9196  1.1510 -0.2136
  224MOL    H1227218   5.718   8.025   0.155  0.5403 -0.2387 -0.7491
  224MOL    H1327219   5.491   7.942   0.193 -0.6711 -0.0452 -0.1272
  224MOL    C1427220   5.476   7.791   0.037 -0.2156 -0.2250 -0.2174
  224MOL    C1527221   5.368   7.701   0.099  0.0908 -0.4783  0.4691
  224MOL   Cl1627222   5.295   7.615   8.489  0.1816  0.1127  0.2178
  224MOL    H1727223   5.534   7.727   8.495 -0.9866 -1.9222  0.6938
  224MOL    H1827224   5.434   7.868   8.497 -0.0045  0.8224  0.8663
  224MOL    H1927225   5.417   7.626   0.161  1.4735 -1.3648 -1.6406
  224MOL    C2027226   5.255   7.773   0.179  0.1674 -0.0126 -0.7185
  224MOL    C2127227   5.207   7.905   0.120  0.0655 -0.5470  0.9915
  224MOL   Cl2227228   5.265   8.042   0.218 -0.2741 -0.0406 -0.0466
  224MOL    H2327229   5.303   7.792   0.275 -0.9616  2.7947 -0.6709
  224MOL    H2427230   5.179   7.702   0.212  0.9431  0.1591  1.5377
  224MOL    H2527231   5.233   7.912   0.015 -0.1050 -2.1037  0.8368
  224MOL    C2627232   5.050   7.902   0.111 -0.6299 -0.1938  0.5211
  224MOL    C2727233   4.981   7.809   0.005 -0.4977 -0.2383  0.1800
  224MOL   Cl2827234   4.977   7.887   8.369 -0.0357  0.2962 -0.0583
  224MOL    H2927235   5.017   8.004   0.094 -1.3750 -0.1953  1.8403
  224MOL    H3027236   5.003   7.874   0.206  0.6702  1.2632  1.6193
  224MOL    H3127237   5.043   7.719   0.008 -2.1962 -1.4250  0.0895
  224MOL    C3227238   4.838   7.779   0.041  0.0812  0.2896  0.0709
  224MOL    C3327239   4.763   7.675   8.496  0.1043 -0.0588  0.2280
  224MOL   Cl3427240   4.588   7.720   8.519 -0.3916 -0.0585 -0.4143
  224MOL    H3527241   4.781   7.872   0.037 -0.8531 -0.2039  1.3077
  224MOL    H3627242   4.841   7.747   0.145 -0.3070  2.9509  0.9488
  224MOL    H3727243   4.786   7.684   8.390 -0.1586 -1.5259  0.0290
  224MOL    C3827244   4.772   7.526   0.016  0.1188  0.4441  0.1428
  224MOL    C3927245   4.907   7.459   8.494  0.6285 -0.0200  0.2587
  224MOL   Cl4027246   4.904   7.436   8.325 -0.2759 -0.2579 -0.2456
  224MOL    H4127247   4.696   7.456   8.509  0.3168  0.1453  0.3230
  224MOL    H4227248   4.776   7.526   0.125 -1.3741 -0.0910  0.2009
  224MOL    H4327249   4.992   7.525   8.514  0.3069  0.2603  0.7173
  224MOL    C4427250   4.927   7.320   0.036 -0.1425  0.0253  0.4729
  224MOL    C4527251   5.069   7.266   0.053 -0.0453  0.4250  0.6355
  224MOL   Cl4627252   5.170   7.390   0.137  0.1225  0.4076 -0.5037
  224MOL    H4727253   4.868   7.235   0.000  0.9266 -0.6730  0.3235
  224MOL    H4827254   4.897   7.349   0.136  0.7844 -0.7817  0.9949
  224MOL    H4927255   5.060   7.185   0.126 -0.0558 -0.5970 -0.4820
  224MOL    C5027256   5.140   7.229   8.449  0.1440  0.1039 -0.7034
  224MOL    C5127257   5.078   7.101   8.388  0.2358  0.1774 -0.0974
  224MOL   Cl5227258   5.117   6.964   8.500  0.1404 -0.0256  0.1552
  224MOL    H5327259   5.247   7.228   8.469  0.6179  3.1969 -2.7026
  224MOL    H5427260   5.141   7.315   8.382  3.5462  2.2248  1.9454
  224MOL    H5527261   4.970   7.112   8.379  0.0465  0.8051  2.3945
  224MOL    C5627262   5.135   7.066   8.246  0.1951 -0.4644 -0.7279
  224MOL    C5727263   5.081   7.147   8.125  0.3663  0.0298  0.4080
  224MOL   Cl5827264   4.905   7.126   8.110 -0.1806  0.2342 -0.0114
  224MOL    H5927265   5.116   6.960   8.227 -2.0080 -0.5641  1.6317
  224MOL    H6027266   5.242   7.060   8.265  0.3593  0.9425 -1.1623
  224MOL    H6127267   5.101   7.254   8.136 -0.2818 -0.0246  2.2699
  224MOL    C6227268   5.139   7.098   7.991  0.1794 -0.6380  0.2913
  224MOL    C6327269   5.298   7.107   7.989  0.1135  0.9000  0.7716
  224MOL   Cl6427270   5.364   7.269   8.051  0.4058 -0.2274  0.3782
  224MOL    H6527271   5.083   7.138   7.907 -0.0753 -2.0547 -0.2150
  224MOL    H6627272   5.112   6.993   7.986 -1.1317 -0.2630 -0.7867
  224MOL    H6727273   5.328   7.038   8.068  0.9888  2.0470  1.4443
  224MOL    C6827274   5.358   7.063   7.852 -0.7587  0.6908  0.3318
  224MOL    C6927275   5.501   6.994   7.860 -0.5001  0.2584 -0.6886
  224MOL   Cl7027276   5.625   7.114   7.917  0.3449 -0.1057  0.2197
  224MOL    H7127277   5.359   7.160   7.802 -0.0118  0.5063 -0.0237
  224MOL    H7227278   5.287   7.001   7.796  0.4029 -0.4936  0.1399
  224MOL    H7327279   5.503   6.920   7.940 -2.2449  1.0516  0.1168
  224MOL    C7427280   5.553   6.933   7.731  0.0708  0.3043 -0.1161
  224MOL    C7527281   5.463   6.821   7.677 -0.3161 -0.7631 -0.4743
  224MOL   Cl7627282   5.457   6.688   7.786 -0.0915  0.1707  0.0746
  224MOL    H7727283   5.649   6.887   7.751 -0.5141 -0.6939  0.4293
  224MOL    H7827284   5.559   7.014   7.658 -0.6955  0.0822 -0.4385
  224MOL    H7927285   5.359   6.848   7.655  0.1204  1.7111  0.3715
  224MOL    C8027286   5.536   6.774   7.542  0.2937  0.4688  0.1487
  224MOL    C8127287   5.519   6.874   7.422  0.4756  0.1238  0.1195
  224MOL   Cl8227288   5.345   6.904   7.395  0.4582 -0.0480 -0.0593
  224MOL    H8327289   5.519   6.670   7.517  0.4595 -0.1480  2.5483
  224MOL    H8427290   5.644   6.768   7.557 -0.0712 -2.2262  2.0849
  224MOL    H8527291   5.571   6.964   7.454  1.3576 -0.1381 -0.5725
  224MOL    C8627292   5.574   6.819   7.292  0.3445 -0.4592  0.9791
  224MOL    C8727293   5.730   6.806   7.275 -0.6845  0.0828  0.8224
  224MOL   Cl8827294   5.759   6.805   7.099 -0.1022  0.1874  0.0372
  224MOL    H8927295   5.541   6.888   7.214 -0.2489  0.4555  2.0213
  224MOL    H9027296   5.532   6.718   7.299 -0.5394 -0.1814 -0.1662
  224MOL    H9127297   5.777   6.896   7.315 -1.0255  0.6003  0.0693
  224MOL    C9227298   5.798   6.674   7.320  0.1492  0.3705  0.2222
  224MOL    C9327299   5.953   6.671   7.332 -0.3289  0.0161  1.0475
  224MOL   Cl9427300   6.006   6.819   7.409  0.1997  0.2606  0.0144
  224MOL    H9527301   5.768   6.587   7.261  2.3439  0.3164 -0.8654
  224MOL    H9627302   5.760   6.655   7.421  0.4080 -1.8222 -0.0671
  224MOL    H9727303   5.990   6.599   7.405  1.1653 -1.4357 -1.1060
  224MOL    C9827304   6.027   6.636   7.201 -0.1446  0.1699 -0.4266
  224MOL    C9927305   6.016   6.492   7.143  0.7325  0.0098 -0.5820
  224MOL  Cl10027306   6.082   6.378   7.251 -0.0140  0.1104  0.2873
  224MOL   H10127307   6.131   6.650   7.229 -0.1801  1.0753 -0.7288
  224MOL   H10227308   6.009   6.710   7.123  0.0405 -0.8234 -1.4201
  224MOL   H10327309   5.909   6.471   7.144  0.4680  1.3299 -0.3390
  224MOL   C10427310   6.079   6.472   7.008  0.3187 -0.0921  0.1201
  224MOL   C10527311   6.043   6.339   6.939  0.8271  0.3225  0.3865
  224MOL  Cl10627312   6.147   6.305   6.804  0.0877 -0.2224 -0.1922
  224MOL   H10727313   6.186   6.487   7.007  0.1270  1.3199 -1.3228
  224MOL   H10827314   6.048   6.554   6.943 -1.5017 -1.3187 -0.6393
  224MOL   H10927315   6.053   6.253   7.006 -0.6356 -0.9777 -1.0235
  224MOL   C11027316   5.895   6.348   6.884 -0.0261  0.8280 -0.5840
  224MOL   C11127317   5.823   6.215   6.841  0.8759  0.2501  0.8658
  224MOL  Cl11227318   5.664   6.256   6.775  0.5267 -0.2268  0.0426
  224MOL   H11327319   5.891   6.415   6.798  1.4825  1.3862 -0.2396
  224MOL   H11427320   5.831   6.395   6.959 -0.5022 -0.2567 -0.3031
  224MOL   H11527321   5.886   6.169   6.764 -0.8495  2.3397 -1.9043
  224MOL   C11627322   5.803   6.122   6.957 -0.0339  0.0212  0.0594
  224MOL   C11727323   5.730   5.985   6.926 -1.1291 -0.2704  0.1402
  224MOL  Cl11827324   5.775   5.862   7.053  0.4526 -0.2865  0.2063
  224MOL   H11927325   5.751   6.182   7.031 -0.4954  0.3408 -0.5210
  224MOL   H12027326   5.899   6.096   7.001  1.8379  0.8021 -3.3694
  224MOL   H12127327   5.621   5.985   6.918 -1.1426 -1.0726  0.3257
  224MOL   H12227328   5.779   5.945   6.838  1.7746  0.0857  1.5539
  225MOL     C127329   0.156   4.666   1.006  0.3279  0.3096  0.3463
  225MOL     C227330   0.237   4.577   0.911 -0.0431  0.6649  0.4839
  225MOL    Cl327331   0.384   4.511   0.986 -0.6192  0.3587 -0.3648
  225MOL     H427332   0.179   4.642   1.110  0.1891 -1.5311 -0.0244
  225MOL     H527333   0.177   4.772   0.993 -2.7132  0.8385 -0.6078
  225MOL     H627334   0.178   4.487   0.888  2.1848 -0.2821 -1.7962
  225MOL     H727335   0.048   4.669   0.993  0.4578 -1.8015 -1.5081
  225MOL     C827336   0.270   4.648   0.780 -0.4210  0.3532  0.0649
  225MOL     C927337   0.153   4.715   0.706  0.8989 -0.3776 -0.4189
  225MOL   Cl1027338   0.017   4.609   0.670  0.3187  0.2503  0.0410
  225MOL    H1127339   0.311   4.574   0.711  0.5210  0.7361  0.1905
  225MOL    H1227340   0.350   4.722   0.793 -1.1139  0.9925  0.6756
  225MOL    H1327341   0.119   4.787   0.781 -0.0887 -1.7014  0.4286
  225MOL    C1427342   0.182   4.788   0.567 -0.9130  0.1172 -0.6156
  225MOL    C1527343   0.288   4.897   0.572 -0.1388  0.3355 -0.1186
  225MOL   Cl1627344   0.255   5.014   0.705  0.1511 -0.1504 -0.3333
  225MOL    H1727345   0.094   4.841   0.532 -3.0538 -2.3543  0.8495
  225MOL    H1827346   0.198   4.708   0.495 -0.6934  0.0321 -0.4752
  225MOL    H1927347   0.382   4.847   0.596 -1.0873 -0.6172  1.7197
  225MOL    C2027348   0.291   4.983   0.446  0.0385  0.0903 -1.1643
  225MOL    C2127349   0.327   4.902   0.321  0.2590  0.6103  0.0270
  225MOL   Cl2227350   0.474   4.804   0.349  0.2618  0.4387  0.1138
  225MOL    H2327351   0.370   5.056   0.463  0.4632 -0.8987  1.2352
  225MOL    H2427352   0.199   5.035   0.421 -0.3589 -0.4697 -0.8873
  225MOL    H2527353   0.249   4.827   0.305 -0.2068  1.1317 -0.1672
  225MOL    C2627354   0.359   4.967   0.185  0.2562  0.0575 -0.1675
  225MOL    C2727355   0.237   5.062   0.148  0.1037 -0.3819 -0.7070
  225MOL   Cl2827356   0.088   4.965   0.125  0.1423 -0.2051  0.0664
  225MOL    H2927357   0.378   4.891   0.109 -1.3973 -1.3079  0.7251
  225MOL    H3027358   0.453   5.021   0.187 -0.3288  1.0657  1.1788
  225MOL    H3127359   0.216   5.132   0.229 -1.6380  0.4998 -1.9001
  225MOL    C3227360   0.259   5.160   0.035 -0.3478 -0.0863 -1.2388
  225MOL    C3327361   0.287   5.087   8.429 -0.0271 -0.5697  0.2434
  225MOL   Cl3427362   0.462   5.060   8.414 -0.1112 -0.0445 -0.2927
  225MOL    H3527363   0.329   5.241   0.056  0.2750 -1.4014  2.0285
  225MOL    H3627364   0.173   5.227   0.036  0.1132  0.5143 -1.3490
  225MOL    H3727365   0.234   4.992   8.433  0.7245 -1.0632 -1.1293
  225MOL    C3827366   0.251   5.174   8.310  0.0063 -0.3607 -0.2398
  225MOL    C3927367   0.295   5.137   8.170  0.7739  0.3366 -0.2587
  225MOL   Cl4027368   0.230   5.269   8.067 -0.0226 -0.0090  0.1853
  225MOL    H4127369   0.276   5.279   8.326  0.1074 -0.5672  0.9817
  225MOL    H4227370   0.143   5.179   8.303  0.0514 -0.9623 -1.5674
  225MOL    H4327371   0.404   5.140   8.166  0.6730  2.2713 -2.3707
  225MOL    C4427372   0.266   4.999   8.112  0.7440  0.0529  0.3627
  225MOL    C4527373   0.117   4.971   8.097  0.4077 -0.0539 -0.0142
  225MOL   Cl4627374   0.041   4.907   8.246  0.2810  0.2633  0.1827
  225MOL    H4727375   0.306   4.912   8.165 -1.4836 -1.6631 -0.6818
  225MOL    H4827376   0.316   4.980   8.017  1.2238  1.2854  0.3666
  225MOL    H4927377   0.055   5.059   8.081  2.2568  1.9219  3.1019
  225MOL    C5027378   0.091   4.869   7.980  0.7788 -0.3607 -0.0503
  225MOL    C5127379   8.463   4.848   7.947 -0.3661 -0.0158 -0.1891
  225MOL   Cl5227380   8.441   4.700   7.848 -0.0334 -0.1723 -0.4329
  225MOL    H5327381   0.142   4.776   8.004 -1.2145 -0.4532  4.3020
  225MOL    H5427382   0.140   4.914   7.893  1.2738 -0.4603  0.1745
  225MOL    H5527383   8.420   4.832   8.046  0.1323  0.5766  0.1270
  225MOL    C5627384   8.394   4.977   7.884  0.2526 -0.1029 -0.3859
  225MOL    C5727385   8.457   5.034   7.751  0.0746  0.2086 -0.1976
  225MOL   Cl5827386   0.073   5.134   7.797 -0.4629  0.0891 -0.0580
  225MOL    H5927387   8.381   5.053   7.961 -1.9907  1.2734 -2.0622
  225MOL    H6027388   8.292   4.948   7.858  0.3898 -0.6138 -0.3693
  225MOL    H6127389   8.494   4.950   7.692  0.3298 -0.0980  0.3962
  225MOL    C6227390   8.366   5.130   7.669 -0.0568  0.3805  0.2438
  225MOL    C6327391   8.436   5.200   7.550  0.1428  0.6433  0.1868
  225MOL   Cl6427392   8.303   5.277   7.460 -0.0004  0.1630  0.0744
  225MOL    H6527393   8.325   5.216   7.721 -1.0642  0.6652 -0.9794
  225MOL    H6627394   8.275   5.074   7.647  1.1158 -1.0688 -1.0474
  225MOL    H6727395   8.502   5.283   7.575 -0.1099  1.2577 -1.1330
  225MOL    C6827396   8.510   5.102   7.454 -0.3701 -0.0348 -0.4317
  225MOL    C6927397   0.062   5.167   7.335 -0.2164 -0.4146  0.2779
  225MOL   Cl7027398   0.076   5.032   7.217  0.0638 -0.3208  0.0176
  225MOL    H7127399   8.425   5.050   7.408  0.9012 -0.1678 -2.7042
  225MOL    H7227400   0.040   5.022   7.503 -2.8396 -0.9754  0.9065
  225MOL    H7327401   8.521   5.244   7.295  1.1263 -0.2127 -1.6378
  225MOL    C7427402   0.200   5.213   7.378  0.2484  0.0959 -0.0078
  225MOL    C7527403   0.301   5.234   7.273  1.6281  0.4644 -0.3525
  225MOL   Cl7627404   0.463   5.266   7.362 -0.0352  0.3348  0.1497
  225MOL    H7727405   0.245   5.140   7.446 -1.1611  1.3857  2.3711
  225MOL    H7827406   0.192   5.298   7.446  0.3973  0.3388 -0.2936
  225MOL    H7927407   0.315   5.140   7.220 -1.6231 -2.5734  3.8182
  225MOL    C8027408   0.257   5.337   7.175  0.3402  0.4939 -0.3686
  225MOL    C8127409   0.338   5.342   7.043 -0.6745  0.2774 -0.6483
  225MOL   Cl8227410   0.319   5.507   6.977  0.8134 -0.2190 -0.0024
  225MOL    H8327411   0.258   5.432   7.227 -1.3278 -1.2076  2.9631
  225MOL    H8427412   0.153   5.317   7.149 -0.1086  1.8203  0.3802
  225MOL    H8527413   0.444   5.338   7.069 -0.4262  3.7699 -0.8884
  225MOL    C8627414   0.296   5.244   6.943 -0.1400  0.0214  0.1035
  225MOL    C8727415   0.404   5.223   6.833  0.1403 -0.2885 -0.1424
  225MOL   Cl8827416   0.338   5.188   6.674 -0.4992  0.2405  0.0422
  225MOL    H8927417   0.206   5.280   6.893  0.3181  0.7229 -0.2171
  225MOL    H9027418   0.264   5.147   6.980  1.8237  0.2078  2.3837
  225MOL    H9127419   0.460   5.314   6.812 -1.1477  0.6201  0.3143
  225MOL    C9227420   0.506   5.106   6.862 -0.4271 -1.2364 -0.2881
  225MOL    C9327421   0.599   5.123   6.982 -0.3098 -0.5762 -0.2664
  225MOL   Cl9427422   0.721   5.254   6.945  0.0603  0.1059 -0.8265
  225MOL    H9527423   0.557   5.096   6.766 -1.2274  1.8421 -1.0834
  225MOL    H9627424   0.444   5.017   6.870  0.2340 -1.6227  0.6994
  225MOL    H9727425   0.559   5.153   7.079  0.0539 -3.1352  0.7049
  225MOL    C9827426   0.667   4.991   7.021 -0.4453 -0.1201 -0.0621
  225MOL    C9927427   0.775   5.004   7.137 -0.2852  0.3532 -0.5407
  225MOL  Cl10027428   0.887   4.864   7.134  0.0606 -0.0166  0.1002
  225MOL   H10127429   0.732   4.969   6.936 -0.9251 -4.9981  0.6773
  225MOL   H10227430   0.608   4.900   7.026 -1.1373  0.3261 -0.1370
  225MOL   H10327431   0.845   5.084   7.115 -0.2319  1.2332  2.6000
  225MOL   C10427432   0.705   5.017   7.274 -0.1913  0.1715 -0.0232
  225MOL   C10527433   0.784   5.014   7.403 -0.0632 -0.1831  0.6081
  225MOL  Cl10627434   0.680   5.025   7.549 -0.2726 -0.4602 -0.0079
  225MOL   H10727435   0.626   4.944   7.285 -2.3591  2.1745 -1.7305
  225MOL   H10827436   0.652   5.112   7.279  0.8756  0.7534  0.4652
  225MOL   H10927437   0.826   4.914   7.407 -0.1497 -0.1385  4.3266
  225MOL   C11027438   0.895   5.117   7.422 -0.1748 -0.4222 -0.0895
  225MOL   C11127439   0.999   5.097   7.542 -0.3353  1.0068  0.4746
  225MOL  Cl11227440   1.109   5.229   7.508  0.0822 -0.2714 -0.0741
  225MOL   H11327441   0.855   5.218   7.419 -0.9572 -0.6748  1.4834
  225MOL   H11427442   0.961   5.110   7.335  0.0167 -0.1162  0.0311
  225MOL   H11527443   0.963   5.119   7.643 -1.1827 -0.0832  0.4173
  225MOL   C11627444   1.091   4.979   7.545  0.0115  0.1376 -0.9462
  225MOL   C11727445   1.033   4.864   7.627 -0.4524  0.8782  0.0483
  225MOL  Cl11827446   1.054   4.894   7.804  0.0408 -0.1976  0.2699
  225MOL   H11927447   1.183   5.010   7.594  0.2903 -0.8679 -0.8155
  225MOL   H12027448   1.111   4.944   7.444 -0.1068  0.3441 -1.0394
  225MOL   H12127449   0.927   4.850   7.607 -0.5266  0.9079  0.4115
  225MOL   H12227450   1.080   4.769   7.601  0.5892  1.7327 -1.2313
  226MOL     C127451   0.547   6.733   5.126 -0.4651  0.7693 -0.0423
  226MOL     C227452   0.478   6.849   5.190 -0.5176 -1.0748  0.1156
  226MOL    Cl327453   0.366   6.785   5.309  0.1470 -0.0035 -0.0411
  226MOL     H427454   0.477   6.672   5.070  0.9472 -1.6416  0.7157
  226MOL     H527455   0.628   6.753   5.056 -1.1273 -1.7023 -1.5498
  226MOL     H627456   0.544   6.921   5.239 -1.3539  0.9135 -1.6365
  226MOL     H727457   0.587   6.673   5.208 -1.6658 -0.8222 -0.6162
  226MOL     C827458   0.407   6.929   5.082  0.3731  0.1419  0.1997
  226MOL     C927459   0.327   7.050   5.121 -0.1974  0.1669  0.6357
  226MOL   Cl1027460   0.238   7.118   4.983  0.0568  0.0140  0.0144
  226MOL    H1127461   0.339   6.875   5.017  1.3908 -1.1885  0.2112
  226MOL    H1227462   0.486   6.961   5.014 -1.5677 -2.3797 -3.3365
  226MOL    H1327463   0.250   7.024   5.194 -1.5054  0.9250 -0.4554
  226MOL    C1427464   0.426   7.167   5.177  0.4653  0.3538  0.5165
  226MOL    C1527465   0.355   7.308   5.197 -0.2201  0.3976 -0.3307
  226MOL   Cl1627466   0.490   7.418   5.182  0.2945 -0.2746  0.0159
  226MOL    H1727467   0.510   7.182   5.109  1.5661 -0.9398  1.5649
  226MOL    H1827468   0.470   7.146   5.274  0.1677 -0.5662  0.4581
  226MOL    H1927469   0.280   7.340   5.125  1.6697  0.6943 -2.2124
  226MOL    C2027470   0.291   7.339   5.330 -0.2844  0.6846  0.2653
  226MOL    C2127471   0.153   7.286   5.350 -0.4299 -0.0722  0.5030
  226MOL   Cl2227472   0.046   7.388   5.256 -0.5563 -0.1843 -0.5793
  226MOL    H2327473   0.299   7.446   5.348  1.5075  0.9670 -1.9365
  226MOL    H2427474   0.358   7.282   5.394  0.0753  1.2682  0.4101
  226MOL    H2527475   0.156   7.185   5.308 -0.6647  0.2567 -0.3113
  226MOL    C2627476   0.109   7.279   5.492  0.4577 -0.4700 -0.2332
  226MOL    C2727477   0.166   7.174   5.585  0.2611  0.9222 -0.3063
  226MOL   Cl2827478   0.154   7.013   5.505 -0.3885 -0.1451  0.2822
  226MOL    H2927479   0.000   7.271   5.494  0.4252  0.1568  1.0493
  226MOL    H3027480   0.116   7.377   5.539 -0.9314 -1.1597  1.4743
  226MOL    H3127481   0.271   7.202   5.578  1.1130 -1.5195  1.9975
  226MOL    C3227482   0.114   7.173   5.725  0.1706  0.3347  0.0615
  226MOL    C3327483   8.489   7.156   5.734 -0.4086  0.8769  0.2573
  226MOL   Cl3427484   8.414   7.315   5.717 -0.1455  0.1905 -0.1988
  226MOL    H3527485   0.134   7.273   5.765 -3.1517  1.8582 -1.8829
  226MOL    H3627486   0.173   7.100   5.781  0.6735  1.6931  1.3615
  226MOL    H3727487   8.452   7.083   5.661  1.5582  0.7525 -0.6343
  226MOL    C3827488   8.450   7.096   5.864 -0.0476 -0.1865  0.6289
  226MOL    C3927489   8.487   6.948   5.901  0.0100 -0.3811 -0.7368
  226MOL   Cl4027490   8.407   6.840   5.788  0.4353 -0.0526  0.1145
  226MOL    H4127491   8.342   7.102   5.874 -0.0755 -0.4798  0.5267
  226MOL    H4227492   8.489   7.163   5.941  1.8806 -0.2185 -0.2909
  226MOL    H4327493   0.069   6.932   5.887  0.5770  1.9841  0.6482
  226MOL    C4427494   8.459   6.907   6.051 -0.4865 -1.0022  0.7171
  226MOL    C4527495   8.487   6.760   6.084 -0.0515 -0.1361 -0.1211
  226MOL   Cl4627496   8.433   6.719   6.244 -0.2188  0.1909  0.0106
  226MOL    H4727497   8.354   6.920   6.075 -0.9033  0.2899 -1.6098
  226MOL    H4827498   8.515   6.971   6.119  1.1612  0.4887 -1.9147
  226MOL    H4927499   8.417   6.704   6.021 -0.6789 -1.5880  1.8265
  226MOL    C5027500   0.101   6.711   6.046  0.5092  0.3688 -0.3034
  226MOL    C5127501   0.230   6.769   6.122 -0.3968 -0.2267  0.2124
  226MOL   Cl5227502   0.268   6.930   6.053  0.1587  0.0931  0.0515
  226MOL    H5327503   0.122   6.719   5.939 -1.5375 -0.1398 -0.7709
  226MOL    H5427504   0.100   6.606   6.074  0.0742 -0.4540 -3.1977
  226MOL    H5527505   0.195   6.784   6.224  0.8832 -0.1437  0.6449
  226MOL    C5627506   0.352   6.680   6.106 -0.4124 -0.4428  0.0404
  226MOL    C5727507   0.344   6.551   6.186 -0.4990 -0.6032 -0.7067
  226MOL   Cl5827508   0.312   6.592   6.352  0.0259  0.5948 -0.2030
  226MOL    H5927509   0.429   6.741   6.153  0.0715  0.3962 -1.8007
  226MOL    H6027510   0.364   6.649   6.002 -3.5923 -4.3380  0.6927
  226MOL    H6127511   0.255   6.496   6.159 -1.4921  0.2890  0.6617
  226MOL    C6227512   0.473   6.461   6.170 -0.4529 -0.4295 -0.5850
  226MOL    C6327513   0.610   6.506   6.227  0.0357 -0.0541  0.1600
  226MOL   Cl6427514   0.676   6.639   6.122 -0.5509 -0.4706  0.0682
  226MOL    H6527515   0.489   6.439   6.065 -0.7577  2.1605 -1.2066
  226MOL    H6627516   0.447   6.366   6.216  1.6608 -1.6179 -1.7954
  226MOL    H6727517   0.601   6.535   6.331 -2.5845  2.4431 -0.7044
  226MOL    C6827518   0.710   6.391   6.211 -0.2944 -0.6321 -0.2193
  226MOL    C6927519   0.679   6.267   6.296 -0.2044 -0.1320 -0.6477
  226MOL   Cl7027520   0.668   6.313   6.465  0.0184  0.3798 -0.4931
  226MOL    H7127521   0.806   6.424   6.251 -0.2415 -1.5838  0.4297
  226MOL    H7227522   0.713   6.353   6.109  4.0933 -0.8989 -0.0862
  226MOL    H7327523   0.591   6.209   6.269 -0.9303  1.4267 -1.6869
  226MOL    C7427524   0.791   6.167   6.291 -0.6503  0.6848  0.5032
  226MOL    C7527525   0.825   6.109   6.152 -0.0055 -0.5346  0.5989
  226MOL   Cl7627526   0.719   5.962   6.128  0.0229 -0.0139  0.0052
  226MOL    H7727527   0.785   6.091   6.368 -2.2857  1.2517  0.9460
  226MOL    H7827528   0.876   6.223   6.329 -0.8067  1.7897 -0.7204
  226MOL    H7927529   0.807   6.181   6.072 -0.7926 -1.8419 -0.4419
  226MOL    C8027530   0.965   6.052   6.131  0.1113  0.4352 -0.1289
  226MOL    C8127531   1.015   6.013   5.989 -0.2567 -0.0269 -0.0586
  226MOL   Cl8227532   1.175   5.944   6.010  0.0607 -0.0282 -0.5198
  226MOL    H8327533   0.966   5.970   6.203 -1.1609  0.8071  0.3423
  226MOL    H8427534   1.036   6.123   6.173  1.1814  0.2679 -1.6000
  226MOL    H8527535   0.950   5.935   5.948 -1.5871 -0.3976  2.5709
  226MOL    C8627536   1.020   6.131   5.885  0.3795  0.3019 -0.1258
  226MOL    C8727537   1.063   6.096   5.740 -0.7891 -0.2865 -0.2830
  226MOL   Cl8827538   0.985   5.940   5.676  0.1020 -0.2339  0.1773
  226MOL    H8927539   1.068   6.221   5.924  1.2452 -0.0061 -0.4687
  226MOL    H9027540   0.914   6.152   5.868  0.4281  1.5217  0.9367
  226MOL    H9127541   1.020   6.178   5.681 -0.8139  2.4354  3.3654
  226MOL    C9227542   1.217   6.090   5.718 -0.1326  0.4223  0.3142
  226MOL    C9327543   1.258   6.075   5.570 -0.0232  0.5172 -0.4205
  226MOL   Cl9427544   1.429   6.020   5.568 -0.0093 -0.0546  0.5118
  226MOL    H9527545   1.253   6.004   5.774 -0.3145  0.1328 -0.0122
  226MOL    H9627546   1.265   6.173   5.768 -1.0075  1.0510  0.1295
  226MOL    H9727547   1.204   5.997   5.518 -0.4474  0.4202  0.1667
  226MOL    C9827548   1.256   6.206   5.495  0.4948 -0.1043  0.2079
  226MOL    C9927549   1.230   6.191   5.345  0.0672 -0.7165  0.2148
  226MOL  Cl10027550   1.267   6.345   5.260  0.2795 -0.1289 -0.0099
  226MOL   H10127551   1.354   6.253   5.506  0.5379 -0.5820  1.9125
  226MOL   H10227552   1.175   6.267   5.535 -0.0821 -0.1261 -0.9035
  226MOL   H10327553   1.288   6.110   5.302 -0.0079 -0.8385  0.3393
  226MOL   C10427554   1.085   6.155   5.313 -0.9438 -0.6008 -0.0833
  226MOL   C10527555   1.058   6.137   5.162 -0.3375  0.3275 -0.5041
  226MOL  Cl10627556   0.880   6.131   5.138 -0.0857  0.2684  0.5186
  226MOL   H10727557   1.013   6.224   5.356 -0.0965  0.0297  0.3215
  226MOL   H10827558   1.051   6.060   5.354 -1.6448 -0.1493  0.3763
  226MOL   H10927559   1.091   6.229   5.114 -1.3194  0.7910 -0.3131
  226MOL   C11027560   1.135   6.017   5.092  0.8337  0.4637  0.0791
  226MOL   C11127561   1.091   5.883   5.155  0.1672  0.8764  0.3555
  226MOL  Cl11227562   1.222   5.815   5.261  0.3512 -0.6814 -0.3835
  226MOL   H11327563   1.243   6.035   5.092  0.4892  2.6648  1.5123
  226MOL   H11427564   1.105   6.024   4.987  1.4726  2.4986  0.0121
  226MOL   H11527565   1.003   5.891   5.219  1.6526  2.7255  2.2370
  226MOL   C11627566   1.066   5.764   5.051  0.6677 -0.6486  0.1045
  226MOL   C11727567   0.944   5.799   4.965  0.0209  0.0968 -0.4082
  226MOL  Cl11827568   0.878   5.656   4.873 -0.1937  0.0296  0.2095
  226MOL   H11927569   1.045   5.676   5.112 -1.4445  1.0446  1.9133
  226MOL   H12027570   1.147   5.740   4.983 -0.4440  2.7894 -2.5997
  226MOL   H12127571   0.867   5.815   5.040 -0.2536 -3.2377  0.0925
  226MOL   H12227572   0.951   5.888   4.902 -1.7483  0.3307 -0.2847
  227MOL     C127573   6.678   0.537   2.676 -0.1783 -0.5120 -0.0673
  227MOL     C227574   6.579   0.565   2.787  0.3123 -0.2521  0.8331
  227MOL    Cl327575   6.661   0.550   2.946 -0.0337 -0.0394  0.2074
  227MOL     H427576   6.637   0.562   2.578  2.1537 -3.9342 -2.0230
  227MOL     H527577   6.770   0.593   2.693 -0.3710  0.5838 -2.4165
  227MOL     H627578   6.537   0.665   2.775 -0.3639 -0.4955  1.1357
  227MOL     H727579   6.704   0.431   2.673 -0.8039 -0.7073  1.0967
  227MOL     C827580   6.451   0.469   2.779  0.5613 -0.5318  0.1203
  227MOL     C927581   6.389   0.472   2.632  0.0933  1.0827 -0.4553
  227MOL   Cl1027582   6.366   0.653   2.578 -0.1336  0.4787 -0.4501
  227MOL    H1127583   6.386   0.497   2.862  1.0410  1.2951 -0.0927
  227MOL    H1227584   6.477   0.366   2.804 -0.7054 -0.5099  1.6407
  227MOL    H1327585   6.454   0.423   2.559  0.0137 -2.7087  1.8514
  227MOL    C1427586   6.249   0.403   2.619 -0.2583 -0.5699  0.1547
  227MOL    C1527587   6.250   0.250   2.630 -0.2118 -0.1704  0.0305
  227MOL   Cl1627588   6.362   0.176   2.510 -0.3194 -0.3208 -0.1369
  227MOL    H1727589   6.212   0.426   2.519 -1.6266 -0.9837  0.5535
  227MOL    H1827590   6.185   0.445   2.697 -1.3769 -0.6258 -0.7112
  227MOL    H1927591   6.283   0.228   2.731  2.0705  0.5665 -0.5362
  227MOL    C2027592   6.103   0.181   2.622 -0.0741 -0.1777 -0.0538
  227MOL    C2127593   5.997   0.210   2.728 -0.3402 -0.1470  0.2352
  227MOL   Cl2227594   6.060   0.143   2.881 -0.3826 -0.0970  0.0667
  227MOL    H2327595   6.119   0.073   2.631  1.6051 -0.0072 -0.7635
  227MOL    H2427596   6.061   0.184   2.522  2.0080 -0.4363 -0.9585
  227MOL    H2527597   6.005   0.318   2.734 -0.4893 -0.1294  0.1370
  227MOL    C2627598   5.857   0.156   2.681  0.1399  0.1694 -0.5282
  227MOL    C2727599   5.732   0.201   2.765  0.7663  0.2280 -0.3415
  227MOL   Cl2827600   5.729   0.373   2.798  0.1540  0.0470  0.3181
  227MOL    H2927601   5.870   0.048   2.676 -0.1273  0.1118 -0.0842
  227MOL    H3027602   5.839   0.197   2.582 -1.3804  2.9662  0.8442
  227MOL    H3127603   5.645   0.185   2.702  0.5871 -0.3992  0.0657
  227MOL    C3227604   5.709   0.137   2.901  0.2423  0.5322 -0.0911
  227MOL    C3327605   5.722   8.515   2.905  0.4454  0.0823  0.3073
  227MOL   Cl3427606   5.604   8.445   2.789 -0.2320  0.0837  0.0387
  227MOL    H3527607   5.610   0.170   2.933  0.9857  2.7017  0.0161
  227MOL    H3627608   5.769   0.180   2.981 -2.2269  2.4611  0.8154
  227MOL    H3727609   5.824   8.488   2.875 -0.0231 -2.6687  1.0711
  227MOL    C3827610   5.698   8.459   3.047  0.0652  0.2652 -0.6469
  227MOL    C3927611   5.818   8.474   3.142 -0.6414  0.3980  0.0839
  227MOL   Cl4027612   5.950   8.387   3.060 -0.2287 -0.1310  0.6231
  227MOL    H4127613   5.658   8.358   3.038 -2.3912  1.2441 -1.2471
  227MOL    H4227614   5.619   8.518   3.094  0.8025  0.3138  0.5605
  227MOL    H4327615   5.856   0.049   3.159 -2.1691  0.8381  1.0170
  227MOL    C4427616   5.798   8.396   3.280  0.1178 -0.3095 -0.5440
  227MOL    C4527617   5.724   8.492   3.378  0.2504  0.1945 -0.4937
  227MOL   Cl4627618   5.826   0.106   3.420  0.0306  0.1931  0.2449
  227MOL    H4727619   5.894   8.363   3.321  0.0283 -0.4075 -0.4145
  227MOL    H4827620   5.749   8.301   3.258  1.1238 -0.6525 -1.3638
  227MOL    H4927621   5.628   0.002   3.341 -0.5268  0.7792  1.9509
  227MOL    C5027622   5.692   8.414   3.514 -0.0908  0.1578  0.3192
  227MOL    C5127623   5.571   8.319   3.519 -0.5017 -0.0552  0.0264
  227MOL   Cl5227624   5.418   8.406   3.482 -0.3132 -0.4173 -0.3101
  227MOL    H5327625   5.679   8.482   3.598 -1.2858  0.4276 -0.0791
  227MOL    H5427626   5.783   8.360   3.543 -0.2235 -1.5452 -2.2426
  227MOL    H5527627   5.580   8.247   3.437  0.1293  0.3097 -0.2241
  227MOL    C5627628   5.552   8.239   3.655  0.1599 -0.1127 -0.0782
  227MOL    C5727629   5.669   8.136   3.674 -0.2735  0.1085  0.7634
  227MOL   Cl5827630   5.705   8.038   3.522 -0.0406 -0.2936  0.0962
  227MOL    H5927631   5.460   8.181   3.652  0.0506  0.1260 -1.3589
  227MOL    H6027632   5.540   8.312   3.736 -1.7633 -0.7542  0.2338
  227MOL    H6127633   5.761   8.184   3.705  1.5162 -3.4316  1.2648
  227MOL    C6227634   5.628   8.034   3.776  0.7996  0.2292 -0.0522
  227MOL    C6327635   5.592   8.076   3.918  0.2411 -0.1616  0.5973
  227MOL   Cl6427636   5.727   8.169   3.985 -0.1683 -0.2580  0.1093
  227MOL    H6527637   5.716   7.973   3.797  0.5245  0.8052  3.0196
  227MOL    H6627638   5.557   7.960   3.739  0.7689  0.7922 -1.1654
  227MOL    H6727639   5.504   8.140   3.914  0.0385 -0.4136  0.9812
  227MOL    C6827640   5.558   7.955   4.015  0.1675 -0.2355 -0.1605
  227MOL    C6927641   5.510   8.000   4.158  0.1927  0.7787  0.5577
  227MOL   Cl7027642   5.550   7.860   4.258 -0.2460  0.0002  0.3658
  227MOL    H7127643   5.648   7.896   4.031 -0.6481 -0.7504  2.8417
  227MOL    H7227644   5.477   7.907   3.960 -1.4965 -0.6651  2.5936
  227MOL    H7327645   5.572   8.084   4.189  0.7999  0.4982  0.1169
  227MOL    C7427646   5.360   8.038   4.163  0.3785  0.0931  0.0384
  227MOL    C7527647   5.307   8.114   4.285  0.3575 -0.3649 -0.3478
  227MOL   Cl7627648   5.381   8.276   4.277  0.0324 -0.2699 -0.1792
  227MOL    H7727649   5.297   7.953   4.138 -0.3003 -0.3826  3.1339
  227MOL    H7827650   5.334   8.097   4.074  0.2324 -0.0389 -0.0075
  227MOL    H7927651   5.202   8.142   4.273  0.8998  1.2512 -1.6910
  227MOL    C8027652   5.329   8.063   4.421  1.3575 -0.2405 -0.8664
  227MOL    C8127653   5.256   7.937   4.457  0.0851 -0.4331  0.4891
  227MOL   Cl8227654   5.085   7.960   4.455 -0.1347 -0.2833 -0.2815
  227MOL    H8327655   5.296   8.145   4.485  3.1145  0.5344 -0.9232
  227MOL    H8427656   5.437   8.060   4.433  0.9619 -0.6454  3.5897
  227MOL    H8527657   5.274   7.856   4.386 -0.5007  0.6808 -0.9469
  227MOL    C8627658   5.283   7.885   4.591  0.0874  0.2222  0.2088
  227MOL    C8727659   5.420   7.817   4.616 -0.6439  0.7643 -1.3865
  227MOL   Cl8827660   5.444   7.666   4.527  0.0110 -0.2008 -0.1800
  227MOL    H8927661   5.203   7.815   4.619 -0.6624  1.4948  1.2797
  227MOL    H9027662   5.283   7.964   4.665  2.7040 -0.6533  1.1815
  227MOL    H9127663   5.494   7.881   4.569 -0.0963  1.2044  0.0345
  227MOL    C9227664   5.468   7.788   4.763  0.0625 -0.3296 -0.8961
  227MOL    C9327665   5.369   7.697   4.854 -0.5031 -0.6103 -0.2206
  227MOL   Cl9427666   5.213   7.785   4.884  0.3221  0.2383  0.1094
  227MOL    H9527667   5.471   7.879   4.823  0.8350 -0.9464  0.0246
  227MOL    H9627668   5.565   7.740   4.753  0.7970  0.0414  3.4619
  227MOL    H9727669   5.346   7.608   4.796  0.1247 -2.4458  2.2607
  227MOL    C9827670   5.415   7.647   4.989  0.0496  0.2353 -1.3058
  227MOL    C9927671   5.527   7.546   4.984 -0.2950  0.1900  0.2293
  227MOL  Cl10027672   5.472   7.420   4.883 -0.0632  0.0305  0.1218
  227MOL   H10127673   5.335   7.597   5.045  0.4875 -0.0107 -0.8963
  227MOL   H10227674   5.437   7.735   5.048  0.0120 -1.3455  1.1552
  227MOL   H10327675   5.624   7.585   4.952  0.2401 -1.6413 -0.4866
  227MOL   C10427676   5.557   7.487   5.119 -0.0233 -0.1805  0.5233
  227MOL   C10527677   5.663   7.373   5.121  0.2631 -0.0148  0.1546
  227MOL  Cl10627678   5.680   7.301   5.282  0.0783 -0.1561  0.2802
  227MOL   H10727679   5.465   7.450   5.166 -0.3685  0.7535  0.5841
  227MOL   H10827680   5.594   7.561   5.190 -2.5421  2.8698 -1.2137
  227MOL   H10927681   5.632   7.291   5.057 -0.4049  0.6999 -0.4599
  227MOL   C11027682   5.802   7.423   5.076  0.3351 -0.7594  0.2395
  227MOL   C11127683   5.915   7.325   5.095  0.4479 -0.0897  0.7861
  227MOL  Cl11227684   6.054   7.408   5.027 -0.3690  0.1232  0.2295
  227MOL   H11327685   5.825   7.509   5.139 -2.0444  1.4673 -1.8518
  227MOL   H11427686   5.784   7.443   4.971  0.3896 -1.3182  0.1194
  227MOL   H11527687   5.940   7.314   5.201 -1.3824  1.0657  1.3606
  227MOL   C11627688   5.902   7.188   5.022  0.0942 -0.7461  0.7958
  227MOL   C11727689   6.025   7.103   5.005 -0.2193  0.2419  0.4186
  227MOL  Cl11827690   6.105   7.150   4.852  0.1592 -0.0376 -0.3311
  227MOL   H11927691   5.849   7.203   4.928 -2.1372  0.0901  2.1483
  227MOL   H12027692   5.829   7.143   5.090 -1.8661 -1.4212 -1.6626
  227MOL   H12127693   6.101   7.122   5.081  1.9014 -0.9506 -1.3551
  227MOL   H12227694   6.004   6.996   5.006 -1.0768  0.3951 -0.2410
  228MOL     C127695   5.228   1.201   2.443 -0.0647  0.3602 -0.1044
  228MOL     C227696   5.231   1.352   2.459 -0.4105 -0.8857  0.0690
  228MOL    Cl327697   5.111   1.419   2.343 -0.5017 -0.3832 -0.1757
  228MOL     H427698   5.131   1.159   2.470  0.9617 -2.2669 -0.3333
  228MOL     H527699   5.253   1.175   2.340 -0.8379  0.3911 -0.3013
  228MOL     H627700   5.200   1.377   2.560  0.6781  0.3690  0.1097
  228MOL     H727701   5.307   1.152   2.499  1.1743  0.0857 -2.0355
  228MOL     C827702   5.362   1.427   2.404 -0.6430 -0.4022 -0.7937
  228MOL     C927703   5.494   1.400   2.482 -0.1488 -0.1660 -0.0615
  228MOL   Cl1027704   5.474   1.442   2.651 -0.1697 -0.2216 -0.3599
  228MOL    H1127705   5.336   1.532   2.394  1.1455 -0.0557 -1.8682
  228MOL    H1227706   5.373   1.399   2.299  0.5053 -0.3533 -0.6831
  228MOL    H1327707   5.514   1.293   2.482 -0.1266 -0.1603  0.4781
  228MOL    C1427708   5.612   1.475   2.419  0.2999  0.3197  0.2685
  228MOL    C1527709   5.655   1.401   2.288 -0.4716 -0.3301  0.0619
  228MOL   Cl1627710   5.742   1.249   2.312  0.3879  0.0822  0.2109
  228MOL    H1727711   5.687   1.474   2.498 -0.2998  1.8063  0.8767
  228MOL    H1827712   5.588   1.581   2.410 -1.9172 -0.2267 -0.6948
  228MOL    H1927713   5.580   1.362   2.220  0.1195 -2.0321  0.3677
  228MOL    C2027714   5.758   1.488   2.204 -0.1529 -0.0554  0.1471
  228MOL    C2127715   5.702   1.609   2.131  0.0700  0.0424  0.6587
  228MOL   Cl2227716   5.581   1.569   2.006 -0.1671 -0.0818  0.0433
  228MOL    H2327717   5.794   1.417   2.130  0.0192  0.7109 -0.5106
  228MOL    H2427718   5.837   1.513   2.275 -0.8277  3.1567 -0.1450
  228MOL    H2527719   5.647   1.666   2.206 -0.4321 -0.3207  0.5644
  228MOL    C2627720   5.814   1.702   2.063  0.3013  0.4008  0.3516
  228MOL    C2727721   5.923   1.749   2.162  0.0582  0.3208  0.5777
  228MOL   Cl2827722   5.854   1.858   2.294  0.1691 -0.2559 -0.3689
  228MOL    H2927723   5.767   1.791   2.021  1.4509  1.6418  1.6373
  228MOL    H3027724   5.859   1.648   1.980 -0.8699 -1.1895  0.7372
  228MOL    H3127725   5.971   1.665   2.213 -1.7620 -2.0691 -1.4761
  228MOL    C3227726   6.046   1.819   2.090  0.2511  0.7264  0.0875
  228MOL    C3327727   6.012   1.960   2.044  0.3158 -0.3779 -0.4959
  228MOL   Cl3427728   5.971   1.948   1.874  0.1086 -0.0186 -0.0008
  228MOL    H3527729   6.105   1.766   2.016  1.3227  0.8671  0.8306
  228MOL    H3627730   6.118   1.817   2.172 -1.4879 -1.9320  1.6393
  228MOL    H3727731   5.926   2.004   2.096  3.2690  1.7063  2.8816
  228MOL    C3827732   6.116   2.068   2.051 -0.4692 -0.6958  0.6431
  228MOL    C3927733   6.155   2.118   2.191  0.2287  0.0010  0.7376
  228MOL   Cl4027734   6.025   2.164   2.293 -0.0838 -0.2388 -0.1058
  228MOL    H4127735   6.067   2.151   1.999 -0.0621  0.4242  1.9868
  228MOL    H4227736   6.208   2.050   1.996 -1.2618  0.7573 -1.1961
  228MOL    H4327737   6.205   2.037   2.243  1.4917 -0.6788 -1.4780
  228MOL    C4427738   6.231   2.251   2.184 -0.4492  0.1477 -0.4186
  228MOL    C4527739   6.377   2.246   2.129  0.8610 -0.1537 -0.1998
  228MOL   Cl4627740   6.479   2.136   2.228 -0.4900 -0.0584 -0.3218
  228MOL    H4727741   6.225   2.303   2.280 -0.1672  0.0445 -0.3441
  228MOL    H4827742   6.188   2.325   2.116  0.9357  1.1710 -0.2051
  228MOL    H4927743   6.383   2.197   2.032 -1.1578  2.3540 -1.6325
  228MOL    C5027744   6.444   2.387   2.121 -0.1286  0.0962 -1.1582
  228MOL    C5127745   6.568   2.395   2.025 -0.4325  0.0648  0.1054
  228MOL   Cl5227746   6.658   2.548   2.036  0.1897 -0.4317 -0.0950
  228MOL    H5327747   6.477   2.401   2.224 -1.1126  0.1110 -0.8379
  228MOL    H5427748   6.369   2.459   2.089  0.2936  0.6287 -0.9566
  228MOL    H5527749   6.628   2.307   2.048 -2.9034 -2.1611 -1.6197
  228MOL    C5627750   6.534   2.376   1.877  0.3716  0.3412  0.3273
  228MOL    C5727751   6.653   2.322   1.793  0.1945 -0.6509  0.0007
  228MOL   Cl5827752   6.683   2.155   1.837 -0.0186 -0.1220 -0.0323
  228MOL    H5927753   6.496   2.473   1.847  4.0351  1.6812 -0.2437
  228MOL    H6027754   6.453   2.306   1.858  0.7991 -0.4853  1.4437
  228MOL    H6127755   6.619   2.318   1.690 -1.3549 -0.3869  0.4815
  228MOL    C6227756   6.787   2.401   1.806  0.0412 -0.1385  0.0478
  228MOL    C6327757   6.899   2.351   1.717 -0.8067 -0.6684 -0.2410
  228MOL   Cl6427758   7.046   2.447   1.760 -0.0764  0.4076 -0.2041
  228MOL    H6527759   6.832   2.414   1.904  0.3262  1.6344 -0.3080
  228MOL    H6627760   6.774   2.506   1.784  2.3498 -0.0752 -1.1880
  228MOL    H6727761   6.925   2.247   1.736  0.4740 -0.5505 -1.2987
  228MOL    C6827762   6.880   2.367   1.564  0.7069 -0.1584 -0.0244
  228MOL    C6927763   6.989   2.306   1.481 -0.2531 -0.0316  0.1821
  228MOL   Cl7027764   7.010   2.413   1.343 -0.2278 -0.0297  0.3962
  228MOL    H7127765   6.872   2.475   1.557 -0.1396 -0.0085  2.5610
  228MOL    H7227766   6.783   2.324   1.540  0.5044  0.6491 -0.6728
  228MOL    H7327767   7.088   2.305   1.526  0.8590 -1.9531 -2.1726
  228MOL    C7427768   6.951   2.165   1.429  0.3172 -1.1365  0.1136
  228MOL    C7527769   6.945   2.049   1.529 -0.0961 -0.6954  1.2154
  228MOL   Cl7627770   7.099   2.011   1.606  0.3241  0.0052 -0.2334
  228MOL    H7727771   7.034   2.141   1.362  0.8942 -1.9083  1.0928
  228MOL    H7827772   6.862   2.178   1.368 -0.9393  0.1456  2.1476
  228MOL    H7927773   6.882   2.081   1.611 -1.1825  2.2475 -0.6865
  228MOL    C8027774   6.910   1.916   1.474  0.2436  0.1481 -0.1736
  228MOL    C8127775   6.775   1.902   1.395 -0.4270 -0.5646 -0.3112
  228MOL   Cl8227776   6.640   1.942   1.504 -0.1670  0.5759  0.1168
  228MOL    H8327777   6.900   1.838   1.550 -0.1460  1.0282  0.6990
  228MOL    H8427778   6.994   1.891   1.410  1.2081  1.2763  0.6241
  228MOL    H8527779   6.769   1.976   1.314  0.8871 -0.3587 -0.2193
  228MOL    C8627780   6.755   1.759   1.342  0.4305  0.2175  0.1313
  228MOL    C8727781   6.823   1.737   1.208  0.4269  0.0771  0.4036
  228MOL   Cl8827782   6.725   1.815   1.083  0.4695  0.4456 -0.1026
  228MOL    H8927783   6.650   1.731   1.334  0.3035  0.2253  1.6044
  228MOL    H9027784   6.800   1.695   1.418 -1.2585 -1.2994 -0.1149
  228MOL    H9127785   6.920   1.786   1.202 -0.3619  1.8074  1.3555
  228MOL    C9227786   6.834   1.593   1.164  0.6567 -0.1294  0.2032
  228MOL    C9327787   6.972   1.537   1.165 -0.2450 -0.3210  0.2414
  228MOL   Cl9427788   6.986   1.399   1.067 -0.0429  0.5816 -0.2330
  228MOL    H9527789   6.794   1.586   1.062 -0.1316 -2.0315  0.6151
  228MOL    H9627790   6.761   1.527   1.211  0.8674 -2.1040 -2.1378
  228MOL    H9727791   7.028   1.615   1.113 -0.7865  0.5102  0.8738
  228MOL    C9827792   7.010   1.496   1.311 -0.1514  0.3518  0.5552
  228MOL    C9927793   7.161   1.508   1.349 -0.0336 -0.2238  0.9851
  228MOL  Cl10027794   7.198   1.678   1.312  0.0869  0.0500  0.2091
  228MOL   H10127795   6.977   1.396   1.341  0.4372 -0.5107 -1.5448
  228MOL   H10227796   6.964   1.557   1.389 -1.2040 -0.4600  0.5815
  228MOL   H10327797   7.171   1.499   1.457  1.7195  1.2764  0.9688
  228MOL   C10427798   7.271   1.422   1.279 -0.5878 -0.8080 -0.6201
  228MOL   C10527799   7.248   1.269   1.295  0.1443  0.6693 -0.5566
  228MOL  Cl10627800   7.209   1.233   1.474  0.1070 -0.1625 -0.0294
  228MOL   H10727801   7.369   1.449   1.319 -0.6273  0.4196 -1.3455
  228MOL   H10827802   7.273   1.432   1.170  0.6299  2.2831 -0.3366
  228MOL   H10927803   7.172   1.230   1.228 -0.4500  1.2814 -0.2537
  228MOL   C11027804   7.381   1.196   1.264  0.2236 -0.0282  0.8383
  228MOL   C11127805   7.385   1.045   1.275  0.6684  0.1267 -0.9316
  228MOL  Cl11227806   7.550   0.995   1.241 -0.0356  0.0206 -0.0814
  228MOL   H11327807   7.458   1.241   1.326  0.8358 -1.1954  0.9482
  228MOL   H11427808   7.404   1.219   1.160  0.2459  0.0759  0.8668
  228MOL   H11527809   7.372   1.006   1.376 -0.9132  1.0810 -0.7433
  228MOL   C11627810   7.287   0.974   1.185  0.1166  0.0866 -0.0885
  228MOL   C11727811   7.288   0.823   1.195  0.1819  0.8390 -0.6504
  228MOL  Cl11827812   7.166   0.744   1.086 -0.4826  0.1838  0.1843
  228MOL   H11927813   7.298   1.005   1.081  3.2743  1.1274  0.4878
  228MOL   H12027814   7.183   1.001   1.201  0.0926  0.0646 -0.2040
  228MOL   H12127815   7.383   0.780   1.164  0.5665  0.6374  0.7587
  228MOL   H12227816   7.256   0.788   1.293 -0.2931  0.2047 -1.0252
  229MOL     C127817   4.347   4.402   2.479 -0.1899  0.1633  0.5733
  229MOL     C227818   4.204   4.376   2.446  0.3635 -0.1980 -0.2793
  229MOL    Cl327819   4.110   4.486   2.543 -0.2062  0.2111  0.2790
  229MOL     H427820   4.369   4.384   2.584  2.9115 -0.4548 -0.1273
  229MOL     H527821   4.413   4.340   2.418 -3.3997 -1.2633 -1.5495
  229MOL     H627822   4.182   4.405   2.343  1.5318 -0.1409 -0.5261
  229MOL     H727823   4.378   4.505   2.460 -0.9151  0.4619  0.9980
  229MOL     C827824   4.168   4.232   2.477  0.5353  0.0080 -0.2205
  229MOL     C927825   4.214   4.129   2.374  0.3897 -0.4389  0.7799
  229MOL   Cl1027826   4.110   4.153   2.233  0.1742 -0.1522  0.0707
  229MOL    H1127827   4.060   4.219   2.483  0.3148  1.6935 -0.2344
  229MOL    H1227828   4.199   4.213   2.580  1.6823  1.3276 -0.3190
  229MOL    H1327829   4.319   4.151   2.354 -0.0359  2.0158  1.1383
  229MOL    C1427830   4.205   3.981   2.411  0.5097 -0.3100 -0.0115
  229MOL    C1527831   4.305   3.919   2.508 -0.1601  0.0540 -0.1170
  229MOL   Cl1627832   4.460   3.934   2.428 -0.1010  0.4349  0.0768
  229MOL    H1727833   4.206   3.928   2.316  1.5685  0.3431 -0.3701
  229MOL    H1827834   4.103   3.963   2.445  0.7725 -2.7561 -0.4487
  229MOL    H1927835   4.311   3.976   2.601  0.2497  1.7660 -1.1766
  229MOL    C2027836   4.269   3.769   2.543 -0.3436  0.5947  0.6789
  229MOL    C2127837   4.162   3.740   2.657 -0.0792  0.1713  0.1546
  229MOL   Cl2227838   4.203   3.823   2.805 -0.0058 -0.2466 -0.4292
  229MOL    H2327839   4.363   3.738   2.588 -0.3759 -0.7816 -0.1879
  229MOL    H2427840   4.259   3.698   2.462 -1.3712  0.9623  0.4744
  229MOL    H2527841   4.065   3.769   2.617 -0.9789 -3.6930 -0.6458
  229MOL    C2627842   4.149   3.586   2.680  0.0468 -0.1873  0.2117
  229MOL    C2727843   4.081   3.546   2.812 -0.1387  0.4672  0.0592
  229MOL   Cl2827844   4.069   3.372   2.840  0.0452  0.1183  0.2529
  229MOL    H2927845   4.248   3.543   2.667  0.6404  1.6281 -1.5207
  229MOL    H3027846   4.085   3.548   2.600  1.2926  1.7067 -1.7470
  229MOL    H3127847   4.132   3.590   2.898 -1.2846  0.7048  0.6239
  229MOL    C3227848   3.930   3.590   2.811 -0.4418  0.5755  0.2656
  229MOL    C3327849   3.849   3.563   2.944  0.4126  0.1276  0.5589
  229MOL   Cl3427850   3.683   3.620   2.893 -0.4260 -0.3390  0.0933
  229MOL    H3527851   3.869   3.541   2.735 -1.3880 -1.2450  2.1685
  229MOL    H3627852   3.929   3.697   2.792  1.9153  0.2237 -2.1916
  229MOL    H3727853   3.842   3.462   2.985  1.5463 -0.3287 -0.3626
  229MOL    C3827854   3.903   3.655   3.058 -0.3698  0.0972  0.4441
  229MOL    C3927855   3.813   3.659   3.188 -0.1959 -0.0027 -0.3662
  229MOL   Cl4027856   3.720   3.819   3.177 -0.2677  0.1533  0.2244
  229MOL    H4127857   3.908   3.758   3.023 -0.8168 -0.0824 -0.1566
  229MOL    H4227858   4.002   3.633   3.098 -0.1817  1.4142  0.7358
  229MOL    H4327859   3.746   3.574   3.186 -1.6667  1.0960  0.7444
  229MOL    C4427860   3.893   3.658   3.324 -0.0834 -0.2228  0.5021
  229MOL    C4527861   3.976   3.533   3.370 -0.3104  0.4713  0.0724
  229MOL   Cl4627862   3.873   3.392   3.366 -0.0776 -0.1070 -0.2393
  229MOL    H4727863   3.811   3.672   3.396 -2.3822 -0.7327 -1.9356
  229MOL    H4827864   3.946   3.753   3.320 -0.8769  0.2309  0.4826
  229MOL    H4927865   4.056   3.516   3.299 -0.8284 -2.3419  0.1145
  229MOL    C5027866   4.026   3.559   3.508 -0.0405 -0.0050  0.6514
  229MOL    C5127867   4.114   3.448   3.567 -0.4174  0.4510 -0.0112
  229MOL   Cl5227868   4.191   3.527   3.711 -0.5397 -0.0529 -0.3400
  229MOL    H5327869   3.946   3.575   3.580 -0.7920 -1.1962  0.0962
  229MOL    H5427870   4.065   3.661   3.510 -0.7610  0.2818 -0.0313
  229MOL    H5527871   4.054   3.364   3.601 -0.2653 -0.1904 -1.2837
  229MOL    C5627872   4.229   3.404   3.468  0.6056  0.0495 -1.0144
  229MOL    C5727873   4.308   3.292   3.528  0.5318  0.0392 -0.2457
  229MOL   Cl5827874   4.462   3.280   3.441 -0.2555  0.0453  0.3415
  229MOL    H5927875   4.288   3.493   3.443  2.1454 -0.3107  1.1364
  229MOL    H6027876   4.191   3.362   3.375 -2.1953  1.5742 -0.5883
  229MOL    H6127877   4.343   3.316   3.628  1.2038 -0.3143 -0.3901
  229MOL    C6227878   4.238   3.149   3.517 -0.7870  0.6750  0.2689
  229MOL    C6327879   4.266   3.045   3.630 -0.6422  0.2828 -0.2138
  229MOL   Cl6427880   4.228   3.117   3.786  0.0744  0.5208  0.0157
  229MOL    H6527881   4.235   3.110   3.416  1.6351  1.4156 -0.1140
  229MOL    H6627882   4.133   3.173   3.532 -1.4878 -1.4428 -1.0137
  229MOL    H6727883   4.206   2.958   3.604 -1.6855  0.3034  2.0249
  229MOL    C6827884   4.412   3.006   3.650 -0.1734  0.5208  0.0425
  229MOL    C6927885   4.477   2.927   3.529 -0.6818 -0.5559 -0.3100
  229MOL   Cl7027886   4.376   2.790   3.502  0.1153  0.1500  0.0745
  229MOL    H7127887   4.430   2.955   3.744  1.5390  2.9583  1.0585
  229MOL    H7227888   4.462   3.101   3.664 -0.0905  0.3729  0.7596
  229MOL    H7327889   4.474   2.996   3.445  2.6884 -0.3072 -0.2769
  229MOL    C7427890   4.620   2.874   3.570  0.3134 -0.0495 -0.3002
  229MOL    C7527891   4.717   2.985   3.628 -0.2065 -0.2674  0.4652
  229MOL   Cl7627892   4.778   3.092   3.501 -0.0766 -0.3943  0.7198
  229MOL    H7727893   4.673   2.823   3.490  1.6520 -1.0094  1.1680
  229MOL    H7827894   4.595   2.795   3.641  0.1738  1.7185  1.6667
  229MOL    H7927895   4.663   3.055   3.692 -0.6037 -2.2576  2.3946
  229MOL    C8027896   4.837   2.926   3.702 -0.9370 -0.2734  0.1274
  229MOL    C8127897   4.912   3.022   3.802  0.5463  0.3080  0.2734
  229MOL   Cl8227898   5.067   2.947   3.831  0.3084  0.4312 -0.0726
  229MOL    H8327899   4.907   2.889   3.627 -0.7563 -0.5975  0.4544
  229MOL    H8427900   4.805   2.831   3.743 -1.0169  0.4501  1.8016
  229MOL    H8527901   4.921   3.119   3.754 -1.8104  0.7548  0.6838
  229MOL    C8627902   4.831   3.038   3.933  0.1488 -0.2393 -0.8976
  229MOL    C8727903   4.890   3.130   4.043  0.5175 -0.0473 -0.6249
  229MOL   Cl8827904   4.800   3.099   4.193  0.1840 -0.0546  0.0033
  229MOL    H8927905   4.837   2.934   3.965  1.3748 -0.1237 -0.7073
  229MOL    H9027906   4.729   3.069   3.915  0.2713 -1.3528 -3.6997
  229MOL    H9127907   4.991   3.095   4.064  1.0191  1.4840 -0.3945
  229MOL    C9227908   4.906   3.281   4.015  0.6739  0.0227 -0.0100
  229MOL    C9327909   4.995   3.365   4.111  0.2774  0.0769 -0.2392
  229MOL   Cl9427910   4.942   3.542   4.098 -0.5058 -0.3905 -0.1724
  229MOL    H9527911   4.803   3.313   4.028  0.3321 -1.0982  0.0828
  229MOL    H9627912   4.947   3.308   3.917  0.2155 -0.6339 -0.3865
  229MOL    H9727913   4.986   3.319   4.209 -1.7161 -2.4031 -1.5142
  229MOL    C9827914   5.146   3.350   4.081  0.1849  0.1775  0.0936
  229MOL    C9927915   5.233   3.369   4.209 -0.4788  0.4344 -0.2321
  229MOL  Cl10027916   5.215   3.529   4.287 -0.0329 -0.0076 -0.4147
  229MOL   H10127917   5.185   3.412   4.001  0.4050  1.2285  1.0019
  229MOL   H10227918   5.161   3.247   4.050  1.6269 -0.1945  1.9612
  229MOL   H10327919   5.207   3.298   4.287  2.4346 -0.3272  0.1121
  229MOL   C10427920   5.386   3.343   4.191  0.4088  0.3330 -0.4862
  229MOL   C10527921   5.428   3.199   4.142  0.2339  0.4731 -0.4114
  229MOL  Cl10627922   5.387   3.083   4.268  0.1143  0.1807  0.2243
  229MOL   H10727923   5.428   3.360   4.290  2.5538 -0.0221 -1.3165
  229MOL   H10827924   5.434   3.425   4.138 -0.6041 -0.5928 -2.9131
  229MOL   H10927925   5.387   3.170   4.045 -0.3234  1.1510 -0.3829
  229MOL   C11027926   5.578   3.187   4.113 -0.5102 -0.0508  0.7191
  229MOL   C11127927   5.628   3.057   4.058  0.1343 -0.2538  0.5090
  229MOL  Cl11227928   5.803   3.066   4.043  0.4500  0.4996 -0.1223
  229MOL   H11327929   5.638   3.205   4.202  0.8813  0.4762 -0.3191
  229MOL   H11427930   5.601   3.272   4.049 -1.6633 -0.0349  0.3129
  229MOL   H11527931   5.601   2.962   4.104 -1.1322 -0.4800 -0.6878
  229MOL   C11627932   5.567   3.053   3.914  0.7211  0.4371  0.1314
  229MOL   C11727933   5.626   2.936   3.834  0.6955 -0.8769  0.3516
  229MOL  Cl11827934   5.544   2.915   3.671 -0.1954 -0.1165  0.2265
  229MOL   H11927935   5.593   3.141   3.854  3.8246 -0.7870 -0.4534
  229MOL   H12027936   5.461   3.034   3.927  0.7270  0.8118  0.7783
  229MOL   H12127937   5.734   2.931   3.825  0.6671 -2.6328  0.7522
  229MOL   H12227938   5.603   2.847   3.892 -2.2523  0.0421  0.6930
  230MOL     C127939   1.597   5.266   5.683  0.3400 -0.4487 -0.4618
  230MOL     C227940   1.499   5.163   5.620  0.2233  0.7426 -0.1555
  230MOL    Cl327941   1.353   5.182   5.724  0.1843  0.1002  0.3588
  230MOL     H427942   1.613   5.252   5.790  2.8002  1.1044 -0.5786
  230MOL     H527943   1.697   5.275   5.639  1.0563 -0.9558  1.0126
  230MOL     H627944   1.464   5.198   5.523 -0.1969  0.8149  0.0223
  230MOL     H727945   1.547   5.363   5.684 -0.4625 -0.8661 -0.1190
  230MOL     C827946   1.548   5.025   5.607 -0.2227  0.1254 -0.8172
  230MOL     C927947   1.680   5.003   5.516 -0.4863  0.8380 -0.3392
  230MOL   Cl1027948   1.625   5.040   5.351 -0.5209  0.0707 -0.1315
  230MOL    H1127949   1.471   4.953   5.580 -0.0356 -0.3545 -0.0793
  230MOL    H1227950   1.574   4.997   5.709  0.0760  0.4210 -0.8109
  230MOL    H1327951   1.764   5.067   5.543  0.5829 -1.2283  1.3592
  230MOL    C1427952   1.736   4.859   5.512  0.3317  0.6598  0.3516
  230MOL    C1527953   1.787   4.814   5.648 -0.3081 -0.2013 -0.2718
  230MOL   Cl1627954   1.937   4.907   5.677  0.0303 -0.1987 -0.1464
  230MOL    H1727955   1.811   4.842   5.435 -0.7145  0.5508 -0.6651
  230MOL    H1827956   1.651   4.799   5.479  1.5566 -0.4593 -0.7963
  230MOL    H1927957   1.717   4.830   5.731  1.5614  0.6765  1.1548
  230MOL    C2027958   1.826   4.660   5.657  0.8433  0.3037 -0.6182
  230MOL    C2127959   1.924   4.617   5.547  0.4806 -0.0679 -0.4939
  230MOL   Cl2227960   1.831   4.582   5.407 -0.3019  0.6047  0.1526
  230MOL    H2327961   1.736   4.599   5.656 -0.1848  1.8167 -2.4434
  230MOL    H2427962   1.876   4.664   5.754 -0.1873  0.0406 -0.0719
  230MOL    H2527963   1.993   4.694   5.512  0.9890 -0.4892 -0.4383
  230MOL    C2627964   2.006   4.494   5.591  0.1090 -0.0720 -0.3470
  230MOL    C2727965   2.125   4.523   5.684 -0.1553 -0.9751  0.1548
  230MOL   Cl2827966   2.249   4.616   5.593  0.0840  0.2684 -0.0221
  230MOL    H2927967   2.042   4.433   5.508 -2.2484  1.3955 -2.5205
  230MOL    H3027968   1.943   4.415   5.633 -0.0947 -0.7752 -1.9255
  230MOL    H3127969   2.088   4.573   5.774  0.1637 -1.6836  0.6863
  230MOL    C3227970   2.190   4.394   5.733 -0.3284  0.1502  0.2249
  230MOL    C3327971   2.248   4.293   5.625  0.6236 -0.6744  0.0405
  230MOL   Cl3427972   2.117   4.182   5.592  0.2278 -0.1523 -0.1885
  230MOL    H3527973   2.122   4.338   5.798 -1.3234  0.8478 -0.2031
  230MOL    H3627974   2.262   4.420   5.810 -0.2370  0.0350  0.1768
  230MOL    H3727975   2.261   4.344   5.529 -0.6988  0.8896  0.6658
  230MOL    C3827976   2.370   4.204   5.680  0.0480 -0.7044 -0.0072
  230MOL    C3927977   2.499   4.293   5.686 -0.1720 -0.2395  0.3679
  230MOL   Cl4027978   2.560   4.310   5.514 -0.6190 -0.0803 -0.2408
  230MOL    H4127979   2.377   4.116   5.617  0.1761 -0.6580 -0.0586
  230MOL    H4227980   2.355   4.156   5.777  1.9070 -0.9892  0.1489
  230MOL    H4327981   2.460   4.390   5.717 -2.0204 -0.8837  0.0979
  230MOL    C4427982   2.605   4.243   5.784  0.4978  0.0764  0.3961
  230MOL    C4527983   2.571   4.250   5.936 -0.2104  0.9217 -0.1820
  230MOL   Cl4627984   2.534   4.420   5.978  0.1590  0.1597 -0.0186
  230MOL    H4727985   2.695   4.302   5.765  0.0745  0.3432 -0.8084
  230MOL    H4827986   2.629   4.140   5.758 -0.7892  0.1699 -1.2425
  230MOL    H4927987   2.484   4.194   5.969 -0.9373  2.7053  0.9814
  230MOL    C5027988   2.686   4.203   6.032 -0.2652  0.0408 -1.2828
  230MOL    C5127989   2.715   4.059   6.047  0.1529 -0.7794  1.0270
  230MOL   Cl5227990   2.576   3.979   6.114  0.0856 -0.0396  0.1990
  230MOL    H5327991   2.671   4.253   6.128  3.2088 -0.4507 -0.4341
  230MOL    H5427992   2.778   4.251   5.999  0.0185  0.8318  0.5843
  230MOL    H5527993   2.726   4.024   5.944 -3.1393  2.9542 -0.7310
  230MOL    C5627994   2.855   4.030   6.117  0.1396  0.7393 -0.7425
  230MOL    C5727995   2.887   3.880   6.149 -0.2986  0.0260 -0.2944
  230MOL   Cl5827996   3.054   3.871   6.225 -0.2741  0.1818  0.1273
  230MOL    H5927997   2.860   4.093   6.206 -0.5251  1.2255 -1.0459
  230MOL    H6027998   2.938   4.070   6.059  1.2208 -1.9355 -1.1046
  230MOL    H6127999   2.812   3.838   6.216  0.1857  0.9742  0.8401
  230MOL    C6228000   2.885   3.792   6.019 -0.6676  1.1629  0.1959
  230MOL    C6328001   2.916   3.640   6.041  0.8291  0.1838 -0.1796
  230MOL   Cl6428002   3.016   3.584   5.904  0.0094 -0.2836 -0.3115
  230MOL    H6528003   2.957   3.836   5.950 -0.0936 -1.2846 -0.8047
  230MOL    H6628004   2.787   3.794   5.971 -1.2454 -1.9365  1.1339
  230MOL    H6728005   2.975   3.625   6.131  1.0534  2.5042  0.0925
  230MOL    C6828006   2.798   3.543   6.061  0.9796 -0.1559  0.2514
  230MOL    C6928007   2.699   3.586   6.179 -0.4164 -0.2614  0.5307
  230MOL   Cl7028008   2.779   3.597   6.340  0.1956  0.3483 -0.0323
  230MOL    H7128009   2.833   3.441   6.077  1.1458 -0.2820 -0.9061
  230MOL    H7228010   2.728   3.534   5.978  0.1162  0.3427  0.9095
  230MOL    H7328011   2.663   3.688   6.166  0.2445  0.1040  1.5802
  230MOL    C7428012   2.577   3.491   6.191 -0.4941 -0.1590  0.7128
  230MOL    C7528013   2.598   3.345   6.243  0.5587 -0.2766  0.0853
  230MOL   Cl7628014   2.638   3.255   6.093  0.1200 -0.2752 -0.0184
  230MOL    H7728015   2.535   3.493   6.090  0.0775  4.4255  0.4635
  230MOL    H7828016   2.505   3.541   6.255 -0.8333  1.6669 -1.0110
  230MOL    H7928017   2.687   3.340   6.306  0.9213 -1.5295 -0.4859
  230MOL    C8028018   2.479   3.282   6.311 -0.6813  0.0543 -0.5292
  230MOL    C8128019   2.463   3.336   6.454 -0.1980 -0.2016 -0.0974
  230MOL   Cl8228020   2.590   3.271   6.563  0.0388  0.0071  0.1370
  230MOL    H8328021   2.493   3.175   6.325  0.4628  0.3873  1.1383
  230MOL    H8428022   2.386   3.305   6.259 -1.0312  0.0681  0.1007
  230MOL    H8528023   2.472   3.444   6.464  2.1127 -0.3804  0.0539
  230MOL    C8628024   2.323   3.289   6.505 -0.4615  0.8623 -0.3930
  230MOL    C8728025   2.203   3.384   6.482  0.1737  0.1663 -0.1978
  230MOL   Cl8828026   2.217   3.511   6.609  0.6158 -0.5700  0.0622
  230MOL    H8928027   2.324   3.267   6.612 -0.6751  0.6590 -0.4322
  230MOL    H9028028   2.308   3.193   6.457  0.9919  0.4908 -0.1377
  230MOL    H9128029   2.211   3.440   6.389 -0.7055  0.2597 -0.2167
  230MOL    C9228030   2.067   3.312   6.499  0.0267  0.4144  0.4342
  230MOL    C9328031   2.023   3.231   6.379  0.0934  0.2586  0.2405
  230MOL   Cl9428032   2.009   3.336   6.230  0.0541 -0.1106  0.0909
  230MOL    H9528033   1.997   3.392   6.521  1.0019  0.6532  2.7994
  230MOL    H9628034   2.069   3.251   6.589 -1.0670 -1.0823 -0.5244
  230MOL    H9728035   2.090   3.150   6.351 -3.0706 -1.3926 -2.9326
  230MOL    C9828036   1.882   3.168   6.401  0.1320  0.9750  0.0994
  230MOL    C9928037   1.769   3.268   6.430  0.8884  0.5553  0.2893
  230MOL  Cl10028038   1.763   3.285   6.612 -0.0161  0.3102 -0.0531
  230MOL   H10128039   1.889   3.102   6.487  0.2318 -0.5032 -1.0230
  230MOL   H10228040   1.861   3.115   6.308 -0.2732 -1.8911  1.7593
  230MOL   H10328041   1.811   3.358   6.385  1.0695  1.0673  1.4640
  230MOL   C10428042   1.630   3.226   6.369  0.4032 -0.0810  0.6055
  230MOL   C10528043   1.617   3.239   6.214 -0.6605 -0.5332  0.2255
  230MOL  Cl10628044   1.665   3.399   6.158  0.4180 -0.3901 -0.4866
  230MOL   H10728045   1.553   3.282   6.423  0.7418 -0.0188  1.0266
  230MOL   H10828046   1.609   3.121   6.389  1.2137 -0.3898 -0.1502
  230MOL   H10928047   1.701   3.173   6.191 -0.9840 -1.2879  1.1591
  230MOL   C11028048   1.472   3.210   6.156  0.2190  0.5450  0.4663
  230MOL   C11128049   1.444   3.063   6.126 -0.1003 -0.1417  0.6962
  230MOL  Cl11228050   1.522   3.022   5.971 -0.0352 -0.0080 -0.0183
  230MOL   H11328051   1.472   3.252   6.056 -1.9586 -0.5642 -0.0384
  230MOL   H11428052   1.393   3.253   6.219  0.8026  0.8384  1.0012
  230MOL   H11528053   1.482   2.997   6.204  0.1277  0.1729  0.8533
  230MOL   C11628054   1.299   3.020   6.115 -0.3882  0.7767 -0.1547
  230MOL   C11728055   1.217   3.102   6.006  0.1195 -0.7877 -0.5228
  230MOL  Cl11828056   1.062   3.020   5.988  0.0693  0.1396  0.3523
  230MOL   H11928057   1.260   3.023   6.217  1.0588  2.0800  0.3744
  230MOL   H12028058   1.298   2.911   6.102  0.3711  0.7351  0.1329
  230MOL   H12128059   1.194   3.208   6.018  2.1160 -0.1637 -2.0368
  230MOL   H12228060   1.268   3.092   5.911  3.3706  1.1440  0.9307
  231MOL     C128061   2.241   2.039   2.959 -0.2968  0.2363  0.1542
  231MOL     C228062   2.260   2.186   3.009  0.4202 -0.0347 -0.1858
  231MOL    Cl328063   2.439   2.205   3.013  0.2188 -0.1455  0.0612
  231MOL     H428064   2.308   1.980   3.021 -1.0256 -1.3942 -0.5663
  231MOL     H528065   2.142   1.998   2.981 -0.5974  1.6347  1.4893
  231MOL     H628066   2.220   2.256   2.936 -2.3317 -0.2558  1.0690
  231MOL     H728067   2.271   2.024   2.855 -0.3911  0.3568  0.1087
  231MOL     C828068   2.194   2.201   3.149 -0.3005  0.3946  0.2856
  231MOL     C928069   2.041   2.223   3.129  0.1256  0.7257 -0.2655
  231MOL   Cl1028070   2.021   2.380   3.063  0.1501  0.0803  0.3853
  231MOL    H1128071   2.242   2.280   3.207 -1.2946  1.6677 -0.5958
  231MOL    H1228072   2.200   2.110   3.209 -0.0096  1.3013  1.6651
  231MOL    H1328073   2.006   2.150   3.056 -0.5106 -1.5186  2.2400
  231MOL    C1428074   1.966   2.211   3.260  0.0920  0.0044  0.0884
  231MOL    C1528075   1.813   2.205   3.239  0.2488  0.4128 -0.0752
  231MOL   Cl1628076   1.734   2.265   3.390  0.2968 -0.1321  0.1261
  231MOL    H1728077   1.995   2.302   3.312 -0.7533 -0.2101  0.9579
  231MOL    H1828078   2.003   2.123   3.313  2.6813  0.5602 -0.7353
  231MOL    H1928079   1.783   2.278   3.164 -2.1090  1.0739  1.4789
  231MOL    C2028080   1.768   2.063   3.208 -0.3224  0.2701  0.4567
  231MOL    C2128081   1.618   2.047   3.212  1.0628 -0.2261 -0.6348
  231MOL   Cl2228082   1.582   1.876   3.206  0.1011 -0.2027 -0.0093
  231MOL    H2328083   1.817   2.005   3.286  0.7373  0.6454  0.0872
  231MOL    H2428084   1.806   2.022   3.114 -0.1860  0.6707  0.3330
  231MOL    H2528085   1.577   2.077   3.308  1.6163 -0.5693 -0.2869
  231MOL    C2628086   1.541   2.122   3.107  0.0216  0.1961 -0.1658
  231MOL    C2728087   1.559   2.098   2.952 -0.7749  0.3206 -0.2130
  231MOL   Cl2828088   1.706   2.174   2.899 -0.0016 -0.0012 -0.2648
  231MOL    H2928089   1.531   2.230   3.120 -1.9745  0.0778 -0.6147
  231MOL    H3028090   1.433   2.110   3.113  0.0749 -0.1370  0.1731
  231MOL    H3128091   1.575   1.991   2.944  1.5423  0.4740  1.7613
  231MOL    C3228092   1.446   2.155   2.871 -0.0376 -0.2285  0.5956
  231MOL    C3328093   1.319   2.067   2.880  0.1015 -0.8442 -0.2646
  231MOL   Cl3428094   1.360   1.898   2.843  0.3555 -0.2042 -0.3376
  231MOL    H3528095   1.478   2.156   2.767 -0.1058  1.0212  0.5806
  231MOL    H3628096   1.427   2.260   2.893 -0.7222 -0.1239 -0.4814
  231MOL    H3728097   1.279   2.067   2.982  2.0125  0.3073  0.5087
  231MOL    C3828098   1.206   2.122   2.790 -0.3718  0.9107 -0.0467
  231MOL    C3928099   1.089   2.026   2.761 -0.0798 -0.1156  0.3851
  231MOL   Cl4028100   0.992   2.112   2.637 -0.1900  0.0997 -0.2381
  231MOL    H4128101   1.256   2.123   2.693  0.6516  0.8323  0.4697
  231MOL    H4228102   1.170   2.220   2.821  1.1862  1.1066  1.1859
  231MOL    H4328103   1.122   1.934   2.712 -0.1067 -1.1750  2.3206
  231MOL    C4428104   1.009   1.982   2.874 -0.4150  0.2089 -0.0712
  231MOL    C4528105   0.928   2.091   2.948  0.4026 -0.2293 -0.0664
  231MOL   Cl4628106   1.042   2.184   3.052  0.0316 -0.0747  0.1161
  231MOL    H4728107   1.066   1.924   2.947  0.2607 -0.0480 -0.7880
  231MOL    H4828108   0.930   1.922   2.829 -0.8851  0.4068  0.4883
  231MOL    H4928109   0.897   2.163   2.872  2.1556 -0.2669 -0.8576
  231MOL    C5028110   0.819   2.033   3.047  0.1108 -0.1228  0.2354
  231MOL    C5128111   0.735   2.151   3.110  0.2957  0.3008  0.0781
  231MOL   Cl5228112   0.698   2.109   3.277 -0.2461 -0.0147 -0.1237
  231MOL    H5328113   0.880   1.976   3.117  0.4866  0.7589  0.6352
  231MOL    H5428114   0.760   1.963   2.988 -0.7756 -1.3883  2.5566
  231MOL    H5528115   0.793   2.243   3.111  0.1212  0.4107  0.1887
  231MOL    C5628116   0.604   2.176   3.028  0.5466 -0.1069 -0.1994
  231MOL    C5728117   0.528   2.311   3.051  0.2993 -0.0842 -0.3669
  231MOL   Cl5828118   0.448   2.315   3.208  0.5571 -0.7208  0.2428
  231MOL    H5928119   0.536   2.095   3.054 -0.8371  0.6326 -1.4861
  231MOL    H6028120   0.618   2.158   2.922 -2.1404 -1.4626 -0.3442
  231MOL    H6128121   0.594   2.395   3.030 -1.4261  1.5816  0.6878
  231MOL    C6228122   0.429   2.337   2.935 -0.3778 -0.4937 -0.1549
  231MOL    C6328123   0.375   2.487   2.932 -0.2340  0.1267 -0.0901
  231MOL   Cl6428124   0.215   2.476   2.996  0.1503 -0.0995  0.2539
  231MOL    H6528125   0.343   2.271   2.939 -2.2630  1.8611 -0.7147
  231MOL    H6628126   0.486   2.318   2.843 -0.6197 -2.6203  0.1055
  231MOL    H6728127   0.441   2.547   2.995  0.8443  1.9722 -2.8377
  231MOL    C6828128   0.361   2.552   2.798 -0.3030 -0.4176 -0.4290
  231MOL    C6928129   0.498   2.580   2.750  0.3538 -0.8100  0.6853
  231MOL   Cl7028130   0.559   2.724   2.839 -0.1132  0.0843  0.0006
  231MOL    H7128131   0.301   2.643   2.790 -2.6202 -1.8424  0.0670
  231MOL    H7228132   0.319   2.476   2.731 -0.1668  0.3461 -1.3800
  231MOL    H7328133   0.573   2.504   2.774  1.9670  0.3280 -0.6554
  231MOL    C7428134   0.512   2.607   2.599 -0.4465 -0.0715 -1.4825
  231MOL    C7528135   0.514   2.477   2.510 -0.2336  0.2566  0.1583
  231MOL   Cl7628136   0.671   2.392   2.530  0.3232  0.1040  0.0546
  231MOL    H7728137   0.610   2.650   2.579 -0.0894 -0.7409 -1.1974
  231MOL    H7828138   0.431   2.670   2.565 -1.7525 -0.0645  1.4933
  231MOL    H7928139   0.432   2.409   2.534  0.1747  0.0168  0.8909
  231MOL    C8028140   0.510   2.525   2.362 -0.1497  0.5293 -0.1491
  231MOL    C8128141   0.498   2.418   2.248  0.1319 -0.1683 -0.4309
  231MOL   Cl8228142   0.366   2.305   2.279 -0.1976 -0.0812 -0.2578
  231MOL    H8328143   0.598   2.587   2.347  0.0395  0.5891  1.1526
  231MOL    H8428144   0.427   2.594   2.345 -1.1629 -0.7303 -0.4209
  231MOL    H8528145   0.466   2.488   2.170  0.9655  0.2153 -0.4328
  231MOL    C8628146   0.630   2.341   2.207  0.1785  0.0864 -0.4062
  231MOL    C8728147   0.747   2.431   2.166 -0.2103 -0.0951  0.1441
  231MOL   Cl8828148   0.679   2.536   2.038  0.4392  0.6675 -0.4518
  231MOL    H8928149   0.600   2.280   2.121  0.7921  0.3189 -0.7883
  231MOL    H9028150   0.660   2.279   2.291 -1.6727  0.3192  0.4540
  231MOL    H9128151   0.779   2.493   2.250  1.4747 -0.1037 -0.4691
  231MOL    C9228152   0.871   2.357   2.118 -1.0090  0.2651 -0.3426
  231MOL    C9328153   0.956   2.306   2.241 -0.1953 -0.0339  0.2860
  231MOL   Cl9428154   1.014   2.445   2.340  0.1414 -0.1104 -0.0827
  231MOL    H9528155   0.935   2.432   2.072 -0.5336 -0.2861 -0.5876
  231MOL    H9628156   0.857   2.284   2.038  0.6495 -0.9691  0.4558
  231MOL    H9728157   0.894   2.250   2.311 -1.2577  2.6253  1.5488
  231MOL    C9828158   1.079   2.234   2.194 -0.3399  0.2698 -0.0721
  231MOL    C9928159   1.071   2.089   2.129 -0.0358  0.5647  0.2053
  231MOL  Cl10028160   1.008   1.972   2.255 -0.5065  0.1420  0.0641
  231MOL   H10128161   1.139   2.224   2.284 -0.8853  1.4948  0.4436
  231MOL   H10228162   1.136   2.298   2.127 -0.3636  1.5264  1.0926
  231MOL   H10328163   0.991   2.105   2.057  0.4857  0.1309 -0.4727
  231MOL   C10428164   1.206   2.023   2.079  0.2468 -0.1454  0.1215
  231MOL   C10528165   1.309   2.008   2.191 -0.2145  0.3251 -0.1657
  231MOL  Cl10628166   1.417   2.152   2.192 -0.3184  0.2624  0.2655
  231MOL   H10728167   1.245   2.063   1.985 -0.2058  1.0651  0.4430
  231MOL   H10828168   1.173   1.924   2.047 -3.4911  0.7095  1.1595
  231MOL   H10928169   1.269   1.988   2.290 -0.3526 -0.9764 -0.4751
  231MOL   C11028170   1.410   1.896   2.151  0.3753 -0.2950 -0.9259
  231MOL   C11128171   1.350   1.750   2.146  0.4732 -0.1790 -0.2797
  231MOL  Cl11228172   1.250   1.726   2.297 -0.3929 -0.2960 -0.2517
  231MOL   H11328173   1.489   1.884   2.226  0.1212  0.0006 -0.6054
  231MOL   H11428174   1.465   1.910   2.058  0.7603  0.2878 -0.6119
  231MOL   H11528175   1.282   1.734   2.062 -0.7601  0.0541  0.6669
  231MOL   C11628176   1.459   1.647   2.135  0.3136 -0.3605 -0.9387
  231MOL   C11728177   1.419   1.501   2.151  0.3870  0.0515 -0.1818
  231MOL  Cl11828178   1.545   1.403   2.079 -0.0856 -0.1770 -0.1094
  231MOL   H11928179   1.533   1.660   2.214 -1.4829 -0.9752  0.8841
  231MOL   H12028180   1.498   1.647   2.033  2.2250  0.3159 -0.2404
  231MOL   H12128181   1.411   1.470   2.255  2.6246 -0.9028 -0.2591
  231MOL   H12228182   1.327   1.478   2.099 -0.1845 -0.0972  0.8792
  232MOL     C128183   2.357   5.477   7.070 -0.0795  0.0567  0.1633
  232MOL     C228184   2.488   5.393   7.058  0.6176 -0.8258 -0.3055
  232MOL    Cl328185   2.460   5.273   7.183  0.1231 -0.1740  0.2605
  232MOL     H428186   2.267   5.417   7.061 -0.1270  0.0234  0.8468
  232MOL     H528187   2.353   5.536   7.162  0.7176 -1.7574  1.4145
  232MOL     H628188   2.502   5.351   6.959  0.2563  0.1205 -0.7628
  232MOL     H728189   2.361   5.550   6.990 -1.3468 -1.0176 -0.9069
  232MOL     C828190   2.608   5.484   7.098 -0.5281 -0.1405 -0.4679
  232MOL     C928191   2.667   5.573   6.986  0.2790 -0.5104  0.0813
  232MOL   Cl1028192   2.756   5.468   6.865 -0.3294 -0.0310  0.1371
  232MOL    H1128193   2.684   5.420   7.143  0.4311  1.1863 -0.1494
  232MOL    H1228194   2.579   5.542   7.186 -1.7950  0.4222 -1.2513
  232MOL    H1328195   2.586   5.622   6.931  0.4507  2.3667  2.2823
  232MOL    C1428196   2.765   5.673   7.054  0.3247  0.0089 -0.8898
  232MOL    C1528197   2.859   5.755   6.965  0.5814  1.2732 -0.4447
  232MOL   Cl1628198   2.979   5.846   7.064  0.2605 -0.0507  0.1184
  232MOL    H1728199   2.824   5.609   7.120 -3.6463 -0.1688  2.6756
  232MOL    H1828200   2.718   5.744   7.122  1.3654  0.8469 -1.0301
  232MOL    H1928201   2.922   5.700   6.894 -0.7575 -0.9166  0.0272
  232MOL    C2028202   2.780   5.861   6.885  0.5264 -0.1173 -0.0858
  232MOL    C2128203   2.710   5.965   6.973 -0.1627 -0.1836 -0.2873
  232MOL   Cl2228204   2.542   5.916   7.026 -0.4141  0.4835 -0.0606
  232MOL    H2328205   2.695   5.820   6.830  0.5680 -1.1152  0.5882
  232MOL    H2428206   2.850   5.899   6.810  1.2363 -1.1531  0.0290
  232MOL    H2528207   2.758   5.985   7.069 -1.6112  0.2463  0.3546
  232MOL    C2628208   2.687   6.101   6.903  0.1436 -0.0523  0.1876
  232MOL    C2728209   2.812   6.183   6.858  0.4968 -0.0837  1.2142
  232MOL   Cl2828210   2.921   6.212   6.990  0.0319 -0.1771  0.3560
  232MOL    H2928211   2.636   6.169   6.971  1.0083 -1.6724  2.5496
  232MOL    H3028212   2.617   6.079   6.822 -1.4760  2.7396  0.7672
  232MOL    H3128213   2.879   6.121   6.798 -0.8771 -1.0732  0.6929
  232MOL    C3228214   2.778   6.317   6.785 -0.0162 -0.1650 -0.3134
  232MOL    C3328215   2.698   6.307   6.657  0.2007  0.2545 -0.4969
  232MOL   Cl3428216   2.772   6.204   6.534 -0.2955 -0.1588 -0.4746
  232MOL    H3528217   2.874   6.360   6.757  0.4895 -0.6983  0.5602
  232MOL    H3628218   2.744   6.375   6.871 -2.1693 -1.6738 -0.1445
  232MOL    H3728219   2.602   6.265   6.689  0.7458  0.7372  1.8113
  232MOL    C3828220   2.662   6.446   6.604 -0.4996 -0.4718  0.2849
  232MOL    C3928221   2.784   6.533   6.545 -0.4317  0.1640  0.3949
  232MOL   Cl4028222   2.873   6.626   6.665  0.3750  0.0230 -0.2115
  232MOL    H4128223   2.612   6.503   6.683  0.7543  2.5091 -1.0165
  232MOL    H4228224   2.582   6.434   6.531  0.1509  0.4696 -0.5956
  232MOL    H4328225   2.856   6.456   6.516  0.7186  0.3623  2.6510
  232MOL    C4428226   2.742   6.630   6.435 -0.1741  0.0097  0.6756
  232MOL    C4528227   2.717   6.564   6.296 -0.3675 -0.5217  0.4618
  232MOL   Cl4628228   2.855   6.479   6.214  0.0362  0.0721  0.2629
  232MOL    H4728229   2.826   6.699   6.425  0.0155 -0.1636  1.0914
  232MOL    H4828230   2.646   6.678   6.456 -1.2617 -2.1991  0.9603
  232MOL    H4928231   2.647   6.482   6.305 -0.5446 -0.2746  1.3554
  232MOL    C5028232   2.666   6.670   6.196 -0.3164 -0.4306 -0.4863
  232MOL    C5128233   2.770   6.779   6.171 -0.2376  1.0931 -0.6002
  232MOL   Cl5228234   2.756   6.919   6.273 -0.1184 -0.1118 -0.1996
  232MOL    H5328235   2.569   6.710   6.225 -0.0995 -1.1302  1.2562
  232MOL    H5428236   2.651   6.612   6.105 -1.2124  0.0219 -0.6335
  232MOL    H5528237   2.869   6.742   6.199 -0.6091  2.6755  3.1279
  232MOL    C5628238   2.784   6.816   6.022  0.0366 -0.8172 -0.5570
  232MOL    C5728239   2.866   6.713   5.936 -0.0071 -0.7696  0.6306
  232MOL   Cl5828240   3.030   6.701   5.988 -0.2744 -0.0264  0.2254
  232MOL    H5928241   2.828   6.915   6.013  0.2735 -0.8896 -0.2177
  232MOL    H6028242   2.683   6.836   5.988  0.2319  0.0051 -0.6726
  232MOL    H6128243   2.820   6.616   5.955 -0.1257 -0.8097  0.1622
  232MOL    C6228244   2.857   6.744   5.781 -1.0293 -0.3792  0.1065
  232MOL    C6328245   2.722   6.715   5.716 -0.2165 -0.1289 -0.8196
  232MOL   Cl6428246   2.685   6.543   5.731 -0.1679 -0.4996  0.1507
  232MOL    H6528247   2.932   6.679   5.735 -1.0577 -1.7402  1.9236
  232MOL    H6628248   2.896   6.843   5.760 -0.3116 -0.6782  0.0183
  232MOL    H6728249   2.653   6.770   5.780  0.5425  0.1238 -0.2143
  232MOL    C6828250   2.719   6.762   5.573  0.2026 -0.2857  0.5232
  232MOL    C6928251   2.707   6.913   5.543 -0.6109  0.2850 -0.3769
  232MOL   Cl7028252   2.556   6.983   5.601 -0.3264 -0.0510 -0.4236
  232MOL    H7128253   2.624   6.719   5.539  0.9183 -1.3761 -0.1256
  232MOL    H7228254   2.797   6.707   5.521 -1.6671 -2.0798 -0.4941
  232MOL    H7328255   2.784   6.970   5.594 -0.9468  0.9533 -0.6075
  232MOL    C7428256   2.715   6.952   5.397 -0.1677 -0.1580 -0.0338
  232MOL    C7528257   2.828   6.894   5.319 -0.9005  0.1529  0.3541
  232MOL   Cl7628258   2.982   6.976   5.356 -0.1065 -0.0622  0.2065
  232MOL    H7728259   2.705   7.060   5.383  0.8149 -0.0412  0.0923
  232MOL    H7828260   2.620   6.923   5.353 -0.1593 -1.8319  0.9992
  232MOL    H7928261   2.831   6.786   5.334 -2.6291  0.0896  0.4557
  232MOL    C8028262   2.806   6.908   5.165 -0.0904  0.1086 -0.0649
  232MOL    C8128263   2.691   6.826   5.098  0.1038  0.4409 -0.4258
  232MOL   Cl8228264   2.725   6.648   5.076  0.0231  0.1082 -0.1325
  232MOL    H8328265   2.900   6.877   5.119 -0.9560 -2.0395 -0.4822
  232MOL    H8428266   2.799   7.013   5.138  0.6199  0.7833  2.2978
  232MOL    H8528267   2.605   6.825   5.165  1.3945 -0.9067  1.2583
  232MOL    C8628268   2.642   6.896   4.969 -0.8076  0.2118  0.2207
  232MOL    C8728269   2.725   6.876   4.838  0.5624  0.2087 -0.0161
  232MOL   Cl8828270   2.893   6.942   4.840 -0.1106 -0.0954 -0.3190
  232MOL    H8928271   2.621   7.001   4.987  0.8816  1.2683 -3.4908
  232MOL    H9028272   2.549   6.842   4.950 -0.8681  0.3323  0.1757
  232MOL    H9128273   2.739   6.774   4.803  1.3067  1.0849 -2.3415
  232MOL    C9228274   2.646   6.956   4.728 -0.2663 -0.1496  0.2300
  232MOL    C9328275   2.529   6.880   4.680 -0.0810  0.0714 -0.5040
  232MOL   Cl9428276   2.564   6.751   4.559 -0.2955 -0.1166 -0.2909
  232MOL    H9528277   2.720   6.981   4.651  0.4736  1.9657  1.5714
  232MOL    H9628278   2.619   7.057   4.759 -2.3146 -0.7690  0.5137
  232MOL    H9728279   2.498   6.818   4.764 -0.2161  0.0768 -0.5502
  232MOL    C9828280   2.399   6.960   4.637 -0.1206 -0.2260 -0.0665
  232MOL    C9928281   2.333   7.047   4.748 -0.1945  0.4691 -0.1558
  232MOL  Cl10028282   2.297   6.958   4.891 -0.2135  0.2933  0.0508
  232MOL   H10128283   2.335   6.883   4.594 -0.3190  1.0144 -2.0612
  232MOL   H10228284   2.425   7.031   4.559  0.1138  0.5245  0.6794
  232MOL   H10328285   2.397   7.128   4.782 -0.5852  0.9938 -0.6489
  232MOL   C10428286   2.198   7.102   4.698  0.4914 -0.4553 -0.1183
  232MOL   C10528287   2.205   7.239   4.624 -0.1645  0.0069  0.6589
  232MOL  Cl10628288   2.260   7.360   4.748 -0.0094 -0.1513  0.0643
  232MOL   H10728289   2.131   7.116   4.783 -1.0850 -1.0372 -1.2397
  232MOL   H10828290   2.142   7.025   4.644  0.1456  0.7791 -1.5275
  232MOL   H10928291   2.270   7.241   4.536  0.7082 -0.2035  1.3017
  232MOL   C11028292   2.070   7.288   4.568 -0.4438  0.7335 -0.0326
  232MOL   C11128293   2.052   7.433   4.531  0.5738 -0.0040 -0.1922
  232MOL  Cl11228294   1.884   7.469   4.487  0.1498  0.2589  0.0796
  232MOL   H11328295   1.991   7.252   4.634  0.1434  0.7395  0.6801
  232MOL   H11428296   2.049   7.233   4.476  2.7723 -1.8782  0.6988
  232MOL   H11528297   2.066   7.492   4.621 -2.5713 -1.5562  1.4163
  232MOL   C11628298   2.146   7.470   4.422  0.2045  0.8286 -0.0723
  232MOL   C11728299   2.135   7.403   4.284  0.8453  0.4150  0.1072
  232MOL  Cl11828300   2.284   7.432   4.193 -0.0259  0.2303  0.1665
  232MOL   H11928301   2.250   7.471   4.454  0.2032  3.3199 -0.0988
  232MOL   H12028302   2.125   7.573   4.395 -2.3894  0.9390  2.0543
  232MOL   H12128303   2.118   7.296   4.294 -1.2339  0.8788  2.0543
  232MOL   H12228304   2.048   7.436   4.227 -0.7891 -2.0096  1.1266
  233MOL     C128305   3.234   4.010   4.119 -0.7172 -0.2244 -0.5095
  233MOL     C228306   3.084   4.017   4.068  0.0530 -1.0418 -0.6804
  233MOL    Cl328307   3.068   4.174   3.982 -0.0997  0.2807  0.6398
  233MOL     H428308   3.302   4.032   4.036  0.3552 -0.3303  0.3248
  233MOL     H528309   3.247   4.090   4.192 -2.5217  0.8168 -1.3093
  233MOL     H628310   3.068   3.938   3.994  0.8247 -1.3864 -0.4844
  233MOL     H728311   3.264   3.910   4.151  0.2158  1.4854  4.4521
  233MOL     C828312   2.986   4.011   4.186 -0.8182  0.0144 -0.7858
  233MOL     C928313   2.971   3.886   4.260 -0.3100  1.1875 -0.0216
  233MOL   Cl1028314   2.889   3.766   4.160  0.1191 -0.2326 -0.1586
  233MOL    H1128315   2.887   4.050   4.159 -0.7136  0.8020 -0.0276
  233MOL    H1228316   3.020   4.083   4.260  1.0371 -0.2867 -1.3308
  233MOL    H1328317   3.076   3.861   4.272 -1.0189 -2.3512 -0.6767
  233MOL    C1428318   2.894   3.901   4.394  0.3862 -0.8863 -0.8941
  233MOL    C1528319   2.960   3.842   4.520  0.0296 -0.5759 -0.4852
  233MOL   Cl1628320   3.115   3.929   4.535  0.1180 -0.0075 -0.2355
  233MOL    H1728321   2.789   3.870   4.394  0.1339 -0.0800  0.2540
  233MOL    H1828322   2.882   4.008   4.416 -3.6548 -1.9279  2.7450
  233MOL    H1928323   2.902   3.869   4.608 -0.2030 -3.1113  0.1784
  233MOL    C2028324   2.977   3.689   4.520  0.4613 -0.7215  0.1614
  233MOL    C2128325   3.054   3.633   4.646  0.5471  0.1587 -0.4871
  233MOL   Cl2228326   3.122   3.473   4.609 -0.4690  0.3207  0.3100
  233MOL    H2328327   3.025   3.663   4.426 -0.4804 -0.4446 -0.4033
  233MOL    H2428328   2.875   3.651   4.511  0.7523 -1.3899 -0.3519
  233MOL    H2528329   3.137   3.701   4.666 -1.0598  1.5950  1.6177
  233MOL    C2628330   2.968   3.622   4.773  0.4375  1.2786  0.3564
  233MOL    C2728331   3.035   3.630   4.917  0.9882  0.1395  0.1210
  233MOL   Cl2828332   3.077   3.801   4.936 -0.2847 -0.6557 -0.4387
  233MOL    H2928333   2.919   3.525   4.771  3.4371 -0.4279  3.8214
  233MOL    H3028334   2.895   3.703   4.773  0.2936  1.1560 -0.6231
  233MOL    H3128335   2.971   3.618   5.004  0.3680  2.1913 -0.0136
  233MOL    C3228336   3.161   3.545   4.935 -0.8337 -0.0623 -0.0537
  233MOL    C3328337   3.132   3.395   4.953  0.2921 -0.4285 -0.3319
  233MOL   Cl3428338   3.060   3.356   5.117  0.0578 -0.0925  0.0422
  233MOL    H3528339   3.230   3.586   5.008 -1.9716  2.1325 -0.1708
  233MOL    H3628340   3.215   3.544   4.840  2.5455  2.9172  1.7320
  233MOL    H3728341   3.053   3.364   4.884  0.5688  1.6804 -1.6429
  233MOL    C3828342   3.249   3.303   4.924 -0.5358  0.0435 -0.0395
  233MOL    C3928343   3.215   3.146   4.902  0.0948 -0.6590  0.0889
  233MOL   Cl4028344   3.365   3.057   4.933  0.0854  0.0031 -0.0268
  233MOL    H4128345   3.319   3.323   5.005  0.2691  1.5310 -1.0957
  233MOL    H4228346   3.298   3.330   4.831 -2.1877 -0.1103 -0.9804
  233MOL    H4328347   3.147   3.102   4.975  0.5900  0.3080  1.1464
  233MOL    C4428348   3.162   3.092   4.756  0.0269  0.5535 -0.4372
  233MOL    C4528349   3.014   3.121   4.729 -0.1267 -0.1615 -0.3848
  233MOL   Cl4628350   2.904   3.053   4.846  0.2749  0.1386  0.1638
  233MOL    H4728351   3.177   2.984   4.765 -0.4578  0.4790 -0.5323
  233MOL    H4828352   3.225   3.126   4.673  3.0905 -0.5138  1.3522
  233MOL    H4928353   3.012   3.230   4.723  1.3412 -0.1034 -0.1782
  233MOL    C5028354   2.969   3.080   4.587 -0.4090 -0.0464 -0.0090
  233MOL    C5128355   2.822   3.128   4.550  0.4314  0.0474 -0.3292
  233MOL   Cl5228356   2.806   3.061   4.387  0.1007 -0.0097 -0.1278
  233MOL    H5328357   2.972   2.972   4.577  2.0670  0.0309 -0.2495
  233MOL    H5428358   3.035   3.123   4.511 -0.8574 -0.8371 -0.8582
  233MOL    H5528359   2.750   3.080   4.616  0.2848  2.3979  1.2721
  233MOL    C5628360   2.799   3.283   4.541  0.5393  0.3141 -0.3469
  233MOL    C5728361   2.657   3.318   4.511 -0.2316 -0.5225  0.6265
  233MOL   Cl5828362   2.659   3.489   4.483  0.5826  0.2896  0.4480
  233MOL    H5928363   2.863   3.330   4.466  2.4867 -0.1836  0.9476
  233MOL    H6028364   2.831   3.332   4.633 -1.9481  4.0045 -1.3393
  233MOL    H6128365   2.634   3.269   4.416 -1.8783  1.4413 -0.0321
  233MOL    C6228366   2.544   3.285   4.609 -0.2436 -0.0152  0.7647
  233MOL    C6328367   2.558   3.355   4.747  0.0713 -0.8557  1.1727
  233MOL   Cl6428368   2.605   3.235   4.866 -0.1582  0.3950  0.2175
  233MOL    H6528369   2.537   3.177   4.618 -0.2556 -0.2649 -2.0065
  233MOL    H6628370   2.446   3.300   4.565  0.0952 -0.2328 -0.0722
  233MOL    H6728371   2.635   3.433   4.745  0.0434 -0.8472  0.4447
  233MOL    C6828372   2.428   3.431   4.794  0.1096 -0.8482  0.0227
  233MOL    C6928373   2.375   3.543   4.704  0.8610  0.4603  0.5063
  233MOL   Cl7028374   2.493   3.678   4.721  0.0276 -0.1655  0.2023
  233MOL    H7128375   2.449   3.475   4.891  1.4241  1.1691 -1.1210
  233MOL    H7228376   2.359   3.352   4.821  0.7302 -1.5642 -0.4549
  233MOL    H7328377   2.383   3.517   4.598  1.7231  0.3565  0.5989
  233MOL    C7428378   2.233   3.589   4.738  0.3700  0.2648 -0.1656
  233MOL    C7528379   2.174   3.704   4.653  0.2218  0.5083 -0.2607
  233MOL   Cl7628380   2.021   3.752   4.737 -0.2599  0.0544  0.3866
  233MOL    H7728381   2.223   3.621   4.842 -1.7788 -2.3604  0.4679
  233MOL    H7828382   2.166   3.504   4.742 -0.0022  0.4860 -1.3862
  233MOL    H7928383   2.241   3.789   4.664  1.3114  0.2255 -4.0268
  233MOL    C8028384   2.148   3.652   4.514 -0.0309 -0.1133  0.5272
  233MOL    C8128385   2.071   3.753   4.426 -0.1262  0.0680  0.1766
  233MOL   Cl8228386   1.996   3.659   4.300 -0.5020  0.4253  0.2863
  233MOL    H8328387   2.079   3.570   4.532  1.2601 -1.0492  1.3437
  233MOL    H8428388   2.236   3.606   4.469 -1.6243 -0.6475 -2.0939
  233MOL    H8528389   1.981   3.793   4.473 -0.2054 -1.5832  1.4942
  233MOL    C8628390   2.134   3.874   4.368 -0.5207  0.1131  0.1091
  233MOL    C8728391   2.042   3.975   4.299 -0.1445  0.0605  0.3620
  233MOL   Cl8828392   2.130   4.080   4.183  0.1134  0.4861 -0.1194
  233MOL    H8928393   2.211   3.850   4.295 -0.8586 -1.2864  0.1882
  233MOL    H9028394   2.189   3.923   4.448 -0.6769 -1.3490  1.1376
  233MOL    H9128395   1.977   3.914   4.235  0.4850 -1.6361  1.2929
  233MOL    C9228396   1.969   4.065   4.401 -0.3331  0.2762  0.7788
  233MOL    C9328397   1.818   4.084   4.371 -0.2938 -0.0527  0.3947
  233MOL   Cl9428398   1.753   4.225   4.459 -0.0881 -0.2623  0.0156
  233MOL    H9528399   2.018   4.162   4.409 -1.3342  0.7117  1.7922
  233MOL    H9628400   1.982   4.025   4.502 -1.2818 -0.0171  0.7877
  233MOL    H9728401   1.791   4.076   4.266  1.5271  0.7958 -0.1673
  233MOL    C9828402   1.753   3.950   4.425 -0.3532 -0.1302 -0.2319
  233MOL    C9928403   1.601   3.954   4.450 -0.1312  0.3847 -0.4957
  233MOL  Cl10028404   1.540   3.785   4.502 -0.1731  0.2375 -0.5034
  233MOL   H10128405   1.798   3.939   4.524  4.5143 -0.9822 -2.4046
  233MOL   H10228406   1.782   3.861   4.370 -1.5028  0.4018 -1.7161
  233MOL   H10328407   1.576   4.017   4.535 -2.2270 -0.9747 -0.0432
  233MOL   C10428408   1.510   4.007   4.329  0.7406 -0.3236 -0.3107
  233MOL   C10528409   1.361   4.039   4.370  0.1515 -0.3210  0.0682
  233MOL  Cl10628410   1.291   4.069   4.210  0.0856  0.2372  0.1386
  233MOL   H10728411   1.507   3.937   4.246 -0.0903 -2.5874  1.5719
  233MOL   H10828412   1.549   4.105   4.300 -1.0796  0.1430 -1.2639
  233MOL   H10928413   1.315   3.946   4.404  1.3324 -1.8489 -2.3143
  233MOL   C11028414   1.329   4.161   4.457 -0.4285 -0.7410 -0.5848
  233MOL   C11128415   1.180   4.206   4.469 -0.9487  0.2508  0.8707
  233MOL  Cl11228416   1.191   4.372   4.530  0.2184  0.0019 -0.2704
  233MOL   H11328417   1.374   4.247   4.408 -0.0430 -0.5224  0.1474
  233MOL   H11428418   1.376   4.148   4.554  1.2373  0.0051 -1.2850
  233MOL   H11528419   1.128   4.199   4.374  2.2440 -0.3655 -0.8612
  233MOL   C11628420   1.091   4.123   4.563 -0.4261 -0.8176  0.5246
  233MOL   C11728421   0.945   4.158   4.566  0.2550  0.5663 -0.6697
  233MOL  Cl11828422   0.853   4.079   4.430  0.0113 -0.0215  0.3509
  233MOL   H11928423   1.111   4.144   4.668 -1.1733  0.5430  0.4133
  233MOL   H12028424   1.111   4.018   4.546  1.1838 -0.4236 -0.1840
  233MOL   H12128425   0.899   4.116   4.655 -0.5504  1.7505 -0.5223
  233MOL   H12228426   0.925   4.265   4.559  0.7146  0.6578 -0.6528
  234MOL     C128427   7.518   3.303   5.771 -0.1082  0.2573  0.0829
  234MOL     C228428   7.464   3.397   5.669 -0.7657  0.0660 -0.2383
  234MOL    Cl328429   7.394   3.290   5.544  0.4805 -0.2801  0.0442
  234MOL     H428430   7.591   3.238   5.724 -0.8538 -1.7126  1.5886
  234MOL     H528431   7.582   3.354   5.843  0.9713  0.1377 -0.7817
  234MOL     H628432   7.385   3.454   5.719  1.7707  1.8028  1.9384
  234MOL     H728433   7.452   3.241   5.832  1.1008  0.0926  1.2619
  234MOL     C828434   7.563   3.489   5.612 -0.2722  0.0275  0.8719
  234MOL     C928435   7.511   3.591   5.509  0.4150 -0.9698  0.5610
  234MOL   Cl1028436   7.651   3.670   5.439  0.0169  0.0561 -0.1078
  234MOL    H1128437   7.645   3.437   5.561 -1.4322 -3.0050  2.0107
  234MOL    H1228438   7.602   3.547   5.695 -2.3937  0.0192  1.8855
  234MOL    H1328439   7.455   3.546   5.427 -1.3304  1.3724  0.3858
  234MOL    C1428440   7.424   3.699   5.577  1.2842 -0.1434  0.2334
  234MOL    C1528441   7.360   3.808   5.488 -0.1173 -0.4049 -0.0667
  234MOL   Cl1628442   7.307   3.945   5.596 -0.2991  0.0706 -0.1567
  234MOL    H1728443   7.483   3.742   5.659 -1.3153  1.7393  1.1810
  234MOL    H1828444   7.337   3.650   5.622  1.9150  0.2303  1.9178
  234MOL    H1928445   7.443   3.845   5.427  0.3746 -0.4150  0.5785
  234MOL    C2028446   7.237   3.773   5.401 -0.2377 -1.2992  0.0332
  234MOL    C2128447   7.106   3.724   5.474 -0.0310  0.3764  0.4935
  234MOL   Cl2228448   7.115   3.548   5.504 -0.1778 -0.3186  0.0727
  234MOL    H2328449   7.271   3.692   5.339 -1.4633 -1.8956  0.1167
  234MOL    H2428450   7.203   3.866   5.354 -1.3460 -1.1513  1.0740
  234MOL    H2528451   7.104   3.774   5.571  0.8492 -0.6954  1.0763
  234MOL    C2628452   6.969   3.757   5.401  0.3124 -0.1283  0.5591
  234MOL    C2728453   6.830   3.748   5.470  0.5203 -0.3024 -0.9173
  234MOL   Cl2828454   6.829   3.846   5.616  0.4824  0.0908 -0.4259
  234MOL    H2928455   6.971   3.711   5.303 -1.1696  0.4424  0.2484
  234MOL    H3028456   6.975   3.865   5.383 -2.2151 -0.3324 -1.8659
  234MOL    H3128457   6.756   3.791   5.403 -0.9675  1.3667  1.7005
  234MOL    C3228458   6.781   3.611   5.515 -0.2540 -0.4563  0.0537
  234MOL    C3328459   6.765   3.506   5.406  0.2203 -0.6203 -0.6244
  234MOL   Cl3428460   6.636   3.532   5.288 -0.3754 -0.3055  0.0200
  234MOL    H3528461   6.679   3.622   5.551 -0.0585 -1.1669  0.8325
  234MOL    H3628462   6.839   3.571   5.598  0.2147 -0.2793 -0.1835
  234MOL    H3728463   6.862   3.493   5.357 -0.2087 -0.7474 -1.4586
  234MOL    C3828464   6.730   3.368   5.460  0.2687  0.2969 -0.0116
  234MOL    C3928465   6.844   3.291   5.533  0.3103  0.1680 -0.3119
  234MOL   Cl4028466   6.958   3.241   5.409 -0.0996 -0.1499  0.3838
  234MOL    H4128467   6.676   3.301   5.392 -0.9521 -0.8689  2.0493
  234MOL    H4228468   6.663   3.386   5.545  0.2548  1.6053 -0.2875
  234MOL    H4328469   6.906   3.354   5.598  0.4139 -0.3694  0.1124
  234MOL    C4428470   6.788   3.171   5.612 -0.4139 -0.2688 -0.2504
  234MOL    C4528471   6.894   3.074   5.659  0.2336 -0.3783 -0.1289
  234MOL   Cl4628472   6.810   2.922   5.699  0.1268 -0.2803 -0.2550
  234MOL    H4728473   6.708   3.120   5.557 -1.0716  1.2887 -0.7742
  234MOL    H4828474   6.734   3.209   5.699 -0.5070 -1.3692  0.1801
  234MOL    H4928475   6.948   3.035   5.573  1.2423 -0.6706  0.6290
  234MOL    C5028476   6.979   3.128   5.773  0.0716 -0.5872  0.0541
  234MOL    C5128477   7.098   3.032   5.812  0.1131 -0.1616  0.0151
  234MOL   Cl5228478   7.175   3.089   5.956 -0.1628  0.1116  0.0201
  234MOL    H5328479   6.912   3.146   5.857 -2.5933 -1.1128 -1.8955
  234MOL    H5428480   7.013   3.226   5.739 -1.0072  0.6828  2.5260
  234MOL    H5528481   7.058   2.935   5.842 -1.6502  0.1920 -1.1108
  234MOL    C5628482   7.206   3.005   5.702 -0.3509  0.7914 -1.0526
  234MOL    C5728483   7.306   2.885   5.730  0.0742 -1.4923 -0.6925
  234MOL   Cl5828484   7.429   2.940   5.850  0.0543  0.1560 -0.2384
  234MOL    H5928485   7.259   3.097   5.677  1.2000  0.5170  1.1012
  234MOL    H6028486   7.149   2.982   5.612 -0.4261  0.9671 -1.0502
  234MOL    H6128487   7.251   2.804   5.779  0.2417 -1.5287 -0.5650
  234MOL    C6228488   7.380   2.828   5.603 -0.4210 -0.2912 -0.3414
  234MOL    C6328489   7.475   2.710   5.635 -0.4120  0.2760  0.1611
  234MOL   Cl6428490   7.557   2.669   5.481  0.7319 -0.0246 -0.4979
  234MOL    H6528491   7.438   2.911   5.565 -1.0299 -0.3411 -1.3902
  234MOL    H6628492   7.307   2.798   5.528  0.0526  1.1474 -1.3966
  234MOL    H6728493   7.557   2.744   5.698 -0.2138  0.7026 -0.3234
  234MOL    C6828494   7.406   2.582   5.695  0.5713  0.3074 -0.4149
  234MOL    C6928495   7.504   2.465   5.736 -0.1770  0.2064 -0.1559
  234MOL   Cl7028496   7.405   2.331   5.801 -0.3551  0.0971 -0.3635
  234MOL    H7128497   7.313   2.549   5.651 -0.3340  1.2170  0.7838
  234MOL    H7228498   7.361   2.610   5.790  2.5721 -1.4506  1.1210
  234MOL    H7328499   7.543   2.421   5.644  1.0372 -0.5696  0.7155
  234MOL    C7428500   7.617   2.500   5.837  0.5711 -0.4433 -0.4147
  234MOL    C7528501   7.574   2.542   5.978  0.2080 -0.8080  0.0530
  234MOL   Cl7628502   7.596   2.722   6.020  0.1398  0.1933 -0.1737
  234MOL    H7728503   7.665   2.586   5.790  0.8496 -0.1540  0.3892
  234MOL    H7828504   7.694   2.424   5.850  0.5902 -0.1769  1.2239
  234MOL    H7928505   7.466   2.537   5.989  0.1367  1.0149  0.2834
  234MOL    C8028506   7.631   2.448   6.091 -0.1472  0.2842 -0.4205
  234MOL    C8128507   7.586   2.468   6.232  0.4651  0.7048 -0.5341
  234MOL   Cl8228508   7.631   2.331   6.338  0.0155  0.4216  0.2619
  234MOL    H8328509   7.739   2.464   6.089 -0.1618  0.4234 -0.1694
  234MOL    H8428510   7.609   2.344   6.065 -2.4339  0.8267 -0.7397
  234MOL    H8528511   7.646   2.554   6.262  0.8466  1.1060 -2.3636
  234MOL    C8628512   7.436   2.495   6.261  0.4796  0.8638 -0.3515
  234MOL    C8728513   7.342   2.367   6.247 -0.1318 -0.1100 -0.3860
  234MOL   Cl8828514   7.191   2.398   6.161 -0.2686 -0.1147 -0.4453
  234MOL    H8928515   7.406   2.571   6.190 -0.4987  0.2116 -0.6403
  234MOL    H9028516   7.423   2.527   6.364 -1.9894 -2.3246  0.4322
  234MOL    H9128517   7.386   2.290   6.184 -0.0574  0.4166 -0.9814
  234MOL    C9228518   7.300   2.310   6.389 -0.5690 -0.3847 -0.1665
  234MOL    C9328519   7.226   2.173   6.396 -0.2382 -0.3074  0.3031
  234MOL   Cl9428520   7.058   2.219   6.417 -0.0706 -0.4159 -0.0286
  234MOL    H9528521   7.245   2.372   6.460 -2.7963 -0.6311 -1.6122
  234MOL    H9628522   7.392   2.288   6.443  1.1071  3.2962 -1.3721
  234MOL    H9728523   7.214   2.143   6.292  1.0285  3.3992 -1.0209
  234MOL    C9828524   7.266   2.070   6.502 -0.2993  0.1366  0.0750
  234MOL    C9928525   7.407   2.003   6.464 -0.2142 -0.2022 -0.6987
  234MOL  Cl10028526   7.376   1.883   6.339  0.1348  0.1016 -0.0190
  234MOL   H10128527   7.199   1.987   6.524  0.4602 -0.3557  0.5507
  234MOL   H10228528   7.264   2.118   6.600 -0.1739  0.5533 -0.1255
  234MOL   H10328529   7.472   2.077   6.415 -2.5738  1.8751 -0.7708
  234MOL   C10428530   7.473   1.928   6.579  0.2721 -0.0480  0.3926
  234MOL   C10528531   7.604   1.849   6.555 -0.0009  0.8545  0.9586
  234MOL  Cl10628532   7.663   1.777   6.713  0.1705 -0.2801  0.1409
  234MOL   H10728533   7.398   1.856   6.612  1.0719 -1.1539 -0.1368
  234MOL   H10828534   7.486   1.989   6.668  0.7863  2.9988 -1.6717
  234MOL   H10928535   7.599   1.769   6.481  0.5937  2.0373 -0.3810
  234MOL   C11028536   7.713   1.943   6.491 -0.1568 -0.5618  0.0486
  234MOL   C11128537   7.857   1.896   6.467 -0.2318 -0.2109  1.2466
  234MOL  Cl11228538   7.956   2.032   6.407  0.0756  0.5143  0.0259
  234MOL   H11328539   7.723   2.034   6.550  2.6751 -0.3439 -0.7142
  234MOL   H11428540   7.673   1.977   6.395 -0.2380 -0.8067 -0.0041
  234MOL   H11528541   7.899   1.861   6.561  3.3902 -0.9477 -0.5855
  234MOL   C11628542   7.875   1.785   6.362  0.0009 -0.4016  0.7846
  234MOL   C11728543   8.019   1.739   6.361  0.2151 -0.2594 -0.2738
  234MOL  Cl11828544   8.032   1.583   6.271 -0.1296  0.6764 -0.5760
  234MOL   H11928545   7.833   1.803   6.263  0.9812 -2.5258 -0.0554
  234MOL   H12028546   7.820   1.699   6.400 -0.8403 -0.8192 -1.3266
  234MOL   H12128547   8.079   1.816   6.314 -2.6180  2.4167  0.3451
  234MOL   H12228548   8.051   1.721   6.464  1.3608 -0.4288 -0.6582
  235MOL     C128549   3.985   7.369   3.463 -0.5355 -0.8478  0.1028
  235MOL     C228550   4.064   7.239   3.456  0.7164 -0.2048 -0.4800
  235MOL    Cl328551   4.092   7.179   3.620  0.0001  0.1056 -0.2203
  235MOL     H428552   4.045   7.446   3.513  1.2703 -1.3513 -1.2277
  235MOL     H528553   3.970   7.412   3.364  0.0727 -0.6557  0.0911
  235MOL     H628554   4.015   7.152   3.411  0.6574 -2.0643  3.0580
  235MOL     H728555   3.889   7.350   3.511 -2.1684  1.8450 -1.9467
  235MOL     C828556   4.203   7.267   3.400 -0.0460 -0.3654 -0.4970
  235MOL     C928557   4.201   7.313   3.254  0.4183  0.4885  0.1747
  235MOL   Cl1028558   4.160   7.179   3.135 -0.0062  0.1095 -0.5921
  235MOL    H1128559   4.268   7.179   3.405 -1.6189 -1.6388 -1.8540
  235MOL    H1228560   4.254   7.338   3.465  0.1420 -2.0174  1.2121
  235MOL    H1328561   4.119   7.384   3.239 -0.4717 -1.2814 -3.7961
  235MOL    C1428562   4.338   7.378   3.213  0.3639 -0.0056  0.7150
  235MOL    C1528563   4.335   7.465   3.084 -0.0830 -0.0209 -0.2262
  235MOL   Cl1628564   4.334   7.364   2.937  0.2926  0.0998 -0.0245
  235MOL    H1728565   4.417   7.303   3.218  0.2954  0.0337  2.7248
  235MOL    H1828566   4.364   7.454   3.287  0.7809 -0.5946  1.1745
  235MOL    H1928567   4.242   7.522   3.086  0.1977  0.4326  0.9416
  235MOL    C2028568   4.459   7.551   3.063  0.1129 -0.9577 -0.2509
  235MOL    C2128569   4.460   7.635   2.934  0.8636  0.7864  0.0548
  235MOL   Cl2228570   4.606   7.723   2.908 -0.0227 -0.2514 -0.1356
  235MOL    H2328571   4.544   7.483   3.056  0.1782 -0.9539  0.4797
  235MOL    H2428572   4.473   7.618   3.147  1.1475 -0.8938 -0.4658
  235MOL    H2528573   4.457   7.576   2.843  1.0144 -0.0828  0.6062
  235MOL    C2628574   4.348   7.736   2.921 -0.0469 -0.4177 -0.0299
  235MOL    C2728575   4.341   7.854   3.025  0.3224  0.7781  0.5192
  235MOL   Cl2828576   4.274   7.801   3.177 -0.2830 -0.0661 -0.0969
  235MOL    H2928577   4.253   7.682   2.932 -0.9648  1.1099 -0.2548
  235MOL    H3028578   4.356   7.771   2.818  1.7261 -1.3538 -0.2385
  235MOL    H3128579   4.444   7.880   3.050  0.0874  0.9185  1.3706
  235MOL    C3228580   4.251   7.965   2.964 -0.4655  1.2559 -0.3955
  235MOL    C3328581   4.244   8.094   3.048 -0.8336  0.3925 -0.6304
  235MOL   Cl3428582   4.112   8.198   2.993  0.1640  0.1251  0.1325
  235MOL    H3528583   4.154   7.917   2.956 -0.4037  1.0466  0.0849
  235MOL    H3628584   4.273   7.999   2.862 -0.2409  0.2370 -0.6949
  235MOL    H3728585   4.213   8.074   3.150 -1.0039 -0.1119 -0.7796
  235MOL    C3828586   4.378   8.175   3.065  0.7025  0.5339  0.4667
  235MOL    C3928587   4.455   8.224   2.936  0.2657  0.2413 -0.0641
  235MOL   Cl4028588   4.538   8.081   2.862  0.6480 -0.2866  0.5186
  235MOL    H4128589   4.455   8.121   3.118  0.5201  1.6616  1.9078
  235MOL    H4228590   4.356   8.263   3.125  0.0701  0.0981  0.8815
  235MOL    H4328591   4.384   8.250   2.857  0.2638 -1.7211 -0.7410
  235MOL    C4428592   4.548   8.335   2.976 -0.3648 -0.2188 -0.3320
  235MOL    C4528593   4.644   8.381   2.861 -0.0585  0.4894 -0.0712
  235MOL   Cl4628594   4.801   8.431   2.924 -0.3537  0.0682  0.1977
  235MOL    H4728595   4.613   8.297   3.055 -1.6175 -0.9719  0.3412
  235MOL    H4828596   4.512   8.432   3.011  0.1508 -0.8520  2.0611
  235MOL    H4928597   4.669   8.300   2.792  0.2932  0.4581  0.0934
  235MOL    C5028598   4.583   8.498   2.775 -0.1604 -0.6763 -0.2200
  235MOL    C5128599   4.671   0.023   2.653  0.0956  0.4196 -0.7725
  235MOL   Cl5228600   4.614   0.186   2.614  0.1685  0.1776 -0.0371
  235MOL    H5328601   4.547   0.051   2.841  1.7566  0.6268 -0.6926
  235MOL    H5428602   4.495   8.460   2.722 -0.9909  2.4457 -1.1509
  235MOL    H5528603   4.773   0.028   2.692 -1.6841  0.7546  4.2237
  235MOL    C5628604   4.663   8.456   2.531  0.2845  0.8453 -0.0304
  235MOL    C5728605   4.758   8.482   2.413  0.4890 -0.3170  0.2982
  235MOL   Cl5828606   4.693   0.062   2.289  0.0273  0.2415 -0.2467
  235MOL    H5928607   4.559   8.446   2.499 -0.2197 -0.1304  1.8514
  235MOL    H6028608   4.691   8.362   2.578  1.2232  0.9623 -0.3450
  235MOL    H6128609   4.853   8.517   2.453  1.3684 -3.9329  1.6172
  235MOL    C6228610   4.803   8.349   2.340 -0.1571  0.4602 -0.3644
  235MOL    C6328611   4.915   8.358   2.238  0.0184  0.0700  0.8872
  235MOL   Cl6428612   4.922   8.191   2.157  0.1875 -0.0415  0.3006
  235MOL    H6528613   4.714   8.303   2.297 -2.1732  1.8073  2.2348
  235MOL    H6628614   4.822   8.266   2.408  0.6678  1.1219  0.2155
  235MOL    H6728615   4.896   8.425   2.154  3.3343 -0.4030 -0.2931
  235MOL    C6828616   5.059   8.394   2.302  0.3692 -0.9111  0.3638
  235MOL    C6928617   5.170   8.379   2.195 -0.1821  0.0530 -0.0445
  235MOL   Cl7028618   5.326   8.387   2.291 -0.1431  0.3575 -0.3356
  235MOL    H7128619   5.082   8.335   2.390 -1.4473  0.0027  1.4707
  235MOL    H7228620   5.069   8.496   2.336  0.5090 -0.8467  0.1357
  235MOL    H7328621   5.163   8.277   2.157  1.1484 -0.3175  0.6822
  235MOL    C7428622   5.172   8.487   2.085  0.0541 -0.6816 -0.2195
  235MOL    C7528623   5.294   8.485   1.983 -0.2200  0.7662 -0.9667
  235MOL   Cl7628624   5.315   8.331   1.900  0.1678  0.1411 -0.2134
  235MOL    H7728625   5.145   0.052   2.139  0.0762 -0.9900  0.3122
  235MOL    H7828626   5.084   8.471   2.022 -0.1579 -1.4600  0.2701
  235MOL    H7928627   5.258   0.021   1.900  0.1058 -0.2126 -1.8383
  235MOL    C8028628   5.438   0.012   2.030 -0.2246  0.1033 -0.6351
  235MOL    C8128629   5.440   0.140   2.116  0.0365  0.1047 -0.6709
  235MOL   Cl8228630   5.351   0.273   2.030 -0.2624 -0.2548  0.1783
  235MOL    H8328631   5.512   0.029   1.951  1.1502 -0.5863  0.4790
  235MOL    H8428632   5.474   8.456   2.092 -0.3496 -0.5188 -1.3760
  235MOL    H8528633   5.389   0.127   2.211 -0.1335 -1.4351 -0.9582
  235MOL    C8628634   5.579   0.192   2.149 -0.4607 -0.6962 -0.0794
  235MOL    C8728635   5.671   0.099   2.237  0.0522  0.3404  0.1589
  235MOL   Cl8828636   5.588   0.052   2.391  0.2178  0.4628 -0.3745
  235MOL    H8928637   5.568   0.289   2.199  0.9160 -0.5882  0.0359
  235MOL    H9028638   5.635   0.225   2.062 -1.1448  0.3651 -0.1222
  235MOL    H9128639   5.694   0.011   2.177  0.0901  0.9207 -0.6930
  235MOL    C9228640   5.805   0.172   2.267  0.1485  1.3138  0.2456
  235MOL    C9328641   5.899   0.187   2.148 -0.2298 -0.1876  0.4725
  235MOL   Cl9428642   5.938   0.029   2.079  0.1690  0.0570 -0.0114
  235MOL    H9528643   5.852   0.125   2.354  1.6624  2.0403 -0.1662
  235MOL    H9628644   5.770   0.268   2.305 -0.7661  1.6005 -1.2846
  235MOL    H9728645   5.846   0.231   2.063 -1.2737  0.7522  1.5848
  235MOL    C9828646   6.025   0.266   2.166 -0.3088  0.3215  0.0357
  235MOL    C9928647   6.005   0.413   2.175  0.0002 -0.2649 -0.1236
  235MOL  Cl10028648   5.957   0.476   2.018  0.2398  0.3483 -0.4598
  235MOL   H10128649   6.096   0.246   2.086 -0.8434 -2.5727  0.2511
  235MOL   H10228650   6.074   0.235   2.259  1.0982 -1.4995 -1.2995
  235MOL   H10328651   5.923   0.427   2.245  0.7942  2.8345  0.2697
  235MOL   C10428652   6.139   0.486   2.222 -0.4561  0.1066  0.1246
  235MOL   C10528653   6.113   0.635   2.250 -0.5706  0.1031  0.3238
  235MOL  Cl10628654   6.264   0.731   2.247 -0.3260  0.1603 -0.4406
  235MOL   H10728655   6.221   0.479   2.150  0.5548  2.5202  0.9967
  235MOL   H10828656   6.176   0.440   2.314 -1.5975 -1.3272 -0.1197
  235MOL   H10928657   6.048   0.679   2.173 -1.7933 -0.9727  0.7255
  235MOL   C11028658   6.028   0.667   2.374 -0.2758 -0.0184 -0.4314
  235MOL   C11128659   5.924   0.780   2.362 -0.1723  0.4065  0.1043
  235MOL  Cl11228660   6.015   0.933   2.329 -0.0226  0.0234  0.2441
  235MOL   H11328661   6.103   0.692   2.450 -1.8888  2.0592  0.5397
  235MOL   H11428662   5.976   0.579   2.413 -3.2485  1.9438  0.2362
  235MOL   H11528663   5.866   0.752   2.274  1.0555  0.6993 -0.8033
  235MOL   C11628664   5.824   0.784   2.485  0.3043 -0.1655  1.0081
  235MOL   C11728665   5.718   0.892   2.473  0.2948 -0.5857 -0.3441
  235MOL  Cl11828666   5.619   0.893   2.619 -0.0860 -0.1387  0.1073
  235MOL   H11928667   5.878   0.807   2.577 -0.8621 -1.1630  1.9529
  235MOL   H12028668   5.792   0.680   2.486 -1.2975  0.3177  1.3354
  235MOL   H12128669   5.758   0.991   2.453 -0.9497  0.0211  0.1139
  235MOL   H12228670   5.667   0.862   2.381 -0.5416  0.4693 -0.2359
  236MOL     C128671   0.392   1.801   5.561  0.7941 -0.3236  0.4155
  236MOL     C228672   0.296   1.691   5.519 -0.1473  0.2964 -0.1880
  236MOL    Cl328673   0.259   1.711   5.353 -0.5758  0.2070  0.1497
  236MOL     H428674   0.454   1.836   5.479 -0.7843  0.0650 -0.6255
  236MOL     H528675   0.320   1.880   5.585  0.5402  0.3422 -2.4189
  236MOL     H628676   0.346   1.595   5.534  1.3022  1.2467  1.2893
  236MOL     H728677   0.442   1.770   5.653  1.7997  1.3194  0.4502
  236MOL     C828678   0.165   1.688   5.590 -0.3951  0.1284 -0.1016
  236MOL     C928679   0.175   1.650   5.734  0.4629  0.1481 -0.4572
  236MOL   Cl1028680   0.223   1.481   5.742  0.2754 -0.0811 -0.1462
  236MOL    H1128681   0.114   1.598   5.555  0.7850 -0.4308 -0.4144
  236MOL    H1228682   0.102   1.775   5.577 -2.0627 -1.0862 -0.3175
  236MOL    H1328683   0.255   1.712   5.775  0.6688 -0.7308  0.4989
  236MOL    C1428684   0.052   1.668   5.826 -0.5019 -0.2594  0.8523
  236MOL    C1528685   0.031   1.817   5.873 -0.2466  0.9631  0.1394
  236MOL   Cl1628686   8.486   1.907   5.737  0.0260  0.4926 -0.0308
  236MOL    H1728687   0.051   1.608   5.917 -0.7306  0.6315  1.4416
  236MOL    H1828688   8.491   1.636   5.768 -1.0459 -0.8277  1.9575
  236MOL    H1928689   8.483   1.819   5.954  0.6353  0.0253  0.9788
  236MOL    C2028690   0.156   1.890   5.912 -0.2168  0.1932 -0.0033
  236MOL    C2128691   0.248   1.816   6.019  0.6963 -0.8000 -0.1446
  236MOL   Cl2228692   0.184   1.824   6.191 -0.0651  0.2777 -0.2292
  236MOL    H2328693   0.126   1.985   5.957 -0.9092 -0.4469  0.9053
  236MOL    H2428694   0.204   1.931   5.823 -0.2948 -1.1100 -0.6560
  236MOL    H2528695   0.254   1.709   6.000  0.0676 -0.1872 -4.3116
  236MOL    C2628696   0.391   1.867   6.026 -0.7494 -0.2394 -0.2137
  236MOL    C2728697   0.410   2.016   6.056 -0.3603  0.0548  0.7442
  236MOL   Cl2828698   0.421   2.104   5.903 -0.4163  0.1449  0.3909
  236MOL    H2928699   0.441   1.853   5.930  0.3757  2.6888 -0.1068
  236MOL    H3028700   0.447   1.804   6.094 -0.2956 -0.3857 -0.7206
  236MOL    H3128701   0.335   2.063   6.119 -1.3352  0.2487 -0.5255
  236MOL    C3228702   0.543   2.028   6.143  0.3456  0.3487  0.5824
  236MOL    C3328703   0.543   1.977   6.289 -0.3506  0.1024 -0.6898
  236MOL   Cl3428704   0.425   2.076   6.372  0.3922 -0.1690 -0.1722
  236MOL    H3528705   0.586   2.128   6.149  1.2609  0.2025 -2.6520
  236MOL    H3628706   0.616   1.960   6.099 -1.5106 -1.0784 -0.3763
  236MOL    H3728707   0.500   1.877   6.299  0.7666 -0.1152  2.2278
  236MOL    C3828708   0.674   1.995   6.369 -0.2594  0.1790  0.2540
  236MOL    C3928709   0.785   1.901   6.321  1.0526  0.1586  0.5243
  236MOL   Cl4028710   0.753   1.743   6.363  0.1759 -0.5243 -0.0527
  236MOL    H4128711   0.673   1.978   6.476  2.7706  1.0651  0.4551
  236MOL    H4228712   0.698   2.101   6.356  0.6395 -0.1781 -1.0365
  236MOL    H4328713   0.781   1.912   6.213 -3.0033  1.0116  0.6914
  236MOL    C4428714   0.920   1.940   6.367 -0.4159  0.0991  0.2435
  236MOL    C4528715   0.974   2.075   6.313 -0.1439  0.1747 -0.6501
  236MOL   Cl4628716   0.971   2.074   6.137  0.0071  0.0447  0.2278
  236MOL    H4728717   0.988   1.859   6.342  0.8473  0.7863  1.3920
  236MOL    H4828718   0.922   1.954   6.475  0.3116 -0.2193  0.2728
  236MOL    H4928719   0.914   2.157   6.353  0.6485  0.5162 -0.1460
  236MOL    C5028720   1.123   2.092   6.346 -0.0965 -0.0518 -0.3313
  236MOL    C5128721   1.158   2.097   6.497 -0.0327 -0.2916 -0.1108
  236MOL   Cl5228722   1.076   2.239   6.553  0.0748  0.2317 -0.1094
  236MOL    H5328723   1.160   2.177   6.290 -2.4784  0.3559 -1.3657
  236MOL    H5428724   1.169   2.003   6.303 -1.6718 -1.0689  0.0370
  236MOL    H5528725   1.123   2.021   6.567 -1.0345  2.1260  2.1155
  236MOL    C5628726   1.309   2.123   6.519  0.3181  0.1260  0.1415
  236MOL    C5728727   1.408   2.015   6.466  0.6752 -0.5566  0.1834
  236MOL   Cl5828728   1.374   1.858   6.549  0.5084 -0.3167  0.3569
  236MOL    H5928729   1.324   2.144   6.625  0.7295 -0.9296  0.3055
  236MOL    H6028730   1.318   2.220   6.472  1.5095  1.2657  2.6067
  236MOL    H6128731   1.393   1.996   6.360 -1.4506  1.4787  0.1029
  236MOL    C6228732   1.555   2.046   6.496  0.7106  0.2607  0.3905
  236MOL    C6328733   1.612   2.172   6.431 -0.3146 -0.6301  0.5572
  236MOL   Cl6428734   1.589   2.138   6.253  0.1827  0.2367 -0.6500
  236MOL    H6528735   1.619   1.973   6.447 -0.7742  0.2577 -1.6379
  236MOL    H6628736   1.574   2.028   6.602  2.9219 -0.7869 -0.1595
  236MOL    H6728737   1.545   2.255   6.454  0.5381  0.5228 -1.0262
  236MOL    C6828738   1.760   2.212   6.466 -0.1049 -0.6873  0.0170
  236MOL    C6928739   1.780   2.264   6.615  0.2782 -0.5702 -0.7916
  236MOL   Cl7028740   1.673   2.399   6.664  0.2026  0.4480  0.0311
  236MOL    H7128741   1.785   2.301   6.409 -0.5164  1.1459  2.6053
  236MOL    H7228742   1.835   2.139   6.438 -0.9182 -0.9518 -1.5387
  236MOL    H7328743   1.761   2.182   6.684  2.0073  0.0578  0.4688
  236MOL    C7428744   1.924   2.316   6.647 -0.2656 -0.8417  0.7622
  236MOL    C7528745   2.040   2.213   6.613  0.1800 -0.6821  0.0799
  236MOL   Cl7628746   2.008   2.060   6.703 -0.3573 -0.0771  0.1385
  236MOL    H7728747   1.919   2.337   6.754  0.2977 -0.7225  0.7666
  236MOL    H7828748   1.934   2.404   6.583 -0.7256 -0.9033  0.6063
  236MOL    H7928749   2.035   2.180   6.509  1.1222  0.0160 -0.1990
  236MOL    C8028750   2.176   2.272   6.642  0.0904 -0.4834  1.0855
  236MOL    C8128751   2.228   2.386   6.553 -0.1829  0.1278 -0.5829
  236MOL   Cl8228752   2.151   2.547   6.607 -0.1600  0.1737  0.1803
  236MOL    H8328753   2.246   2.190   6.627  2.2544  1.5337 -0.1916
  236MOL    H8428754   2.183   2.294   6.749 -1.9471 -1.0282  1.3533
  236MOL    H8528755   2.336   2.390   6.566 -0.3409 -0.1786  0.9037
  236MOL    C8628756   2.205   2.361   6.404  0.0032  0.3191 -0.3486
  236MOL    C8728757   2.278   2.462   6.328 -0.1860 -0.0091 -0.1397
  236MOL   Cl8828758   2.210   2.464   6.159  0.2472  0.3634  0.2006
  236MOL    H8928759   2.098   2.360   6.381 -0.1740  0.5216  0.4431
  236MOL    H9028760   2.236   2.261   6.373  0.1673 -0.1471  1.2403
  236MOL    H9128761   2.272   2.562   6.372 -0.4933 -0.6905  1.3918
  236MOL    C9228762   2.424   2.432   6.320 -0.0584 -0.6357  0.2386
  236MOL    C9328763   2.519   2.521   6.241  0.1605  0.2483 -0.2960
  236MOL   Cl9428764   2.676   2.448   6.238 -0.1919 -0.0140 -0.2699
  236MOL    H9528765   2.432   2.341   6.260 -0.3438 -0.3018 -0.3084
  236MOL    H9628766   2.462   2.395   6.415  0.4176  0.4347  0.4702
  236MOL    H9728767   2.496   2.534   6.135  1.7278 -0.4871 -0.7383
  236MOL    C9828768   2.531   2.661   6.312 -0.4574 -1.2360  0.1524
  236MOL    C9928769   2.437   2.771   6.263 -0.2354 -0.6045  0.2355
  236MOL  Cl10028770   2.505   2.852   6.113  0.4131  0.1982 -0.1581
  236MOL   H10128771   2.631   2.702   6.295 -0.8645 -1.1119 -2.2029
  236MOL   H10228772   2.523   2.655   6.420 -1.2629  0.3703  0.1922
  236MOL   H10328773   2.336   2.737   6.239 -0.5127  0.7985 -0.6473
  236MOL   C10428774   2.419   2.884   6.367  0.0842  0.4146 -0.1371
  236MOL   C10528775   2.317   2.849   6.481  0.5379  0.2985  0.1809
  236MOL  Cl10628776   2.155   2.892   6.424  0.2955  0.2378 -0.1432
  236MOL   H10728777   2.391   2.971   6.308  0.3350 -0.7231 -1.9766
  236MOL   H10828778   2.513   2.916   6.411  0.1614  1.1935 -0.8599
  236MOL   H10928779   2.318   2.741   6.494 -0.4556  0.1973 -0.4793
  236MOL   C11028780   2.341   2.925   6.607 -0.1199  0.0437 -0.5148
  236MOL   C11128781   2.451   2.870   6.696 -0.2274 -0.6398  0.5126
  236MOL  Cl11228782   2.442   2.701   6.730  0.1025  0.6121 -0.2446
  236MOL   H11328783   2.253   2.914   6.669 -1.2229  2.8983 -1.4993
  236MOL   H11428784   2.356   3.032   6.594  0.7072  0.0813  0.6731
  236MOL   H11528785   2.549   2.885   6.651 -1.6194  5.0053 -0.9956
  236MOL   C11628786   2.452   2.959   6.822  0.5499 -0.6204 -0.3543
  236MOL   C11728787   2.575   2.947   6.910  0.2152 -0.3790 -0.2993
  236MOL  Cl11828788   2.700   3.061   6.842 -0.3251 -0.2042  0.4940
  236MOL   H11928789   2.360   2.940   6.876  0.6989 -2.7582 -0.8021
  236MOL   H12028790   2.428   3.061   6.796 -1.4450 -0.3807  2.1706
  236MOL   H12128791   2.560   2.994   7.007  1.9039  0.0244 -0.2183
  236MOL   H12228792   2.614   2.846   6.916  1.8343  0.2811  0.6894
  237MOL     C128793   0.227   2.453   6.408 -0.6464  0.6629 -0.0575
  237MOL     C228794   0.220   2.424   6.263 -0.0576 -0.0887  0.3607
  237MOL    Cl328795   0.127   2.280   6.210 -0.2691 -0.1930 -0.5597
  237MOL     H428796   0.138   2.495   6.455 -0.4295 -0.1145  1.0778
  237MOL     H528797   0.254   2.364   6.465 -0.2258 -0.4654 -1.9674
  237MOL     H628798   0.158   2.507   6.230 -0.4278  0.3212  2.0493
  237MOL     H728799   0.305   2.526   6.430 -0.9351  0.7141  0.8379
  237MOL     C828800   0.355   2.431   6.191 -0.8390 -0.6843  0.0925
  237MOL     C928801   0.354   2.420   6.043 -0.3777 -0.3183 -0.2915
  237MOL   Cl1028802   0.530   2.402   5.994  0.2046  0.0486 -0.3450
  237MOL    H1128803   0.409   2.346   6.232 -1.2114 -0.1760  1.6839
  237MOL    H1228804   0.400   2.519   6.238 -2.0957  0.2911 -0.4935
  237MOL    H1328805   0.311   2.327   6.006 -0.8355  0.4346 -1.7187
  237MOL    C1428806   0.280   2.532   5.969 -0.0939  0.4476  0.1560
  237MOL    C1528807   0.332   2.670   5.991 -0.6290 -0.0891 -0.0599
  237MOL   Cl1628808   0.226   2.729   6.121 -0.0595  0.1199 -0.1313
  237MOL    H1728809   0.173   2.528   5.987  0.1523  0.2593  1.6165
  237MOL    H1828810   0.296   2.504   5.865  0.6058 -1.4000  0.7535
  237MOL    H1928811   0.431   2.673   6.035 -0.5989  1.8920 -0.2452
  237MOL    C2028812   0.334   2.765   5.871  0.8342  0.0990 -0.8306
  237MOL    C2128813   0.431   2.728   5.753  0.9673 -0.1086 -0.2488
  237MOL   Cl2228814   0.601   2.705   5.808 -0.1811  0.0883  0.2893
  237MOL    H2328815   0.367   2.866   5.897  1.5148 -0.2809 -0.2130
  237MOL    H2428816   0.232   2.771   5.833  1.1858  2.6149 -1.4632
  237MOL    H2528817   0.403   2.626   5.725  1.7762 -0.3092 -0.3606
  237MOL    C2628818   0.418   2.813   5.632  0.2715  0.1047  0.4215
  237MOL    C2728819   0.276   2.828   5.566  0.1544  0.3027  0.1555
  237MOL   Cl2828820   0.207   2.663   5.525  0.5521  0.3172  0.0349
  237MOL    H2928821   0.470   2.758   5.554 -1.1847  1.4044 -1.5170
  237MOL    H3028822   0.476   2.905   5.627  1.5626 -0.7339  0.0763
  237MOL    H3128823   0.212   2.874   5.642  1.2476 -0.0143  1.2933
  237MOL    C3228824   0.279   2.908   5.434  0.3591 -0.0222 -0.2909
  237MOL    C3328825   0.145   2.950   5.374 -0.3365 -0.7104  0.6118
  237MOL   Cl3428826   0.168   3.025   5.213  0.1414 -0.2894  0.2603
  237MOL    H3528827   0.324   2.847   5.356  0.2757 -0.6079  0.1140
  237MOL    H3628828   0.336   2.998   5.458 -1.3855  1.4980 -1.5939
  237MOL    H3728829   0.101   2.852   5.354  0.7188 -0.8124 -1.2843
  237MOL    C3828830   0.048   3.030   5.463 -0.2442 -0.7533 -0.4893
  237MOL    C3928831   0.081   3.182   5.495  0.2257 -0.1326 -0.0921
  237MOL   Cl4028832   0.236   3.205   5.590  0.1569 -0.2236 -0.1300
  237MOL    H4128833   0.025   2.968   5.549  4.0949 -1.2570  0.4629
  237MOL    H4228834   8.493   3.021   5.390  0.5791  1.4342 -1.7247
  237MOL    H4328835   0.087   3.228   5.397  0.7836 -1.6470 -0.7783
  237MOL    C4428836   8.491   3.255   5.571 -0.3727 -0.6321  0.1841
  237MOL    C4528837   8.355   3.243   5.506  0.2591 -0.5012 -0.3037
  237MOL   Cl4628838   8.352   3.312   5.344 -0.3402 -0.0043  0.1191
  237MOL    H4728839   8.525   3.358   5.581 -0.7886 -0.4963  0.2202
  237MOL    H4828840   8.485   3.218   5.673  0.5897  0.4308  0.6420
  237MOL    H4928841   8.321   3.139   5.503  3.2836 -1.4826 -3.7689
  237MOL    C5028842   8.256   3.324   5.586  0.6379  1.0292 -0.2272
  237MOL    C5128843   8.106   3.314   5.538  0.2098 -0.1442  0.4807
  237MOL   Cl5228844   8.008   3.427   5.631  0.0757 -0.1266  0.2493
  237MOL    H5328845   8.287   3.429   5.586  0.0649  1.2432  2.1014
  237MOL    H5428846   8.252   3.295   5.691  0.1686 -1.0679 -0.7994
  237MOL    H5528847   8.110   3.348   5.434  1.0134  0.4613  0.7144
  237MOL    C5628848   8.051   3.167   5.559  0.0954 -0.0480 -0.5206
  237MOL    C5728849   7.928   3.129   5.481 -0.0234 -0.3213  0.4041
  237MOL   Cl5828850   7.867   2.976   5.547 -0.1513 -0.1333  0.0244
  237MOL    H5928851   8.030   3.149   5.664 -1.9213  0.2735 -0.8384
  237MOL    H6028852   8.127   3.093   5.534  1.6473  1.6109 -0.8860
  237MOL    H6128853   7.856   3.206   5.509  0.5105 -0.1564  1.3498
  237MOL    C6228854   7.942   3.122   5.329 -0.2758 -0.3975 -0.7931
  237MOL    C6328855   7.808   3.111   5.260 -0.0132 -0.6608 -0.5705
  237MOL   Cl6428856   7.850   3.071   5.087 -0.2928  0.2412  0.5060
  237MOL    H6528857   7.996   3.031   5.302 -0.7149 -0.4923 -1.3586
  237MOL    H6628858   8.002   3.208   5.299  0.1778 -0.4238  0.0080
  237MOL    H6728859   7.754   3.025   5.301 -1.4970  0.4943 -0.0660
  237MOL    C6828860   7.719   3.231   5.270  0.2514  0.4218 -0.8484
  237MOL    C6928861   7.587   3.232   5.191  0.0934 -0.1918  0.2952
  237MOL   Cl7028862   7.497   3.391   5.202  0.0092  0.0367 -0.1050
  237MOL    H7128863   7.777   3.318   5.241  0.3680  1.0904  1.2980
  237MOL    H7228864   7.695   3.239   5.376  0.7765 -0.6337 -0.6437
  237MOL    H7328865   7.618   3.225   5.087  1.6864  4.4366  0.3290
  237MOL    C7428866   7.488   3.124   5.240 -0.2848  0.3159 -0.6963
  237MOL    C7528867   7.334   3.142   5.212  0.3364  0.5885  0.2989
  237MOL   Cl7628868   7.234   3.024   5.301 -0.3465 -0.1757  0.2509
  237MOL    H7728869   7.505   3.127   5.347 -1.0789 -1.8958 -0.4799
  237MOL    H7828870   7.517   3.023   5.211  0.4323  0.5062 -0.6390
  237MOL    H7928871   7.304   3.241   5.248  1.1844  0.8184  0.4013
  237MOL    C8028872   7.301   3.133   5.063 -0.9277  0.6913  0.0190
  237MOL    C8128873   7.164   3.174   5.032 -0.0024 -0.6702  0.4990
  237MOL   Cl8228874   7.147   3.133   4.857 -0.3308  0.3471 -0.6710
  237MOL    H8328875   7.320   3.033   5.026  0.1704  0.1596  1.9389
  237MOL    H8428876   7.375   3.189   5.006  0.2324 -1.4266 -0.5995
  237MOL    H8528877   7.090   3.106   5.076  1.4984 -1.3492  2.0219
  237MOL    C8628878   7.127   3.320   5.063  0.0097 -0.0384  1.1463
  237MOL    C8728879   6.991   3.366   5.018  0.3128  0.6036 -0.2985
  237MOL   Cl8828880   6.972   3.532   5.089 -0.1106 -0.1734  0.0563
  237MOL    H8928881   7.203   3.384   5.018 -0.0692 -0.6952  0.0762
  237MOL    H9028882   7.134   3.328   5.171 -1.0060 -1.4127  1.3264
  237MOL    H9128883   7.005   3.373   4.910 -1.0665  1.8595 -0.4220
  237MOL    C9228884   6.862   3.287   5.069 -0.1924 -0.2202  0.0487
  237MOL    C9328885   6.725   3.318   5.005 -0.1488 -0.1462 -0.1743
  237MOL   Cl9428886   6.610   3.220   5.094 -0.2203 -0.6301 -0.2587
  237MOL    H9528887   6.844   3.312   5.173 -0.1865 -0.0226  0.0017
  237MOL    H9628888   6.879   3.179   5.079  2.3981  0.1219 -0.2831
  237MOL    H9728889   6.699   3.423   5.018 -0.9756 -0.4625  0.8017
  237MOL    C9828890   6.722   3.279   4.860 -0.1536  0.0372 -0.0289
  237MOL    C9928891   6.626   3.366   4.770 -0.4243 -0.3774  0.0417
  237MOL  Cl10028892   6.624   3.268   4.621 -0.0585  0.4552  0.1184
  237MOL   H10128893   6.700   3.172   4.860 -0.0384  0.0113  0.9407
  237MOL   H10228894   6.823   3.284   4.818 -0.2907 -0.5806 -0.4310
  237MOL   H10328895   6.528   3.370   4.818  0.1099 -0.4530  1.1618
  237MOL   C10428896   6.666   3.505   4.727 -0.3826  0.2170  0.4221
  237MOL   C10528897   6.656   3.619   4.832 -0.6896 -0.1595  0.0178
  237MOL  Cl10628898   6.496   3.616   4.909  0.1068 -0.0156  0.2515
  237MOL   H10728899   6.617   3.532   4.634  0.4465 -1.0658 -0.4003
  237MOL   H10828900   6.773   3.505   4.702 -0.6259 -0.4807 -0.6483
  237MOL   H10928901   6.731   3.614   4.910 -0.0445 -0.4345 -0.6129
  237MOL   C11028902   6.676   3.756   4.779  0.1992  0.4708 -0.7587
  237MOL   C11128903   6.819   3.794   4.753 -0.1781 -0.0679  0.0306
  237MOL  Cl11228904   6.896   3.809   4.913  0.3993  0.1672  0.0536
  237MOL   H11328905   6.644   3.824   4.858 -0.6283  0.7484 -1.3281
  237MOL   H11428906   6.619   3.782   4.690  0.6051  0.0340 -1.1443
  237MOL   H11528907   6.871   3.732   4.681  0.7499  0.2837  0.3860
  237MOL   C11628908   6.822   3.939   4.680 -0.1079  0.3539  0.1957
  237MOL   C11728909   6.960   3.990   4.637 -0.3143 -0.6121  0.4875
  237MOL  Cl11828910   7.011   3.900   4.494 -0.0660  0.1250  0.0576
  237MOL   H11928911   6.775   4.001   4.757 -0.3401 -0.8336  1.0326
  237MOL   H12028912   6.761   3.941   4.590 -1.9400 -0.7107  1.3854
  237MOL   H12128913   6.985   4.093   4.612  0.1172 -0.4571  1.5172
  237MOL   H12228914   7.031   3.960   4.714  0.4410 -0.1711 -0.0239
  238MOL     C128915   0.932   0.536   6.792 -0.5499 -0.0651  0.1070
  238MOL     C228916   0.817   0.492   6.873  0.9743  0.6565  0.2481
  238MOL    Cl328917   0.888   0.466   7.040 -0.0708 -0.1015 -0.0590
  238MOL     H428918   1.004   0.457   6.770 -0.2262  0.7399 -1.8406
  238MOL     H528919   0.917   0.573   6.691 -0.4785  1.5559  0.6714
  238MOL     H628920   0.754   0.581   6.876  1.0000  0.6577  0.8497
  238MOL     H728921   0.979   0.617   6.848 -1.7536 -0.6265  1.9792
  238MOL     C828922   0.731   0.374   6.822 -0.1949 -0.2464  0.8734
  238MOL     C928923   0.699   0.378   6.672 -0.3970  0.3968 -0.4725
  238MOL   Cl1028924   0.594   0.516   6.638 -0.2348 -0.2743 -0.0834
  238MOL    H1128925   0.637   0.371   6.879 -1.1142  2.0044 -0.4481
  238MOL    H1228926   0.786   0.281   6.837 -0.1380 -0.5451 -1.1463
  238MOL    H1328927   0.789   0.390   6.612 -0.7735  0.7354 -0.9794
  238MOL    C1428928   0.609   0.250   6.626 -0.5070  0.3146 -0.5498
  238MOL    C1528929   0.605   0.216   6.474 -0.1582 -0.0508 -0.0589
  238MOL   Cl1628930   0.772   0.208   6.408 -0.0321 -0.1021  0.2774
  238MOL    H1728931   0.512   0.248   6.675  0.1857 -5.4089  0.9223
  238MOL    H1828932   0.667   0.165   6.661 -0.0006  0.7633 -0.2707
  238MOL    H1928933   0.562   0.116   6.459  0.7648 -0.0329 -3.2284
  238MOL    C2028934   0.520   0.302   6.392  0.2791 -0.0077 -0.0225
  238MOL    C2128935   0.369   0.310   6.432  0.4206  0.7876  0.2350
  238MOL   Cl2228936   0.299   0.158   6.390 -0.3671 -0.3350  0.0659
  238MOL    H2328937   0.519   0.261   6.291  3.1056 -0.8595  0.2342
  238MOL    H2428938   0.570   0.398   6.395  0.9416 -0.3126 -1.1919
  238MOL    H2528939   0.357   0.326   6.539 -0.3099 -3.4187  0.8402
  238MOL    C2628940   0.298   0.427   6.358 -0.4793 -0.1446  0.1570
  238MOL    C2728941   0.161   0.460   6.409 -0.3141  0.5818  0.1317
  238MOL   Cl2828942   0.080   0.564   6.284 -0.3816 -0.3677  0.3544
  238MOL    H2928943   0.296   0.404   6.251  1.1760  0.5117 -0.0451
  238MOL    H3028944   0.362   0.515   6.367 -1.9958  1.1455 -1.1825
  238MOL    H3128945   0.098   0.371   6.401 -1.3132  1.1701  1.2535
  238MOL    C3228946   0.154   0.523   6.544  0.3068 -0.0705 -0.3358
  238MOL    C3328947   0.025   0.600   6.592  0.3658 -0.3379 -0.6647
  238MOL   Cl3428948   0.017   0.759   6.518 -0.1858  0.3463  0.0511
  238MOL    H3528949   0.231   0.599   6.534 -0.8758  0.8849 -2.3981
  238MOL    H3628950   0.188   0.460   6.626 -0.4961  0.1901  0.2092
  238MOL    H3728951   8.461   0.544   6.565 -0.9163  0.6911  1.2935
  238MOL    C3828952   0.015   0.614   6.749  0.2166 -0.2560 -1.1160
  238MOL    C3928953   8.406   0.648   6.809 -0.1909  0.7597 -0.2788
  238MOL   Cl4028954   8.296   0.521   6.768  0.1995 -0.6520  0.0589
  238MOL    H4128955   0.092   0.687   6.774 -0.2425 -0.2519  0.2882
  238MOL    H4228956   0.043   0.523   6.802  2.2616  0.5758 -0.7282
  238MOL    H4328957   8.411   0.646   6.918 -2.0792  2.1352 -0.1480
  238MOL    C4428958   8.344   0.786   6.776  0.2282  0.7768 -0.0048
  238MOL    C4528959   8.427   0.897   6.837 -0.1314 -0.0040  0.6795
  238MOL   Cl4628960   8.385   0.924   7.005  0.0109 -0.3374 -0.0154
  238MOL    H4728961   8.237   0.782   6.793  0.2682 -1.0638 -0.0702
  238MOL    H4828962   8.337   0.803   6.669 -2.7570 -1.9043 -0.2883
  238MOL    H4928963   0.006   0.867   6.843 -0.3547 -1.3276 -1.4445
  238MOL    C5028964   8.415   1.029   6.760  0.2512 -0.2272  0.1282
  238MOL    C5128965   8.294   1.120   6.770 -0.4624 -0.0719  0.8748
  238MOL   Cl5228966   8.152   1.030   6.715 -0.2451  0.0815  0.2684
  238MOL    H5328967   8.436   0.993   6.659 -1.3371  1.4291 -0.8023
  238MOL    H5428968   8.502   1.086   6.792 -0.1665 -0.3693  1.5671
  238MOL    H5528969   8.272   1.157   6.870  2.9293  2.1152  0.8958
  238MOL    C5628970   8.296   1.246   6.682 -0.0044  0.1841  0.7623
  238MOL    C5728971   8.386   1.370   6.735 -0.1915  0.2702 -0.1939
  238MOL   Cl5828972   8.318   1.425   6.892 -0.1483 -0.0243  0.2063
  238MOL    H5928973   8.194   1.282   6.671 -0.1584 -0.0976  1.2465
  238MOL    H6028974   8.331   1.214   6.584 -1.5053 -0.1606  0.3227
  238MOL    H6128975   8.486   1.337   6.764 -0.8202 -0.1844  1.5352
  238MOL    C6228976   8.383   1.505   6.650  0.1392  0.1735 -0.7795
  238MOL    C6328977   8.455   1.496   6.515 -0.6396 -0.2442 -0.9523
  238MOL   Cl6428978   0.108   1.488   6.533  0.2465 -0.3991  0.6216
  238MOL    H6528979   8.425   1.581   6.714  2.7365 -1.6713 -0.2354
  238MOL    H6628980   8.279   1.534   6.632 -1.0149 -0.6061  3.9623
  238MOL    H6728981   8.429   1.395   6.481  0.7515 -0.2930 -1.8934
  238MOL    C6828982   8.406   1.591   6.409 -0.2447  0.2221  0.2792
  238MOL    C6928983   8.445   1.557   6.266 -0.3697 -0.0103  0.1667
  238MOL   Cl7028984   8.356   1.669   6.161  0.0111 -0.0993  0.0166
  238MOL    H7128985   8.438   1.693   6.432 -1.2798  0.7117 -0.3896
  238MOL    H7228986   8.297   1.592   6.416 -0.1907 -0.3453  1.2850
  238MOL    H7328987   0.024   1.586   6.253 -0.2774 -0.1570  0.5792
  238MOL    C7428988   8.411   1.411   6.213  0.2599  0.4340 -0.2634
  238MOL    C7528989   0.005   1.313   6.206 -0.5128 -0.5515  0.4512
  238MOL   Cl7628990   0.107   1.377   6.077  0.4034  0.3532 -0.4212
  238MOL    H7728991   8.373   1.425   6.112 -0.4760 -1.5345 -0.2765
  238MOL    H7828992   8.327   1.374   6.271 -0.6895  1.3575 -1.0453
  238MOL    H7928993   0.065   1.319   6.297  2.8680 -1.2249 -1.6053
  238MOL    C8028994   8.486   1.170   6.165 -0.6215  0.5143  0.3615
  238MOL    C8128995   8.418   1.095   6.282  0.7070  0.2744 -0.1501
  238MOL   Cl8228996   0.007   1.102   6.421  0.3104  0.2607  0.1867
  238MOL    H8328997   0.050   1.119   6.128 -2.2636 -1.6746 -0.6507
  238MOL    H8428998   8.412   1.163   6.086 -0.3319  0.6087  0.0769
  238MOL    H8528999   8.326   1.150   6.305  0.4198  0.5375 -1.8430
  238MOL    C8629000   8.385   0.946   6.243 -0.2320 -1.0072 -0.2126
  238MOL    C8729001   8.289   0.926   6.123  0.3646  0.1040  0.0531
  238MOL   Cl8829002   8.141   1.021   6.159  0.2467  0.4341 -0.1677
  238MOL    H8929003   8.346   0.897   6.331 -0.2470  0.3350  0.5402
  238MOL    H9029004   8.480   0.895   6.228  0.2424  0.1650 -1.3819
  238MOL    H9129005   8.331   0.978   6.037 -1.3143 -1.3052 -1.6752
  238MOL    C9229006   8.269   0.776   6.087  0.3460  0.3690 -0.7727
  238MOL    C9329007   8.243   0.747   5.944 -0.3017  0.1776 -0.3368
  238MOL   Cl9429008   8.099   0.836   5.894  0.1825 -0.0192 -0.1637
  238MOL    H9529009   8.183   0.727   6.135  0.8077 -0.7664 -1.0786
  238MOL    H9629010   8.350   0.724   6.137 -0.0003  2.1399  1.7397
  238MOL    H9729011   8.328   0.775   5.882 -0.5979 -0.3743 -0.9992
  238MOL    C9829012   8.214   0.605   5.903 -0.2204  0.2762  0.7733
  238MOL    C9929013   8.315   0.496   5.934  0.1792 -0.5858 -0.3163
  238MOL  Cl10029014   8.303   0.464   6.110 -0.2446 -0.2541  0.2403
  238MOL   H10129015   8.213   0.608   5.794 -3.0579 -0.1863  0.7389
  238MOL   H10229016   8.113   0.585   5.939 -1.8311  2.1154 -2.4864
  238MOL   H10329017   8.284   0.401   5.889 -1.5736 -0.2369  0.1033
  238MOL   C10429018   8.463   0.545   5.903 -0.0974  0.3330 -0.3720
  238MOL   C10529019   0.048   0.444   5.946 -0.4908  0.1572 -0.4690
  238MOL  Cl10629020   0.201   0.532   5.977 -0.1543  0.4013  0.1443
  238MOL   H10729021   8.487   0.635   5.961 -1.0246 -0.1471  0.7651
  238MOL   H10829022   8.478   0.563   5.796 -0.4815 -1.5283 -0.7603
  238MOL   H10929023   0.027   0.404   6.046  0.4550 -0.7942 -0.6393
  238MOL   C11029024   0.071   0.339   5.835  0.0735  0.2001 -0.0287
  238MOL   C11129025   0.178   0.235   5.871  0.2557 -0.5749 -0.4117
  238MOL  Cl11229026   0.202   0.133   5.726  0.3008 -0.0145 -0.2152
  238MOL   H11329027   0.110   0.382   5.743  0.0069 -0.1623 -0.2267
  238MOL   H11429028   8.500   0.294   5.811  0.4564 -1.1848  0.9476
  238MOL   H11529029   0.275   0.280   5.889  0.6832 -0.8702 -1.8913
  238MOL   C11629030   0.140   0.143   5.993 -0.2601 -0.3451 -0.3721
  238MOL   C11729031   0.027   0.042   5.982  0.2735  0.3013 -0.6690
  238MOL  Cl11829032   8.520   8.517   6.152 -0.0666  0.0333 -0.6318
  238MOL   H11929033   0.104   0.209   6.072 -1.4715 -0.6048 -0.6915
  238MOL   H12029034   0.223   0.083   6.029 -0.9146 -0.6425  0.6660
  238MOL   H12129035   8.463   0.096   5.950 -0.2289 -2.0586 -3.5863
  238MOL   H12229036   0.033   8.477   5.921 -0.5296 -1.7199  2.1662
  239MOL     C129037   5.642   6.630   4.002  0.0997 -0.6051  0.6711
  239MOL     C229038   5.650   6.494   3.934 -0.2892 -0.7080 -0.2099
  239MOL    Cl329039   5.822   6.472   3.885  0.3095  0.1242 -0.1500
  239MOL     H429040   5.661   6.714   3.936 -1.5314 -0.7750 -0.0409
  239MOL     H529041   5.543   6.651   4.043 -0.0466 -1.0603  0.5578
  239MOL     H629042   5.629   6.418   4.010 -0.6184  1.0950  1.5535
  239MOL     H729043   5.711   6.631   4.087  1.4636 -0.7097 -0.4083
  239MOL     C829044   5.567   6.482   3.805 -0.6988  0.2851 -0.1855
  239MOL     C929045   5.580   6.347   3.731  0.7519  0.8391 -0.6575
  239MOL   Cl1029046   5.448   6.357   3.608  0.2225  0.1932  0.1921
  239MOL    H1129047   5.600   6.554   3.730  0.0896 -0.6023 -0.7020
  239MOL    H1229048   5.467   6.499   3.845 -1.6238  1.4239 -2.8720
  239MOL    H1329049   5.675   6.354   3.677  0.7584 -0.5139 -0.8356
  239MOL    C1429050   5.565   6.221   3.826 -0.9308  0.4927 -0.9197
  239MOL    C1529051   5.526   6.089   3.760  0.5016 -0.4460  0.1009
  239MOL   Cl1629052   5.461   5.990   3.892  0.0818 -0.0015  0.0544
  239MOL    H1729053   5.490   6.253   3.898 -2.4894 -0.8944 -1.9059
  239MOL    H1829054   5.664   6.202   3.866 -0.9089  1.2927 -0.5784
  239MOL    H1929055   5.442   6.111   3.693  0.5221  1.5240  0.6889
  239MOL    C2029056   5.646   6.026   3.686  0.0838  0.5914  0.0755
  239MOL    C2129057   5.651   6.060   3.537 -0.0396 -0.0598  0.8949
  239MOL   Cl2229058   5.501   5.986   3.467 -0.2845 -0.3117  0.2537
  239MOL    H2329059   5.630   5.920   3.707 -2.8274  0.7504 -1.0706
  239MOL    H2429060   5.741   6.053   3.732 -2.2248  2.8406  3.7551
  239MOL    H2529061   5.650   6.168   3.530 -0.1310 -0.1441 -0.5984
  239MOL    C2629062   5.774   5.999   3.461 -1.2534 -0.2032 -0.0610
  239MOL    C2729063   5.905   6.059   3.493 -0.1664 -0.1025  0.0295
  239MOL   Cl2829064   5.898   6.233   3.469  0.1803  0.1367 -0.0926
  239MOL    H2929065   5.758   6.022   3.356 -0.7511 -3.5468 -0.8901
  239MOL    H3029066   5.775   5.891   3.472  0.7924 -0.1080  0.9253
  239MOL    H3129067   5.925   6.036   3.598  0.7617 -2.2048 -0.5698
  239MOL    C3229068   6.023   6.011   3.408 -0.3259 -0.7260 -0.1425
  239MOL    C3329069   6.169   6.055   3.452 -0.8347 -0.4046  0.2542
  239MOL   Cl3429070   6.294   6.024   3.335  0.2190  0.0719  0.2932
  239MOL    H3529071   5.999   6.050   3.309  1.5951  0.1066 -0.3055
  239MOL    H3629072   6.020   5.904   3.392 -0.3483 -0.7701  0.1491
  239MOL    H3729073   6.163   6.163   3.465  0.8673 -0.3079  0.3968
  239MOL    C3829074   6.225   5.994   3.585  0.2287 -0.1431 -0.5210
  239MOL    C3929075   6.269   6.104   3.696 -0.0612  0.4594 -0.1597
  239MOL   Cl4029076   6.127   6.195   3.746 -0.1482  0.0551  0.6718
  239MOL    H4129077   6.302   5.918   3.569 -0.6011 -1.2975  0.9581
  239MOL    H4229078   6.138   5.938   3.618 -0.6405  0.6081 -1.4815
  239MOL    H4329079   6.296   6.051   3.787 -0.3292  0.2176 -0.2195
  239MOL    C4429080   6.380   6.195   3.650 -0.4090  0.2729 -0.1577
  239MOL    C4529081   6.524   6.131   3.639 -0.1140  0.4331 -0.4021
  239MOL   Cl4629082   6.560   6.052   3.793 -0.0744  0.3665 -0.3013
  239MOL    H4729083   6.385   6.279   3.720  0.0477 -0.1474  0.3226
  239MOL    H4829084   6.354   6.239   3.554 -1.0299  1.8781  0.7134
  239MOL    H4929085   6.526   6.049   3.566 -1.8908 -0.1550  0.1748
  239MOL    C5029086   6.625   6.239   3.601  0.4825  0.3453  0.0741
  239MOL    C5129087   6.662   6.246   3.453  0.1610  0.4529 -0.1562
  239MOL   Cl5229088   6.776   6.110   3.416 -0.2628 -0.5143 -0.3121
  239MOL    H5329089   6.723   6.226   3.647  0.7083 -0.7801 -0.7012
  239MOL    H5429090   6.582   6.338   3.621 -1.3122 -0.6769  1.4004
  239MOL    H5529091   6.574   6.223   3.392  0.5016 -1.6155  0.0836
  239MOL    C5629092   6.743   6.370   3.407 -0.0389  0.5258  0.2213
  239MOL    C5729093   6.791   6.370   3.262  0.0120  0.7237 -0.0330
  239MOL   Cl5829094   6.851   6.532   3.226  0.2991  0.1221 -0.2510
  239MOL    H5929095   6.834   6.364   3.468 -0.4940 -0.2817  0.8386
  239MOL    H6029096   6.708   6.469   3.436 -1.7979  0.1249 -0.4952
  239MOL    H6129097   6.878   6.305   3.253  1.1770  2.0028  1.8024
  239MOL    C6229098   6.687   6.336   3.164 -0.4984  0.4081  0.4025
  239MOL    C6329099   6.736   6.347   3.018 -0.8154 -0.2773  0.6656
  239MOL   Cl6429100   6.619   6.284   2.904 -0.5428 -0.0947 -0.1174
  239MOL    H6529101   6.605   6.402   3.193 -0.2215  1.0716 -0.2913
  239MOL    H6629102   6.647   6.235   3.179 -0.5641  0.1384 -1.5287
  239MOL    H6729103   6.759   6.450   2.988  1.0974  0.1903  3.5502
  239MOL    C6829104   6.879   6.292   2.987  0.4458  0.3547 -0.1318
  239MOL    C6929105   6.924   6.313   2.841  0.4438  0.3993 -0.6402
  239MOL   Cl7029106   7.086   6.233   2.829  0.3218  0.0418 -0.2401
  239MOL    H7129107   6.881   6.184   3.005 -0.0093  0.1691 -1.1243
  239MOL    H7229108   6.954   6.334   3.054  0.5355  0.9852 -0.6219
  239MOL    H7329109   6.857   6.263   2.772 -1.3775  0.8812  0.7503
  239MOL    C7429110   6.937   6.461   2.791  0.1637 -0.3755  0.6952
  239MOL    C7529111   6.987   6.495   2.650 -0.2560 -0.4774 -0.1455
  239MOL   Cl7629112   6.957   6.668   2.626  0.1850  0.1736  0.4452
  239MOL    H7729113   6.993   6.514   2.868 -0.8372  2.6667 -0.5990
  239MOL    H7829114   6.839   6.508   2.794  0.8857  1.0522  2.3329
  239MOL    H7929115   7.092   6.467   2.642 -0.3524 -0.7446 -0.4832
  239MOL    C8029116   6.917   6.415   2.542  0.1552  0.2777  0.4750
  239MOL    C8129117   6.953   6.440   2.398 -0.0710 -0.3485  0.4566
  239MOL   Cl8229118   6.848   6.332   2.294  0.1525  0.0463 -0.0998
  239MOL    H8329119   6.810   6.435   2.539  0.0798 -0.3394 -1.1927
  239MOL    H8429120   6.933   6.311   2.570  2.2468  0.3749 -0.2925
  239MOL    H8529121   6.924   6.543   2.375 -2.1219 -1.0020  0.0315
  239MOL    C8629122   7.101   6.414   2.368 -0.0703  0.0376  0.2502
  239MOL    C8729123   7.149   6.404   2.224  0.5032  0.0647  0.3692
  239MOL   Cl8829124   7.308   6.312   2.212 -0.2645  0.0128 -0.0649
  239MOL    H8929125   7.121   6.322   2.423 -0.5298 -0.4631 -0.4180
  239MOL    H9029126   7.164   6.483   2.425  0.7199  1.0406 -1.7799
  239MOL    H9129127   7.077   6.343   2.169  1.2065 -1.8870  1.5633
  239MOL    C9229128   7.176   6.541   2.159 -0.5365 -0.0750 -0.1940
  239MOL    C9329129   7.057   6.588   2.074 -0.1056 -0.1721  0.5040
  239MOL   Cl9429130   7.054   6.486   1.927  0.2096  0.0825  0.0743
  239MOL    H9529131   7.265   6.558   2.097 -0.3356  0.5743  0.2579
  239MOL    H9629132   7.200   6.613   2.238 -1.4422 -1.0302  0.9687
  239MOL    H9729133   6.959   6.582   2.122 -0.0523  0.8915  0.7717
  239MOL    C9829134   7.073   6.727   2.020  0.2507 -0.5681  0.5497
  239MOL    C9929135   7.065   6.828   2.128 -0.4116 -0.2695 -0.6530
  239MOL  Cl10029136   6.907   6.819   2.224 -0.2055  0.0681 -0.0974
  239MOL   H10129137   6.987   6.742   1.955 -0.4190 -0.2635  1.4993
  239MOL   H10229138   7.164   6.742   1.961 -0.8589  3.4798 -0.2855
  239MOL   H10329139   7.145   6.810   2.200 -0.0430  0.4287 -0.8809
  239MOL   C10429140   7.065   6.967   2.056 -0.3497  0.1405 -0.2942
  239MOL   C10529141   7.193   6.993   1.974 -0.7273 -0.1298  0.7664
  239MOL  Cl10629142   7.328   6.981   2.096  0.1551 -0.0209  0.0473
  239MOL   H10729143   7.075   7.049   2.127  0.5825 -0.6525  0.5013
  239MOL   H10829144   6.977   6.981   1.993  0.7028  2.1318 -1.3858
  239MOL   H10929145   7.219   6.924   1.894  0.2703  0.8365  0.2395
  239MOL   C11029146   7.193   7.131   1.906 -0.1443 -0.1236  0.8953
  239MOL   C11129147   7.076   7.169   1.823 -0.2557 -0.8558 -0.5768
  239MOL  Cl11229148   7.061   7.073   1.670 -0.2405 -0.3306 -0.2002
  239MOL   H11329149   7.283   7.134   1.845 -1.3668  1.1152 -0.9046
  239MOL   H11429150   7.206   7.205   1.986  1.4996 -0.8149  1.2888
  239MOL   H11529151   6.981   7.137   1.866 -0.5094  0.0555 -0.4602
  239MOL   C11629152   7.062   7.327   1.802  0.1744  0.0381 -0.0092
  239MOL   C11729153   7.011   7.397   1.931  0.3782  0.4443 -0.4142
  239MOL  Cl11829154   6.846   7.361   1.988  0.0437  0.5108 -0.3125
  239MOL   H11929155   6.992   7.345   1.721 -0.3945  0.4403  0.5589
  239MOL   H12029156   7.158   7.367   1.769  0.3561  2.3951  3.0993
  239MOL   H12129157   7.079   7.388   2.016 -1.6133 -0.5952  1.1335
  239MOL   H12229158   7.011   7.503   1.906  0.8530 -0.1841 -3.1796
  240MOL     C129159   0.083   7.373   4.296  0.5579  0.2434 -0.1305
  240MOL     C229160   0.177   7.400   4.414  0.0669 -0.1295  0.1110
  240MOL    Cl329161   0.340   7.420   4.362 -0.1859  0.4179 -0.1849
  240MOL     H429162   0.063   7.453   4.225  0.1791 -0.5557 -0.9364
  240MOL     H529163   0.110   7.280   4.245 -0.3827 -0.0453 -0.1097
  240MOL     H629164   0.144   7.496   4.455  0.2182 -0.0522  0.0536
  240MOL     H729165   8.509   7.353   4.336  0.6893 -1.3654 -0.5625
  240MOL     C829166   0.179   7.293   4.524 -0.0048  0.0813 -0.1743
  240MOL     C929167   0.225   7.333   4.668  0.5203  0.3246 -0.0745
  240MOL   Cl1029168   0.084   7.417   4.739  0.2943  0.4992  0.0943
  240MOL    H1129169   0.221   7.201   4.483 -0.7203 -0.9198  1.2614
  240MOL    H1229170   0.077   7.258   4.542 -1.1515  3.0746 -0.5988
  240MOL    H1329171   0.234   7.244   4.729 -0.6384  0.2391 -0.0193
  240MOL    C1429172   0.360   7.416   4.675  0.7475  0.0089 -0.7221
  240MOL    C1529173   0.428   7.456   4.810 -0.3727 -0.1791 -0.1228
  240MOL   Cl1629174   0.341   7.590   4.894 -0.2417  0.1463  0.1427
  240MOL    H1729175   0.354   7.515   4.630  4.9743  0.4954 -0.4563
  240MOL    H1829176   0.428   7.364   4.608  1.2893 -1.4316  0.9074
  240MOL    H1929177   0.420   7.368   4.873 -1.1373 -0.3542 -0.4608
  240MOL    C2029178   0.571   7.492   4.794 -0.0512 -0.6047 -0.0573
  240MOL    C2129179   0.678   7.383   4.751  0.1152  0.4605 -0.8457
  240MOL   Cl2229180   0.652   7.223   4.824  0.1079 -0.4182  0.0149
  240MOL    H2329181   0.595   7.528   4.894  0.0044  0.4816 -0.4564
  240MOL    H2429182   0.570   7.572   4.720  0.7085 -2.4462 -2.1137
  240MOL    H2529183   0.659   7.365   4.646 -1.2229  0.1159 -0.5568
  240MOL    C2629184   0.825   7.438   4.768 -0.3262 -0.6467 -0.4106
  240MOL    C2729185   0.932   7.326   4.736  0.1462 -0.3347 -0.3725
  240MOL   Cl2829186   1.088   7.414   4.765  0.0824 -0.0734 -0.4092
  240MOL    H2929187   0.831   7.471   4.872 -0.5196  0.3081 -0.7009
  240MOL    H3029188   0.848   7.519   4.700 -0.8152 -0.8402 -0.8097
  240MOL    H3129189   0.920   7.251   4.814  0.5526 -0.8073 -0.7617
  240MOL    C3229190   0.936   7.274   4.591  0.1262  0.2991 -0.0853
  240MOL    C3329191   1.051   7.183   4.562  0.6115  0.7041  0.2893
  240MOL   Cl3429192   1.023   7.123   4.392  0.0642  0.1868 -0.1182
  240MOL    H3529193   0.936   7.354   4.517  3.1069  0.8418  0.4385
  240MOL    H3629194   0.847   7.213   4.574  1.1054 -0.8461 -1.1426
  240MOL    H3729195   1.140   7.243   4.541  1.3843 -0.6896 -0.4543
  240MOL    C3829196   1.056   7.060   4.656 -0.2718 -0.1650  0.4188
  240MOL    C3929197   1.189   6.983   4.641 -0.7234  0.2441  0.5032
  240MOL   Cl4029198   1.164   6.823   4.714 -0.3154  0.1364 -0.6121
  240MOL    H4129199   0.970   7.000   4.629  1.4980 -1.4292 -2.5901
  240MOL    H4229200   1.062   7.094   4.760  0.3534  1.6422 -0.1835
  240MOL    H4329201   1.200   6.969   4.534  2.4753  0.2050  0.7876
  240MOL    C4429202   1.298   7.060   4.710  0.6100 -0.2726  0.3163
  240MOL    C4529203   1.413   7.078   4.607 -0.3116  0.0575 -0.2523
  240MOL   Cl4629204   1.482   6.914   4.569  0.0582  0.1490 -0.1821
  240MOL    H4729205   1.331   7.014   4.803  0.8498  0.6514  0.6969
  240MOL    H4829206   1.268   7.162   4.735  0.0616 -0.4317  0.3203
  240MOL    H4929207   1.381   7.101   4.505 -0.4445 -0.3857 -0.3099
  240MOL    C5029208   1.528   7.171   4.647  0.3711 -0.1651  0.0910
  240MOL    C5129209   1.484   7.323   4.688 -0.4948  0.3576 -0.4392
  240MOL   Cl5229210   1.373   7.390   4.574 -0.2866 -0.0996  0.3282
  240MOL    H5329211   1.613   7.171   4.578 -0.9994  1.6636 -1.6766
  240MOL    H5429212   1.568   7.121   4.735  0.5219  0.1190  0.1850
  240MOL    H5529213   1.430   7.317   4.783  2.6009 -4.3241  1.1927
  240MOL    C5629214   1.615   7.411   4.705 -0.0730  0.1184 -0.5592
  240MOL    C5729215   1.588   7.567   4.722  0.2229  0.4111  0.6930
  240MOL   Cl5829216   1.748   7.652   4.738  0.3137 -0.0180  0.2165
  240MOL    H5929217   1.665   7.386   4.611 -0.7880 -1.2935 -0.5772
  240MOL    H6029218   1.684   7.374   4.781 -1.9690 -0.9572  0.6596
  240MOL    H6129219   1.536   7.597   4.630  0.1117  2.8377  1.5103
  240MOL    C6229220   1.499   7.593   4.842  0.3212 -0.1404 -0.9013
  240MOL    C6329221   1.451   7.736   4.857 -0.5238 -0.0291 -0.5017
  240MOL   Cl6429222   1.418   7.767   5.028 -0.5619 -0.2373  0.2141
  240MOL    H6529223   1.559   7.569   4.930 -1.5492 -1.6025  0.0131
  240MOL    H6629224   1.413   7.526   4.840 -0.9984  1.4902 -0.1016
  240MOL    H6729225   1.532   7.800   4.823 -0.7746  0.2599 -0.5483
  240MOL    C6829226   1.323   7.773   4.786  0.4866 -0.6701  0.6067
  240MOL    C6929227   1.323   7.771   4.630 -0.1761 -0.1242 -0.6330
  240MOL   Cl7029228   1.466   7.837   4.561  0.0914 -0.3924  0.3812
  240MOL    H7129229   1.296   7.874   4.817 -0.3948 -0.0432 -2.0549
  240MOL    H7229230   1.246   7.703   4.819 -0.3899 -0.1303 -0.2474
  240MOL    H7329231   1.332   7.666   4.600 -1.3202 -0.1820 -0.7944
  240MOL    C7429232   1.199   7.834   4.565  0.3841 -0.2398  0.3748
  240MOL    C7529233   1.067   7.746   4.562  0.0494 -0.1557  0.1862
  240MOL   Cl7629234   1.077   7.613   4.444  0.1276  0.3289  0.5620
  240MOL    H7729235   1.229   7.875   4.469  0.2626 -1.8500 -0.3584
  240MOL    H7829236   1.185   7.927   4.620  0.7168 -0.5510  0.9882
  240MOL    H7929237   1.048   7.697   4.657 -0.1140 -0.8461 -0.2012
  240MOL    C8029238   0.946   7.828   4.535  1.1606  0.9092  0.4062
  240MOL    C8129239   0.904   7.920   4.654 -0.0395  0.3122 -0.2301
  240MOL   Cl8229240   0.833   7.827   4.781 -0.3340  0.1154  0.1124
  240MOL    H8329241   0.862   7.761   4.522  1.1075  1.4566 -2.2175
  240MOL    H8429242   0.948   7.882   4.440  0.6180  0.2666  0.0311
  240MOL    H8529243   0.993   7.972   4.691 -0.4427 -0.3641  1.7339
  240MOL    C8629244   0.798   8.016   4.590  0.1114  0.6198  0.3810
  240MOL    C8729245   0.728   8.110   4.697  0.2667 -0.2530  0.5053
  240MOL   Cl8829246   0.597   8.183   4.608 -0.0929  0.2215 -0.1584
  240MOL    H8929247   0.716   7.958   4.549  2.6067 -2.8422  0.0848
  240MOL    H9029248   0.840   8.079   4.511 -1.4109  0.8421 -0.2633
  240MOL    H9129249   0.687   8.050   4.779 -0.3841  1.0221  1.1176
  240MOL    C9229250   0.823   8.219   4.759  0.3658  0.3688 -0.6510
  240MOL    C9329251   0.756   8.309   4.863  0.0248  1.0353  0.1266
  240MOL   Cl9429252   0.717   8.464   4.789 -0.0004  0.1163  0.0923
  240MOL    H9529253   0.870   8.276   4.680  1.0606  0.1047 -0.4292
  240MOL    H9629254   0.896   8.156   4.810  1.0891 -0.3060 -2.4766
  240MOL    H9729255   0.668   8.275   4.917  0.0959  0.4872 -0.1007
  240MOL    C9829256   0.853   8.322   4.980  0.1333  0.2295  0.6465
  240MOL    C9929257   0.865   8.198   5.074 -0.2172 -0.1114  0.6716
  240MOL  Cl10029258   0.736   8.220   5.200  0.1203 -0.0341 -0.2240
  240MOL   H10129259   0.818   8.401   5.046  0.7511  0.0168  1.2324
  240MOL   H10229260   0.941   8.379   4.955  0.5354 -0.5039  0.3747
  240MOL   H10329261   0.842   8.104   5.024  2.3154  0.0291 -0.7976
  240MOL   C10429262   1.002   8.198   5.150 -0.0166  0.0135 -0.0306
  240MOL   C10529263   1.119   8.164   5.061 -0.2016  0.2282 -1.1536
  240MOL  Cl10629264   1.100   8.003   4.986 -0.1246 -0.2050  0.0700
  240MOL   H10729265   0.995   8.124   5.230 -0.7886  0.7770  0.6220
  240MOL   H10829266   1.024   8.293   5.198  0.5934 -1.0442  1.8405
  240MOL   H10929267   1.100   8.228   4.975 -0.4102  1.5156 -0.1642
  240MOL   C11029268   1.260   8.178   5.125  0.3074 -0.8731 -0.1902
  240MOL   C11129269   1.371   8.156   5.023  0.2660 -0.3171 -0.4326
  240MOL  Cl11229270   1.518   8.103   5.107 -0.1684  0.0377  0.4271
  240MOL   H11329271   1.261   8.118   5.216  0.4183 -1.0810 -0.3283
  240MOL   H11429272   1.280   8.276   5.169  1.0546 -0.5606 -1.2052
  240MOL   H11529273   1.350   8.074   4.955 -0.5660  1.4203 -2.3213
  240MOL   C11629274   1.409   8.287   4.938 -0.5026 -0.5925 -0.4743
  240MOL   C11729275   1.507   8.272   4.828 -0.2193  0.0790  0.0260
  240MOL  Cl11829276   1.556   8.429   4.776  0.4564  0.3821  0.1635
  240MOL   H11929277   1.456   8.359   5.005  2.6684 -1.6057 -1.5354
  240MOL   H12029278   1.317   8.329   4.896 -0.5738 -0.2952 -0.0325
  240MOL   H12129279   1.600   8.224   4.859  0.7209  1.6506 -0.2833
  240MOL   H12229280   1.475   8.215   4.741 -1.5839  0.1086  0.5042
  241MOL     C129281   1.631   8.269   1.678  0.1361 -0.2399 -0.0798
  241MOL     C229282   1.737   8.366   1.623  0.7859  0.0366 -0.0534
  241MOL    Cl329283   1.858   8.394   1.745 -0.3183  0.0970 -0.4146
  241MOL     H429284   1.550   8.242   1.610 -0.0802 -0.5463  0.2992
  241MOL     H529285   1.668   8.169   1.700 -0.6328 -0.5839 -0.3337
  241MOL     H629286   1.781   8.310   1.541  0.5702 -1.2066  0.6750
  241MOL     H729287   1.592   8.304   1.773  2.0199  1.0155  0.2759
  241MOL     C829288   1.681   8.500   1.572  0.2836 -1.1119  1.0412
  241MOL     C929289   1.759   0.052   1.472  0.4116  0.1938  0.6066
  241MOL   Cl1029290   1.781   8.472   1.323  0.1004  0.5463  0.1421
  241MOL    H1129291   1.663   0.033   1.662  1.2770  0.9657 -0.0802
  241MOL    H1229292   1.584   8.482   1.526  0.7825 -0.7981 -0.1411
  241MOL    H1329293   1.699   0.136   1.438 -1.4522 -1.2457  0.2545
  241MOL    C1429294   1.900   0.106   1.529 -0.2009 -0.2891  0.2970
  241MOL    C1529295   1.887   0.201   1.648 -0.3375 -0.3413 -0.3328
  241MOL   Cl1629296   1.776   0.331   1.600  0.1783 -0.0661 -0.2013
  241MOL    H1729297   1.955   0.159   1.451 -0.4837  0.7314  0.7787
  241MOL    H1829298   1.952   0.015   1.558 -0.9075 -0.4125  1.2252
  241MOL    H1929299   1.853   0.156   1.742  0.0221 -1.1302 -0.5863
  241MOL    C2029300   2.023   0.277   1.679  0.0027 -0.4577  0.8276
  241MOL    C2129301   2.149   0.191   1.731 -0.3508 -0.2635 -0.2359
  241MOL   Cl2229302   2.106   0.148   1.904  0.0011 -0.1312  0.5206
  241MOL    H2329303   2.011   0.370   1.734 -1.9807  0.6320 -1.3557
  241MOL    H2429304   2.046   0.315   1.579  0.0674  0.5533  1.2186
  241MOL    H2529305   2.168   0.097   1.679 -1.8083 -0.5625 -0.2641
  241MOL    C2629306   2.277   0.272   1.733  0.0608  0.3522  0.4304
  241MOL    C2729307   2.404   0.191   1.697 -0.7254  0.8256 -0.3449
  241MOL   Cl2829308   2.441   0.058   1.813 -0.2340  0.2236  0.0499
  241MOL    H2929309   2.297   0.318   1.829 -1.8524 -0.0675  1.0655
  241MOL    H3029310   2.264   0.345   1.652 -2.5166 -1.1242 -0.5523
  241MOL    H3129311   2.390   0.150   1.597  0.1487  0.1629 -0.2010
  241MOL    C3229312   2.533   0.285   1.702 -0.4425  0.2277  0.1362
  241MOL    C3329313   2.519   0.417   1.612 -0.0305 -0.4388  0.1753
  241MOL   Cl3429314   2.490   0.361   1.448 -0.2153 -0.0001 -0.0000
  241MOL    H3529315   2.626   0.238   1.668  0.2079  1.0529  0.7305
  241MOL    H3629316   2.550   0.321   1.804  1.8948 -2.0045  0.5917
  241MOL    H3729317   2.438   0.483   1.639 -0.1660  0.9952 -3.4743
  241MOL    C3829318   2.648   0.496   1.604  0.2925  0.5498  0.0382
  241MOL    C3929319   2.637   0.626   1.526 -0.5979 -0.2432 -0.3558
  241MOL   Cl4029320   2.798   0.708   1.514 -0.0874 -0.2040  0.1835
  241MOL    H4129321   2.738   0.455   1.558 -0.2667  0.8777 -1.3815
  241MOL    H4229322   2.682   0.518   1.705  1.9905  1.0393 -0.6270
  241MOL    H4329323   2.610   0.600   1.424  0.3175 -1.6479 -0.2541
  241MOL    C4429324   2.524   0.722   1.571  0.0149  0.3842 -0.2957
  241MOL    C4529325   2.524   0.792   1.715  0.1506 -0.0882 -0.6232
  241MOL   Cl4629326   2.503   0.670   1.837  0.1822  0.1258 -0.1148
  241MOL    H4729327   2.425   0.690   1.537 -0.2764 -0.9778  1.7260
  241MOL    H4829328   2.534   0.806   1.502  0.2244 -0.3030 -1.1075
  241MOL    H4929329   2.626   0.827   1.730  0.0222  0.5013 -1.1261
  241MOL    C5029330   2.425   0.912   1.727  0.1305 -0.6515 -0.1067
  241MOL    C5129331   2.428   1.031   1.627 -0.1303  0.0426  0.8977
  241MOL   Cl5229332   2.592   1.113   1.637  0.9132  0.3468 -0.4744
  241MOL    H5329333   2.429   0.939   1.832  0.4239  0.5764 -0.4193
  241MOL    H5429334   2.324   0.875   1.709 -1.0101  1.7065  1.2185
  241MOL    H5529335   2.408   1.002   1.524 -0.3379  0.6455  0.7678
  241MOL    C5629336   2.321   1.128   1.674 -0.5031  0.0342  0.1698
  241MOL    C5729337   2.306   1.263   1.601 -0.1358 -0.0846  0.1882
  241MOL   Cl5829338   2.161   1.321   1.684 -0.0802  0.0508 -0.3698
  241MOL    H5929339   2.336   1.137   1.781 -0.8580 -1.3407  0.3399
  241MOL    H6029340   2.229   1.074   1.650 -0.0352 -1.6788  2.1407
  241MOL    H6129341   2.394   1.324   1.625 -0.2900  0.4692 -0.6594
  241MOL    C6229342   2.289   1.258   1.450  0.0560 -0.3052  0.6701
  241MOL    C6329343   2.348   1.373   1.370  0.4316 -0.0374  0.3023
  241MOL   Cl6429344   2.229   1.508   1.399  0.0871  0.0165 -0.0130
  241MOL    H6529345   2.188   1.242   1.414  0.7462  1.8352 -2.4360
  241MOL    H6629346   2.340   1.168   1.416  0.3968  0.4410 -0.8230
  241MOL    H6729347   2.445   1.408   1.405  0.3942 -2.1535  2.6469
  241MOL    C6829348   2.350   1.357   1.216  0.1271 -0.9229  0.1108
  241MOL    C6929349   2.426   1.237   1.165 -0.1304  0.0476 -0.2249
  241MOL   Cl7029350   2.599   1.221   1.221  0.0526 -0.1946 -0.0992
  241MOL    H7129351   2.394   1.451   1.183  1.4331 -2.2135 -1.9772
  241MOL    H7229352   2.245   1.352   1.190  0.4779 -1.1071 -1.3091
  241MOL    H7329353   2.368   1.152   1.200 -1.7471  1.1827 -0.0807
  241MOL    C7429354   2.438   1.247   1.005 -0.4514  0.1768  0.5096
  241MOL    C7529355   2.314   1.269   0.924  0.2023  0.1587 -0.2869
  241MOL   Cl7629356   2.200   1.133   0.941 -0.1432 -0.3531 -0.1317
  241MOL    H7729357   2.486   1.155   0.973  2.4388  1.3428  1.3260
  241MOL    H7829358   2.513   1.323   0.985  1.0462 -1.2796  0.4586
  241MOL    H7929359   2.253   1.352   0.958 -0.3673 -0.2497 -0.3036
  241MOL    C8029360   2.348   1.305   0.773 -0.0634 -0.5118 -0.2277
  241MOL    C8129361   2.227   1.341   0.674 -0.1394 -0.2637 -0.6134
  241MOL   Cl8229362   2.291   1.344   0.508  0.4568 -0.0708 -0.0505
  241MOL    H8329363   2.407   1.223   0.731 -2.5674 -1.8346 -1.2690
  241MOL    H8429364   2.418   1.388   0.772  0.2801 -0.7855  0.7733
  241MOL    H8529365   2.158   1.257   0.677  0.5098 -0.7998 -0.6624
  241MOL    C8629366   2.155   1.468   0.707  0.0380  0.2881  0.3362
  241MOL    C8729367   2.024   1.470   0.794 -0.0973 -0.3670 -0.2497
  241MOL   Cl8829368   1.910   1.359   0.726  0.0933  0.1624  0.2599
  241MOL    H8929369   2.113   1.516   0.618  0.5352 -0.5472 -0.3563
  241MOL    H9029370   2.226   1.531   0.761  1.0886 -1.9841  1.6578
  241MOL    H9129371   2.056   1.438   0.894  1.1908  0.3050 -0.4324
  241MOL    C9229372   1.964   1.609   0.824 -0.5327  0.2652  0.0390
  241MOL    C9329373   2.072   1.711   0.863  0.3359  0.2499  0.0969
  241MOL   Cl9429374   2.142   1.664   1.019 -0.1813  0.2451 -0.2601
  241MOL    H9529375   1.894   1.602   0.907  0.5268 -0.1963  0.9145
  241MOL    H9629376   1.904   1.634   0.737  0.5551 -1.4311 -1.2445
  241MOL    H9729377   2.161   1.712   0.801  0.1302 -0.2302 -0.2174
  241MOL    C9829378   2.019   1.857   0.867 -0.5447  0.4554  0.1115
  241MOL    C9929379   1.960   1.905   0.732 -0.2580  0.4618  0.1005
  241MOL  Cl10029380   2.075   1.871   0.598 -0.0409  0.2443 -0.1228
  241MOL   H10129381   2.097   1.927   0.895 -0.2731  0.1250  0.1791
  241MOL   H10229382   1.950   1.857   0.952 -0.5573 -2.1470  0.1547
  241MOL   H10329383   1.868   1.848   0.715 -0.7865  1.3835 -0.1713
  241MOL   C10429384   1.923   2.059   0.733  0.4366 -0.4068  0.1570
  241MOL   C10529385   1.797   2.088   0.822 -0.6441  0.5538 -0.5387
  241MOL  Cl10629386   1.656   2.007   0.749  0.4296 -0.0466 -0.5634
  241MOL   H10729387   1.887   2.100   0.639 -0.6878  0.3184  0.8909
  241MOL   H10829388   2.008   2.114   0.776 -0.7408  1.3684  0.2782
  241MOL   H10929389   1.797   2.044   0.921 -1.6859 -0.2537 -0.8930
  241MOL   C11029390   1.761   2.236   0.838 -0.0343  0.6380  0.3046
  241MOL   C11129391   1.868   2.311   0.920  0.1314  0.1190 -0.5109
  241MOL  Cl11229392   1.866   2.243   1.086 -0.3243  0.0876 -0.0087
  241MOL   H11329393   1.665   2.241   0.889  0.3926 -2.2870  1.5098
  241MOL   H11429394   1.751   2.285   0.742  1.2189 -1.2788 -0.8297
  241MOL   H11529395   1.967   2.293   0.878  1.4085  1.1028  1.9396
  241MOL   C11629396   1.835   2.463   0.941  0.0227  0.4266 -0.0695
  241MOL   C11729397   1.950   2.540   0.996 -0.3828 -0.2051  0.0377
  241MOL  Cl11829398   2.074   2.544   0.864  0.2224  0.1800 -0.1606
  241MOL   H11929399   1.754   2.486   1.011  0.2378 -0.5143  0.4960
  241MOL   H12029400   1.814   2.515   0.847 -0.7292  1.6651  0.7652
  241MOL   H12129401   1.928   2.645   1.016 -0.3254 -0.3884  1.0455
  241MOL   H12229402   1.990   2.486   1.081 -1.3507 -0.9967 -0.0101
  242MOL     C129403   8.239   5.936   7.412  0.7538 -0.2197  1.0267
  242MOL     C229404   8.209   5.797   7.470 -0.3281  0.1912 -0.9106
  242MOL    Cl329405   8.362   5.745   7.549 -0.8203  0.0357  0.1462
  242MOL     H429406   8.156   5.982   7.359  1.7613  0.6153  0.1574
  242MOL     H529407   8.276   6.004   7.488 -2.1798  0.7007  1.6958
  242MOL     H629408   8.131   5.805   7.547 -0.3570  2.5591 -1.1334
  242MOL     H729409   8.319   5.920   7.339 -0.2211 -0.3690 -0.0176
  242MOL     C829410   8.172   5.686   7.365  0.5106 -0.0065  0.5137
  242MOL     C929411   8.055   5.728   7.274  0.0397  0.4369 -0.2713
  242MOL   Cl1029412   7.902   5.773   7.363  0.0813  0.0072 -0.3884
  242MOL    H1129413   8.145   5.602   7.428 -1.9864  0.5750  0.2597
  242MOL    H1229414   8.255   5.656   7.301 -1.2153 -0.0482 -1.7514
  242MOL    H1329415   8.085   5.813   7.213  0.9834  0.0416 -0.3685
  242MOL    C1429416   8.013   5.624   7.173 -0.4857  0.2315  0.7000
  242MOL    C1529417   8.119   5.612   7.055  0.3277 -0.7700 -0.2753
  242MOL   Cl1629418   8.090   5.746   6.941 -0.1363  0.4904 -0.2378
  242MOL    H1729419   7.914   5.640   7.131  0.1466 -0.6438 -1.2256
  242MOL    H1829420   7.996   5.527   7.219 -0.9707 -0.2591 -0.4760
  242MOL    H1929421   8.223   5.623   7.084 -0.6582  0.9710  2.9221
  242MOL    C2029422   8.101   5.484   6.981 -0.7323  0.5696  0.6134
  242MOL    C2129423   8.152   5.359   7.061 -0.5752  0.6370  0.5165
  242MOL   Cl2229424   8.327   5.368   7.122  0.0097  0.7167 -0.0195
  242MOL    H2329425   8.164   5.494   6.892  2.1197 -2.5516  2.1651
  242MOL    H2429426   7.995   5.476   6.958 -0.4085  1.2003 -1.1306
  242MOL    H2529427   8.093   5.344   7.151 -2.8791 -0.4963 -1.1363
  242MOL    C2629428   8.129   5.234   6.976  0.2479  0.1708  0.1055
  242MOL    C2729429   8.084   5.099   7.036 -0.5654  0.3033  0.5967
  242MOL   Cl2829430   8.188   5.063   7.180  0.0295  0.2192 -0.1959
  242MOL    H2929431   8.213   5.217   6.908 -0.0852  0.6507 -0.4366
  242MOL    H3029432   8.043   5.260   6.914  0.5473  1.2232  0.1173
  242MOL    H3129433   7.983   5.100   7.076 -1.4036  1.2664 -1.4590
  242MOL    C3229434   8.086   4.987   6.929  0.1430 -0.3952 -1.1397
  242MOL    C3329435   7.991   4.985   6.808 -0.3502 -0.0675 -0.0048
  242MOL   Cl3429436   8.039   5.098   6.686 -0.1600  0.2116  0.5758
  242MOL    H3529437   8.072   4.896   6.986  1.0382 -0.4800 -1.0437
  242MOL    H3629438   8.192   4.982   6.905  0.5398  0.4809  0.3814
  242MOL    H3729439   8.009   4.892   6.755  0.3375  0.7290 -1.2033
  242MOL    C3829440   7.841   5.020   6.838 -0.6407 -0.1880 -0.5887
  242MOL    C3929441   7.745   5.010   6.723 -0.3423 -0.1634  0.7382
  242MOL   Cl4029442   7.587   5.062   6.797 -0.3608 -0.5529  0.1683
  242MOL    H4129443   7.831   5.122   6.876 -0.4474  0.1954 -1.5391
  242MOL    H4229444   7.812   4.962   6.925 -0.1713  0.7452  0.1970
  242MOL    H4329445   7.769   5.086   6.650 -1.5395 -1.2004 -0.7663
  242MOL    C4429446   7.742   4.875   6.647  0.3093 -0.4207 -0.1030
  242MOL    C4529447   7.691   4.760   6.732  0.6024  0.1361 -0.3855
  242MOL   Cl4629448   7.839   4.676   6.792  0.3627  0.5464  0.2557
  242MOL    H4729449   7.835   4.855   6.593  2.1386  3.0313  1.6394
  242MOL    H4829450   7.669   4.885   6.567 -0.6957  0.8211  0.9633
  242MOL    H4929451   7.638   4.796   6.820  3.0563  0.9362  0.8247
  242MOL    C5029452   7.600   4.664   6.652 -0.0027  0.2292  0.1178
  242MOL    C5129453   7.453   4.698   6.645 -0.4864 -0.5037 -0.5373
  242MOL   Cl5229454   7.385   4.716   6.816 -0.3427  0.3040  0.0799
  242MOL    H5329455   7.607   4.569   6.705 -0.5440 -0.3057 -0.7582
  242MOL    H5429456   7.645   4.650   6.554 -0.3251  1.3821 -0.1959
  242MOL    H5529457   7.449   4.792   6.591 -0.8123 -1.3101 -1.9271
  242MOL    C5629458   7.357   4.593   6.584  0.5045  0.1758 -0.0282
  242MOL    C5729459   7.414   4.493   6.473  0.2554  0.1565 -0.7064
  242MOL   Cl5829460   7.479   4.583   6.336  0.0077  0.3869  0.2403
  242MOL    H5929461   7.274   4.653   6.546 -0.1726  0.0379  1.1922
  242MOL    H6029462   7.315   4.530   6.662  0.5095  0.4950  0.2356
  242MOL    H6129463   7.496   4.431   6.510 -1.0376 -0.4934  1.1373
  242MOL    C6229464   7.313   4.399   6.412 -0.2461 -0.2294 -0.0963
  242MOL    C6329465   7.228   4.309   6.511  0.6397 -0.6250  0.9200
  242MOL   Cl6429466   7.335   4.200   6.603 -0.4471 -0.2657 -0.0224
  242MOL    H6529467   7.369   4.331   6.348  1.2545  0.1643  0.7793
  242MOL    H6629468   7.244   4.452   6.347 -0.6091  1.4523  1.6120
  242MOL    H6729469   7.184   4.376   6.585  1.9666  1.8396 -0.4751
  242MOL    C6829470   7.121   4.228   6.432  0.3869 -0.0391  0.7483
  242MOL    C6929471   7.020   4.128   6.501 -0.0100 -0.5262  0.0857
  242MOL   Cl7029472   6.943   4.047   6.364  0.1352  0.4663 -0.3224
  242MOL    H7129473   7.173   4.175   6.353 -0.5264 -1.3481  1.0306
  242MOL    H7229474   7.068   4.304   6.375  1.3472  0.7241  0.8499
  242MOL    H7329475   7.083   4.055   6.552 -1.2227  0.0424  2.4753
  242MOL    C7429476   6.918   4.191   6.602 -0.5552  0.5113 -0.2018
  242MOL    C7529477   6.965   4.207   6.755  0.0666 -0.3853 -0.7448
  242MOL   Cl7629478   7.001   4.044   6.833 -0.4718  0.1170  0.2737
  242MOL    H7729479   6.831   4.126   6.606 -0.5922  0.5511 -0.3593
  242MOL    H7829480   6.888   4.288   6.561 -0.2641  0.5462 -0.3301
  242MOL    H7929481   7.059   4.260   6.770 -0.4955 -0.0600  2.0070
  242MOL    C8029482   6.878   4.287   6.857 -0.5406  0.1376  0.1682
  242MOL    C8129483   6.840   4.432   6.814 -0.6324 -0.2213  0.2001
  242MOL   Cl8229484   6.979   4.533   6.780  0.5218 -0.3424 -0.0437
  242MOL    H8329485   6.934   4.273   6.949 -0.2649  1.0674  0.1500
  242MOL    H8429486   6.787   4.228   6.870 -0.8308  0.4522 -0.3567
  242MOL    H8529487   6.783   4.426   6.722  2.2442 -2.0383 -1.5409
  242MOL    C8629488   6.747   4.501   6.917  0.6429 -0.3396 -0.0764
  242MOL    C8729489   6.800   4.549   7.055  0.0574  0.6343 -0.2797
  242MOL   Cl8829490   6.840   4.413   7.160  0.6061  0.1665 -0.2107
  242MOL    H8929491   6.664   4.431   6.911  1.4106 -1.0274 -3.7922
  242MOL    H9029492   6.702   4.588   6.870  1.0315 -0.0664  0.0585
  242MOL    H9129493   6.889   4.605   7.025  0.0815  1.1721  0.7727
  242MOL    C9229494   6.692   4.627   7.128  0.3693  0.0837  0.2393
  242MOL    C9329495   6.728   4.710   7.254 -0.3271 -0.5789  0.2759
  242MOL   Cl9429496   6.574   4.760   7.326 -0.1382  0.1634 -0.5178
  242MOL    H9529497   6.597   4.578   7.149  0.9848 -1.2379  0.0182
  242MOL    H9629498   6.649   4.693   7.053 -0.3134 -0.3741  0.2219
  242MOL    H9729499   6.781   4.652   7.330 -0.9135 -2.6021 -0.8188
  242MOL    C9829500   6.804   4.836   7.213  0.3915 -0.6277  0.6280
  242MOL    C9929501   6.856   4.917   7.332  0.0692 -0.8647 -0.1662
  242MOL  Cl10029502   6.931   5.062   7.264  0.1184 -0.1732  0.2044
  242MOL   H10129503   6.741   4.904   7.155  2.1035  0.9051  0.5395
  242MOL   H10229504   6.891   4.813   7.152 -0.6715 -1.4718 -0.5957
  242MOL   H10329505   6.764   4.953   7.379  0.7102  0.4035  0.1564
  242MOL   C10429506   6.954   4.842   7.419 -0.3682  0.0044 -0.7012
  242MOL   C10529507   7.036   4.919   7.522  0.7050  0.2141  0.5383
  242MOL  Cl10629508   7.134   4.816   7.618 -0.7111  0.3687 -0.2218
  242MOL   H10729509   7.017   4.783   7.353  0.0786  0.5703 -0.7862
  242MOL   H10829510   6.893   4.769   7.472  0.1242 -0.4466 -0.7392
  242MOL   H10929511   7.098   4.979   7.456  0.2584  0.2563  0.1545
  242MOL   C11029512   6.960   5.015   7.612  0.1712 -0.0919  0.3339
  242MOL   C11129513   6.861   4.952   7.710 -0.8388  0.1830  0.6382
  242MOL  Cl11229514   6.729   4.871   7.638 -0.2953  0.2006  0.1914
  242MOL   H11329515   6.897   5.082   7.553  0.1595  0.1038  0.5666
  242MOL   H11429516   7.023   5.091   7.657  0.4445 -0.1884  0.1185
  242MOL   H11529517   6.914   4.874   7.765 -0.5858  0.1069  0.2840
  242MOL   C11629518   6.806   5.051   7.812  0.4341 -0.4935 -0.7084
  242MOL   C11729519   6.716   4.989   7.920  0.5532  0.4971  0.7249
  242MOL  Cl11829520   6.811   4.893   8.029  0.0053 -0.2522 -0.0746
  242MOL   H11929521   6.742   5.120   7.758  0.7254  0.7552  0.5022
  242MOL   H12029522   6.894   5.097   7.857 -2.0836  3.5187  0.3730
  242MOL   H12129523   6.669   5.063   7.983 -0.7593  0.5116 -0.2637
  242MOL   H12229524   6.635   4.935   7.871  0.1027  1.8410 -0.0262
  243MOL     C129525   2.389   0.907   0.442 -0.1512 -0.0002  0.3224
  243MOL     C229526   2.497   0.931   0.334  0.1738 -0.1090  0.8225
  243MOL    Cl329527   2.514   1.112   0.321  0.0055 -0.2189  0.1320
  243MOL     H429528   2.381   0.801   0.466  1.4422 -0.3096 -0.4031
  243MOL     H529529   2.421   0.964   0.529  0.4266  0.8641 -0.4421
  243MOL     H629530   2.598   0.906   0.367  0.7911  0.5663 -0.5002
  243MOL     H729531   2.293   0.947   0.412 -1.5709 -1.4201  2.7647
  243MOL     C829532   2.475   0.859   0.196  0.2275 -0.2731  0.0218
  243MOL     C929533   2.607   0.784   0.148 -0.1094  0.3783  0.2788
  243MOL   Cl1029534   2.746   0.890   0.113 -0.2386  0.1434 -0.1756
  243MOL    H1129535   2.433   0.931   0.125  0.1468  1.2088  1.5200
  243MOL    H1229536   2.396   0.792   0.230  1.2932 -1.5704 -0.0203
  243MOL    H1329537   2.652   0.726   0.228 -1.2187  1.1271  1.4590
  243MOL    C1429538   2.578   0.699   0.025  0.4124  0.4893  0.7259
  243MOL    C1529539   2.500   0.564   0.062 -0.6092 -0.1604  0.4019
  243MOL   Cl1629540   2.613   0.443   0.121  0.3712  0.3875 -0.2419
  243MOL    H1729541   2.676   0.679   8.508 -0.6251 -1.3511 -0.8506
  243MOL    H1829542   2.525   0.759   8.476  1.3226  1.9388  1.2307
  243MOL    H1929543   2.420   0.586   0.132 -0.5401 -0.9834  0.7427
  243MOL    C2029544   2.438   0.510   8.451 -0.4946 -0.3311 -0.0913
  243MOL    C2129545   2.347   0.389   8.466  0.7123  0.0007  0.7823
  243MOL   Cl2229546   2.223   0.428   0.058  0.0152 -0.2706  0.0095
  243MOL    H2329547   2.512   0.495   8.372  0.7024 -0.9336  1.1430
  243MOL    H2429548   2.375   0.586   8.405 -0.6734 -0.4941 -0.1128
  243MOL    H2529549   2.296   0.392   8.369  0.4239 -1.0913  0.8976
  243MOL    C2629550   2.407   0.248   8.479  0.0661  0.1947 -0.3097
  243MOL    C2729551   2.527   0.218   8.388  0.3016 -0.2629  0.6929
  243MOL   Cl2829552   2.487   0.221   8.209 -0.1391  0.0050 -0.1515
  243MOL    H2929553   2.331   0.181   8.441 -0.6617  1.2436 -0.7256
  243MOL    H3029554   2.428   0.231   0.060 -1.9885  1.1303  0.2853
  243MOL    H3129555   2.602   0.295   8.408  0.1776 -0.1280  0.6335
  243MOL    C3229556   2.585   0.079   8.415  0.0650  0.2737 -0.2299
  243MOL    C3329557   2.742   0.070   8.402  0.1355 -0.1239  0.1640
  243MOL   Cl3429558   2.822   0.128   0.031  0.0040 -0.2256  0.3938
  243MOL    H3529559   2.534   0.002   8.356 -0.3167 -0.9766  1.6705
  243MOL    H3629560   2.550   0.051   8.514  1.2516  1.1526  0.4414
  243MOL    H3729561   2.769   8.491   8.385  0.4388 -0.0580  0.2387
  243MOL    C3829562   2.790   0.146   8.277  0.4280  0.4850  0.5827
  243MOL    C3929563   2.931   0.132   8.248 -0.9211 -0.3761 -0.2844
  243MOL   Cl4029564   3.002   0.270   8.148  0.2442  0.1405 -0.5177
  243MOL    H4129565   2.774   0.252   8.297 -1.9253 -0.0231  1.6505
  243MOL    H4229566   2.738   0.132   8.182 -1.2958  1.5300  1.3277
  243MOL    H4329567   2.990   0.124   8.340 -1.7516 -2.1675  0.1198
  243MOL    C4429568   2.965   0.011   8.167  0.3050 -0.0949 -0.4189
  243MOL    C4529569   3.115   8.515   8.137  0.4221 -0.1217  0.3422
  243MOL   Cl4629570   3.134   8.388   8.005 -0.0366 -0.4602 -0.3320
  243MOL    H4729571   2.915   0.022   8.071 -2.0508  1.9306  0.9627
  243MOL    H4829572   2.932   8.446   8.217  0.1896  0.6541  0.9027
  243MOL    H4929573   3.160   0.085   8.108 -2.4589  1.2573  0.2170
  243MOL    C5029574   3.198   8.468   8.260 -0.4136  1.0900  0.2440
  243MOL    C5129575   3.346   8.477   8.230 -0.3563  0.2264 -0.0482
  243MOL   Cl5229576   3.433   8.330   8.291 -0.1835 -0.0802 -0.0844
  243MOL    H5329577   3.178   8.360   8.263  1.7150  0.6529 -0.3136
  243MOL    H5429578   3.159   8.514   8.351  1.1702 -0.4334  1.7472
  243MOL    H5529579   3.357   8.485   8.122 -1.4423  2.1038 -0.0384
  243MOL    C5629580   3.395   0.080   8.296  0.3255 -1.2101  0.0249
  243MOL    C5729581   3.545   0.102   8.248  0.5547  0.5901  0.3128
  243MOL   Cl5829582   3.637   0.189   8.378 -0.2587 -0.1384 -0.0939
  243MOL    H5929583   3.412   0.071   8.403  0.5075 -1.5470 -0.0270
  243MOL    H6029584   3.330   0.165   8.277  0.7666 -0.8546  0.0938
  243MOL    H6129585   3.602   0.010   8.233 -1.6343 -0.9450  1.1910
  243MOL    C6229586   3.561   0.190   8.119 -0.9245  0.2048  0.0167
  243MOL    C6329587   3.706   0.240   8.076 -0.0063  0.4839  0.1127
  243MOL   Cl6429588   3.698   0.376   7.968 -0.3178 -0.4300  0.0789
  243MOL    H6529589   3.509   0.281   8.150 -2.6963 -0.8880  0.3366
  243MOL    H6629590   3.503   0.147   8.037 -0.0476  0.6997 -0.8621
  243MOL    H6729591   3.754   0.277   8.167 -0.4200  0.6875  0.2503
  243MOL    C6829592   3.787   0.136   8.003  0.1969 -0.3192 -0.1746
  243MOL    C6929593   3.939   0.150   7.994 -0.1781  0.0949  0.5851
  243MOL   Cl7029594   3.989   0.086   7.841 -0.2644 -0.1508 -0.2012
  243MOL    H7129595   3.732   0.107   7.913  2.2322 -1.1530 -1.2003
  243MOL    H7229596   3.769   0.041   8.053 -1.1055  0.3731  0.6796
  243MOL    H7329597   3.967   0.256   7.988  0.2685 -0.0988 -1.1415
  243MOL    C7429598   4.006   0.073   8.107 -0.7552 -0.6535 -0.7907
  243MOL    C7529599   4.164   0.102   8.122 -0.2938  0.1753 -0.3054
  243MOL   Cl7629600   4.216   8.497   8.233  0.1268 -0.3140 -0.0213
  243MOL    H7729601   3.993   8.492   8.090 -1.7340 -0.4935 -1.0670
  243MOL    H7829602   3.959   0.100   8.201  0.5073 -0.9123 -0.0619
  243MOL    H7929603   4.203   0.083   8.022  1.3900  1.9291 -0.0214
  243MOL    C8029604   4.193   0.242   8.176  0.0210  0.4340  0.1528
  243MOL    C8129605   4.329   0.303   8.133 -0.1472  0.4870 -0.5876
  243MOL   Cl8229606   4.305   0.328   7.954  0.0324 -0.2079 -0.2188
  243MOL    H8329607   4.170   0.223   8.281 -2.9692 -1.6954 -0.8220
  243MOL    H8429608   4.115   0.311   8.143 -1.7013 -1.9811 -1.0395
  243MOL    H8529609   4.340   0.402   8.178  1.1692  0.0151  0.1368
  243MOL    C8629610   4.469   0.225   8.142 -0.3147 -0.0216 -0.0977
  243MOL    C8729611   4.531   0.198   8.280  0.9180 -0.6868 -0.2744
  243MOL   Cl8829612   4.585   0.359   8.356  0.4052 -0.2140 -0.2150
  243MOL    H8929613   4.539   0.278   8.078  0.6969 -1.0110  0.1746
  243MOL    H9029614   4.453   0.127   8.097 -0.6781 -0.4606  0.9714
  243MOL    H9129615   4.468   0.144   8.351  0.3001  1.9743  1.2829
  243MOL    C9229616   4.657   0.111   8.254  0.1108  0.4463  0.0802
  243MOL    C9329617   4.737   0.037   8.374  0.0759 -0.2050 -0.0771
  243MOL   Cl9429618   4.625   8.446   8.444 -0.1077 -0.0366  0.1798
  243MOL    H9529619   4.732   0.171   8.202  0.2311  1.4344  1.3796
  243MOL    H9629620   4.639   0.030   8.182  1.9767  0.1926 -0.1340
  243MOL    H9729621   4.819   8.500   8.339  0.6186  0.3762  0.1678
  243MOL    C9829622   4.792   0.132   8.478 -0.6279  0.2673 -0.6240
  243MOL    C9929623   4.922   0.218   8.439  0.5786  0.4869 -0.6761
  243MOL  Cl10029624   5.054   0.112   8.383 -0.0686 -0.1299 -0.1165
  243MOL   H10129625   4.839   0.067   0.026 -2.0701  1.2141  1.1843
  243MOL   H10229626   4.725   0.199   0.006 -1.0158 -1.3814  1.0051
  243MOL   H10329627   4.890   0.265   8.346  1.6688 -0.7268 -1.6870
  243MOL   C10429628   4.974   0.309   0.027  0.8769  0.7419 -0.4719
  243MOL   C10529629   4.886   0.439   0.051 -0.7904 -0.3915 -0.7492
  243MOL  Cl10629630   4.879   0.532   8.419  0.2709  0.1232  0.2585
  243MOL   H10729631   5.072   0.349   0.001  1.1764 -0.9404 -1.9972
  243MOL   H10829632   4.990   0.255   0.120  0.9901 -0.8094 -1.3806
  243MOL   H10929633   4.787   0.406   0.085 -0.3961 -1.0780 -0.2324
  243MOL   C11029634   4.955   0.542   0.155 -0.0578 -0.3319 -0.2522
  243MOL   C11129635   4.889   0.679   0.174  0.3459 -0.2076 -0.4615
  243MOL  Cl11229636   5.001   0.783   0.250  0.3202 -0.3299  0.6170
  243MOL   H11329637   5.056   0.559   0.116  0.2057  0.9213  0.9568
  243MOL   H11429638   4.970   0.491   0.250  0.9764 -0.3396 -0.4069
  243MOL   H11529639   4.868   0.719   0.075 -0.1219  1.5954  0.3441
  243MOL   C11629640   4.758   0.671   0.249 -0.1980 -0.2420 -0.1078
  243MOL   C11729641   4.672   0.797   0.245  0.1777 -0.0793  0.7764
  243MOL  Cl11829642   4.569   0.798   0.384  0.5590 -0.0669 -0.1765
  243MOL   H11929643   4.775   0.663   0.356 -4.6504  2.8996  1.0087
  243MOL   H12029644   4.695   0.585   0.226 -0.7057  0.0589  0.1491
  243MOL   H12129645   4.721   0.894   0.258 -1.0929  1.0066 -2.0746
  243MOL   H12229646   4.605   0.805   0.159  0.7035 -2.3274  0.1206
  244MOL     C129647   3.097   6.609   4.518  0.3015  0.4311  0.0320
  244MOL     C229648   3.065   6.760   4.516 -0.9624  0.2343  0.3174
  244MOL    Cl329649   2.902   6.776   4.451 -0.2135 -0.1844  0.4393
  244MOL     H429650   3.194   6.593   4.564  1.5342  3.8944 -1.2134
  244MOL     H529651   3.015   6.552   4.562 -1.3362  1.8382 -1.1203
  244MOL     H629652   3.049   6.808   4.612  0.2397  1.2935  0.0039
  244MOL     H729653   3.108   6.585   4.412  1.9442  0.2090  0.2412
  244MOL     C829654   3.160   6.849   4.434  0.2774  0.1479 -0.4605
  244MOL     C929655   3.120   6.996   4.417  0.2289 -0.4268  0.0508
  244MOL   Cl1029656   3.251   7.066   4.321  0.5779 -0.3025  0.3274
  244MOL    H1129657   3.170   6.808   4.334  1.6022 -1.3170  0.2536
  244MOL    H1229658   3.261   6.843   4.475 -0.2985 -1.5652  0.7911
  244MOL    H1329659   3.037   7.005   4.346  0.2673 -1.0137 -0.0707
  244MOL    C1429660   3.109   7.081   4.549 -0.0866 -0.0204  0.3525
  244MOL    C1529661   3.116   7.233   4.541  0.7127  0.2157  0.3606
  244MOL   Cl1629662   3.182   7.291   4.696  0.0850  0.2671 -0.0745
  244MOL    H1729663   3.199   7.062   4.607 -0.7506  0.0643  1.4299
  244MOL    H1829664   3.031   7.030   4.606 -0.4660 -0.9698 -0.9765
  244MOL    H1929665   3.196   7.266   4.475  0.6909  0.2692  0.3610
  244MOL    C2029666   2.979   7.303   4.517  0.2241  0.2013  0.1780
  244MOL    C2129667   2.927   7.281   4.378 -0.3889  1.1385  0.3608
  244MOL   Cl2229668   3.041   7.324   4.253  0.2719  0.2681  0.0528
  244MOL    H2329669   2.990   7.409   4.541  0.1959  0.1901  0.2411
  244MOL    H2429670   2.905   7.263   4.585  0.0680  0.1748 -0.0074
  244MOL    H2529671   2.913   7.174   4.360 -1.8073  1.2548  0.7122
  244MOL    C2629672   2.809   7.374   4.354  0.4148  0.1596 -0.1693
  244MOL    C2729673   2.690   7.358   4.448  0.4613  0.2502 -0.2065
  244MOL   Cl2829674   2.631   7.189   4.431 -0.0655  0.1118  0.0424
  244MOL    H2929675   2.763   7.360   4.256  1.9933 -1.0701 -0.7734
  244MOL    H3029676   2.845   7.476   4.347  0.1221  0.2329 -0.6329
  244MOL    H3129677   2.717   7.372   4.553 -0.1102  0.8910 -0.1406
  244MOL    C3229678   2.584   7.461   4.426 -0.0060 -0.1375  0.2353
  244MOL    C3329679   2.636   7.610   4.438  0.3054  0.1325 -0.4686
  244MOL   Cl3429680   2.716   7.642   4.593 -0.3151 -0.2680 -0.3663
  244MOL    H3529681   2.504   7.450   4.500  0.0899  1.9856  0.6906
  244MOL    H3629682   2.538   7.447   4.329 -0.6421  0.6427  0.4169
  244MOL    H3729683   2.701   7.635   4.354  0.4978  1.2945  0.0306
  244MOL    C3829684   2.519   7.725   4.435  0.3304 -0.5981 -0.0032
  244MOL    C3929685   2.564   7.869   4.439  0.3234 -1.2006  0.3759
  244MOL   Cl4029686   2.441   7.980   4.493 -0.2810 -0.5469  0.1742
  244MOL    H4129687   2.463   7.705   4.526  0.8221 -1.2496  0.1597
  244MOL    H4229688   2.468   7.719   4.338 -1.6538 -1.2026  1.0449
  244MOL    H4329689   2.649   7.887   4.504  1.3030  0.9521 -1.4215
  244MOL    C4429690   2.612   7.924   4.307  0.0431 -0.9494 -0.1045
  244MOL    C4529691   2.703   8.049   4.321 -0.1014 -0.6378  0.2491
  244MOL   Cl4629692   2.719   8.140   4.161 -0.3164 -0.1039 -0.3357
  244MOL    H4729693   2.525   7.948   4.245 -1.0626  1.3563  2.2496
  244MOL    H4829694   2.672   7.848   4.257  0.5550  0.5998 -1.9034
  244MOL    H4929695   2.647   8.115   4.388  0.8366  0.5623 -0.1201
  244MOL    C5029696   2.836   8.038   4.390  0.2244  0.3472  0.1359
  244MOL    C5129697   2.953   7.973   4.320  0.4132 -0.2093  0.0328
  244MOL   Cl5229698   2.932   7.804   4.319  0.2421 -0.1107 -0.0274
  244MOL    H5329699   2.827   7.992   4.489 -0.6297  1.8415  0.7815
  244MOL    H5429700   2.868   8.141   4.407 -1.0600  0.8745 -0.5584
  244MOL    H5529701   2.948   8.001   4.215 -1.2163  0.8395  0.3739
  244MOL    C5629702   3.091   8.013   4.389 -0.2464 -0.0825 -0.2768
  244MOL    C5729703   3.210   7.954   4.313  0.4336  0.6486  0.6804
  244MOL   Cl5829704   3.342   8.022   4.402 -0.4792  0.2864 -0.1656
  244MOL    H5929705   3.102   7.993   4.495 -0.7875 -1.6397 -0.4950
  244MOL    H6029706   3.094   8.121   4.380  0.1160 -0.1650 -1.2184
  244MOL    H6129707   3.217   7.848   4.334  1.6797  0.2384 -1.6059
  244MOL    C6229708   3.227   7.978   4.163 -0.1858 -0.5911 -0.3390
  244MOL    C6329709   3.173   7.874   4.062 -0.6703  0.2595  1.0061
  244MOL   Cl6429710   3.290   7.741   4.067 -0.2590  0.2359  0.4885
  244MOL    H6529711   3.334   7.994   4.151 -0.3081 -0.0034 -0.6917
  244MOL    H6629712   3.184   8.077   4.146 -1.2099 -1.0159 -0.3088
  244MOL    H6729713   3.078   7.829   4.092 -0.2111 -1.9335 -0.6608
  244MOL    C6829714   3.172   7.919   3.918  0.0251 -0.1564  0.1479
  244MOL    C6929715   3.046   8.004   3.877 -0.7571  0.4055  0.6186
  244MOL   Cl7029716   3.034   8.156   3.972  0.2039  0.0324  0.2945
  244MOL    H7129717   3.194   7.836   3.851 -1.6715  0.1174 -0.7689
  244MOL    H7229718   3.257   7.981   3.894 -1.0442  0.9205 -0.8887
  244MOL    H7329719   3.062   8.042   3.776  0.3963 -2.1195 -0.2060
  244MOL    C7429720   2.920   7.924   3.884 -0.0553  0.1405  0.1939
  244MOL    C7529721   2.825   7.965   3.773 -0.6870  0.9066 -0.0035
  244MOL   Cl7629722   2.775   8.140   3.787  0.0603  0.0019 -0.4386
  244MOL    H7729723   2.877   7.923   3.984 -3.6445  2.4622 -1.2372
  244MOL    H7829724   2.949   7.821   3.867  0.9398  0.9154 -3.0727
  244MOL    H7929725   2.881   7.965   3.679  0.9656  4.2861  0.9068
  244MOL    C8029726   2.692   7.876   3.764 -0.1120  1.1595  0.0594
  244MOL    C8129727   2.706   7.727   3.817  0.0878  0.7950 -0.2808
  244MOL   Cl8229728   2.811   7.651   3.698  0.0623 -0.3252  0.4131
  244MOL    H8329729   2.654   7.870   3.662 -2.2059 -0.5870  0.9190
  244MOL    H8429730   2.619   7.925   3.828 -1.1906 -0.9441  0.4856
  244MOL    H8529731   2.755   7.727   3.914 -0.2622 -0.4488 -0.0913
  244MOL    C8629732   2.571   7.653   3.819 -0.2739  0.1265 -0.1106
  244MOL    C8729733   2.552   7.540   3.922  0.4550 -0.4189 -0.0907
  244MOL   Cl8829734   2.576   7.606   4.081  0.1820  0.1893  0.4355
  244MOL    H8929735   2.544   7.617   3.720 -0.9066 -0.5274  0.2905
  244MOL    H9029736   2.486   7.717   3.841  0.7042  0.6182  2.3915
  244MOL    H9129737   2.444   7.523   3.920  0.8118 -2.9174 -0.4921
  244MOL    C9229738   2.637   7.414   3.903 -0.3586 -0.0844  0.1031
  244MOL    C9329739   2.591   7.279   3.961 -0.3263 -0.3165  1.1032
  244MOL   Cl9429740   2.723   7.172   3.910 -0.0368  0.0630  0.1327
  244MOL    H9529741   2.738   7.422   3.945 -0.4144  0.1585  0.1927
  244MOL    H9629742   2.650   7.402   3.796  2.3582  1.4977  0.1745
  244MOL    H9729743   2.596   7.287   4.070 -0.7195  2.2464  0.9654
  244MOL    C9829744   2.464   7.217   3.894  0.3575 -0.2119 -0.2904
  244MOL    C9929745   2.404   7.091   3.956  0.4990  0.1788  0.2536
  244MOL  Cl10029746   2.259   7.056   3.863  0.1169 -0.0597  0.4675
  244MOL   H10129747   2.476   7.198   3.788 -3.0777 -0.0969 -0.7583
  244MOL   H10229748   2.387   7.294   3.902  1.2722  0.5871  1.1283
  244MOL   H10329749   2.473   7.008   3.942 -0.8883 -1.1380  1.0838
  244MOL   C10429750   2.365   7.097   4.108 -0.3472 -0.7376 -0.1502
  244MOL   C10529751   2.303   6.977   4.174 -0.4773 -0.0347  0.0670
  244MOL  Cl10629752   2.216   7.035   4.326  0.1891 -0.3661  0.0385
  244MOL   H10729753   2.295   7.180   4.112 -0.1287 -0.5513 -0.1283
  244MOL   H10829754   2.445   7.127   4.176 -1.3251 -0.3908  0.8412
  244MOL   H10929755   2.232   6.935   4.102 -1.6004  0.3334  0.9460
  244MOL   C11029756   2.415   6.867   4.207 -0.0477 -0.7160  0.1744
  244MOL   C11129757   2.365   6.722   4.216  0.6778 -0.6397  0.3149
  244MOL  Cl11229758   2.251   6.721   4.355 -0.0859  0.1213 -0.1516
  244MOL   H11329759   2.469   6.894   4.298  0.7927 -0.0054 -0.5327
  244MOL   H11429760   2.500   6.872   4.139 -0.0601  0.2373  0.2288
  244MOL   H11529761   2.304   6.709   4.127  1.1200  3.1015 -0.6245
  244MOL   C11629762   2.471   6.612   4.235  0.2345  0.1062  0.0214
  244MOL   C11729763   2.469   6.509   4.117  0.4295 -0.2025  0.1025
  244MOL  Cl11829764   2.320   6.417   4.119 -0.1852  0.0091 -0.0195
  244MOL   H11929765   2.448   6.555   4.325  0.2099  0.4035  0.2043
  244MOL   H12029766   2.564   6.669   4.236 -0.3071  1.0424 -1.5767
  244MOL   H12129767   2.467   6.555   4.017 -1.3263  0.4210  0.4072
  244MOL   H12229768   2.552   6.440   4.131 -0.5243 -1.5111 -0.6536
  245MOL     C129769   1.845   7.451   6.554  0.2766 -0.3992  0.5220
  245MOL     C229770   1.982   7.381   6.532 -0.0922 -0.6802 -0.4444
  245MOL    Cl329771   2.013   7.326   6.358  0.4188  0.0010  0.1934
  245MOL     H429772   1.856   7.490   6.655 -1.2270  2.0251 -0.2076
  245MOL     H529773   1.813   7.526   6.481  1.0462 -1.0995 -0.5609
  245MOL     H629774   2.058   7.447   6.575 -0.7037  0.5495 -1.2168
  245MOL     H729775   1.762   7.381   6.544 -2.8043  3.2474 -0.6798
  245MOL     C829776   1.995   7.251   6.615 -0.6617  0.0464 -0.3936
  245MOL     C929777   1.980   7.265   6.768  0.1741 -0.5939  0.2746
  245MOL   Cl1029778   2.113   7.164   6.833 -0.1046  0.2306  0.1309
  245MOL    H1129779   2.092   7.206   6.596 -1.6789 -1.5679 -1.9187
  245MOL    H1229780   1.930   7.173   6.577  0.5730 -0.4275 -1.5671
  245MOL    H1329781   2.008   7.367   6.797  1.5769 -1.0405  0.5256
  245MOL    C1429782   1.851   7.217   6.823  0.1670  0.2646  0.0248
  245MOL    C1529783   1.827   7.261   6.966 -0.5122  0.2215  0.1680
  245MOL   Cl1629784   1.839   7.429   6.978 -0.1392 -0.6043 -0.1772
  245MOL    H1729785   1.843   7.109   6.808  0.2094  0.1445  0.8383
  245MOL    H1829786   1.773   7.269   6.767 -0.3274  1.4059  1.7270
  245MOL    H1929787   1.720   7.243   6.977 -0.3921 -0.4236  0.2923
  245MOL    C2029788   1.900   7.186   7.076  1.0755 -0.5263  0.0834
  245MOL    C2129789   1.861   7.031   7.082  0.3869  0.3955 -0.3712
  245MOL   Cl2229790   1.688   7.006   7.101 -0.3699  0.3021 -0.1839
  245MOL    H2329791   1.866   7.229   7.170  1.6341 -0.4690  0.2625
  245MOL    H2429792   2.007   7.209   7.075  0.7146  1.2295  0.9358
  245MOL    H2529793   1.881   6.976   6.989  0.2828 -1.7793  0.8564
  245MOL    C2629794   1.931   6.946   7.196  0.4817  0.2598  0.1715
  245MOL    C2729795   2.084   6.918   7.174 -0.6681  0.1367  0.5446
  245MOL   Cl2829796   2.106   6.813   7.029  0.0763 -0.0336  0.1081
  245MOL    H2929797   1.885   6.851   7.223  0.3476  0.2895  0.0456
  245MOL    H3029798   1.916   7.016   7.279 -0.1583 -1.2234  1.3176
  245MOL    H3129799   2.140   7.008   7.148  0.7824 -0.6258  0.9976
  245MOL    C3229800   2.157   6.835   7.284  0.2668 -0.3686 -0.2064
  245MOL    C3329801   2.234   6.916   7.392  0.0656 -0.1084 -0.6005
  245MOL   Cl3429802   2.335   7.026   7.293  0.5675  0.4815  0.1430
  245MOL    H3529803   2.238   6.787   7.230  0.0585  0.9370 -1.7396
  245MOL    H3629804   2.097   6.749   7.313  2.3152 -1.6642  0.2446
  245MOL    H3729805   2.158   6.972   7.446  0.6281  0.8658 -0.8082
  245MOL    C3829806   2.326   6.831   7.481  0.8823 -0.5400 -0.3705
  245MOL    C3929807   2.252   6.741   7.582 -0.2322 -0.2531 -0.2239
  245MOL   Cl4029808   2.175   6.844   7.704 -0.0688 -0.0113  0.4123
  245MOL    H4129809   2.385   6.903   7.538 -0.3186  2.1826 -2.4303
  245MOL    H4229810   2.392   6.768   7.422  1.4971 -0.8037  0.5838
  245MOL    H4329811   2.174   6.687   7.528 -1.7059  1.0515  0.5703
  245MOL    C4429812   2.358   6.652   7.655  0.1810 -0.9360 -0.3242
  245MOL    C4529813   2.306   6.527   7.731 -0.3245 -0.3597 -0.1081
  245MOL   Cl4629814   2.440   6.473   7.831 -0.0189 -0.4829 -0.4113
  245MOL    H4729815   2.414   6.719   7.721 -3.4455 -0.1834  2.1145
  245MOL    H4829816   2.430   6.605   7.588  0.3174 -0.8610 -0.2320
  245MOL    H4929817   2.220   6.554   7.793 -2.3695 -2.7536 -1.7854
  245MOL    C5029818   2.257   6.413   7.636  0.1312 -0.0200  0.0213
  245MOL    C5129819   2.221   6.282   7.702 -0.4948 -0.0689 -0.1464
  245MOL   Cl5229820   2.192   6.167   7.573  0.0097  0.1863  0.1453
  245MOL    H5329821   2.341   6.386   7.573  0.0956  0.0089 -0.0377
  245MOL    H5429822   2.172   6.449   7.578  0.2140  0.5325  0.2387
  245MOL    H5529823   2.301   6.243   7.765 -2.6360 -0.7436  2.3005
  245MOL    C5629824   2.113   6.278   7.807 -0.2291  0.0403  0.1246
  245MOL    C5729825   2.073   6.137   7.857  0.9335 -0.0812  0.0259
  245MOL   Cl5829826   1.904   6.126   7.912 -0.2356 -0.2543  0.2248
  245MOL    H5929827   2.027   6.329   7.765 -0.5939 -0.2270  0.5394
  245MOL    H6029828   2.135   6.348   7.888  3.6068 -0.9214  0.0312
  245MOL    H6129829   2.080   6.063   7.777  0.6597 -0.0762 -0.0012
  245MOL    C6229830   2.150   6.072   7.983  0.1565 -0.6960 -0.1845
  245MOL    C6329831   2.290   6.018   7.950 -0.7241  0.1653 -0.2287
  245MOL   Cl6429832   2.288   5.880   7.828  0.2307 -0.0218 -0.1472
  245MOL    H6529833   2.098   5.983   8.017  0.5868 -0.9577 -0.1990
  245MOL    H6629834   2.146   6.144   8.065 -1.3676 -1.4581  0.4230
  245MOL    H6729835   2.348   6.093   7.896  1.8732 -2.1244 -0.7166
  245MOL    C6829836   2.365   5.966   8.069  0.6540 -0.0676 -0.3735
  245MOL    C6929837   2.506   5.893   8.049 -0.3639  0.1019  0.3015
  245MOL   Cl7029838   2.580   5.868   8.211  0.3517  0.1553 -0.3399
  245MOL    H7129839   2.295   5.899   8.119 -0.0946  1.0252  0.0707
  245MOL    H7229840   2.374   6.046   8.143  2.4772  1.3016 -2.0226
  245MOL    H7329841   2.485   5.790   8.019 -0.9618  0.4643 -0.5366
  245MOL    C7429842   2.602   5.956   7.947 -0.1114 -0.1728  0.0994
  245MOL    C7529843   2.678   6.081   7.993 -0.3513 -0.7514 -0.5054
  245MOL   Cl7629844   2.578   6.223   7.981 -0.3401 -0.2395  0.3335
  245MOL    H7729845   2.557   5.970   7.849  2.1749  0.0089 -0.9554
  245MOL    H7829846   2.675   5.876   7.934 -1.9662 -2.0235  0.8208
  245MOL    H7929847   2.695   6.072   8.100  2.4820  1.4570 -0.6958
  245MOL    C8029848   2.813   6.116   7.928  0.0560 -0.2342  0.0792
  245MOL    C8129849   2.921   6.008   7.940 -0.5757  0.4781  0.2031
  245MOL   Cl8229850   2.939   5.968   8.110  0.3366 -0.4654 -0.2071
  245MOL    H8329851   2.839   6.216   7.964 -2.3725  0.4317  0.0310
  245MOL    H8429852   2.789   6.123   7.822  2.7484 -0.6518 -0.5987
  245MOL    H8529853   2.889   5.920   7.884  1.0363 -0.8863  1.3784
  245MOL    C8629854   3.056   6.065   7.885 -0.4776 -0.2609 -0.4723
  245MOL    C8729855   3.051   6.093   7.725  0.6492 -0.3929  0.4695
  245MOL   Cl8829856   3.002   5.949   7.635  0.1486 -0.4635 -0.0354
  245MOL    H8929857   3.128   5.989   7.912 -2.1345 -2.2450 -1.4402
  245MOL    H9029858   3.081   6.161   7.930  0.3048  0.5446 -2.5498
  245MOL    H9129859   2.976   6.171   7.712  1.9802  0.7229 -0.6759
  245MOL    C9229860   3.176   6.151   7.664 -0.1475  0.1372 -0.1111
  245MOL    C9329861   3.312   6.083   7.690 -0.4760 -0.6692 -0.2368
  245MOL   Cl9429862   3.402   6.188   7.808 -0.4384 -0.0900  0.0194
  245MOL    H9529863   3.191   6.250   7.708  1.4714  0.1568 -0.6678
  245MOL    H9629864   3.167   6.165   7.557  0.1690 -2.9273 -0.5837
  245MOL    H9729865   3.301   5.989   7.744 -0.8666 -0.5483 -0.1036
  245MOL    C9829866   3.387   6.062   7.556 -0.2958  1.2781 -0.0444
  245MOL    C9929867   3.537   6.023   7.579  0.5032 -0.3793 -0.2628
  245MOL  Cl10029868   3.623   6.035   7.418 -0.0100  0.0863 -0.4327
  245MOL   H10129869   3.384   6.150   7.491 -0.1237  1.7013  0.5180
  245MOL   H10229870   3.331   5.987   7.500 -0.2372  0.7782  0.5583
  245MOL   H10329871   3.580   6.102   7.640  0.7815  0.8645 -2.0044
  245MOL   C10429872   3.572   5.894   7.647 -0.0517  0.2256  0.0419
  245MOL   C10529873   3.725   5.876   7.650  0.2084 -0.6230  1.1376
  245MOL  Cl10629874   3.742   5.723   7.728  0.4247 -0.2806  0.3201
  245MOL   H10729875   3.535   5.810   7.588 -1.5824  1.0752 -0.2283
  245MOL   H10829876   3.530   5.899   7.748 -0.6297 -2.3054 -0.0332
  245MOL   H10929877   3.766   5.858   7.550 -0.0421  1.5248  0.6215
  245MOL   C11029878   3.821   5.975   7.721  0.2290 -0.3830  0.4945
  245MOL   C11129879   3.977   5.953   7.712 -0.1550  0.0539 -0.4231
  245MOL  Cl11229880   4.058   6.082   7.807  0.0230 -0.0232  0.1748
  245MOL   H11329881   3.794   5.975   7.826 -1.1285 -1.4657  0.1608
  245MOL   H11429882   3.807   6.074   7.677 -1.6434 -1.3693 -1.1710
  245MOL   H11529883   3.998   5.858   7.760 -1.6747  0.0451  0.2544
  245MOL   C11629884   4.032   5.959   7.574  0.0986 -0.4673  0.2990
  245MOL   C11729885   4.183   5.921   7.572  0.2952  0.0430  0.6697
  245MOL  Cl11829886   4.263   5.939   7.413 -0.0363 -0.2138  0.1261
  245MOL   H11929887   4.015   6.062   7.543 -1.4863 -0.7095  0.3112
  245MOL   H12029888   3.979   5.894   7.504 -0.6800  1.9809 -1.4151
  245MOL   H12129889   4.245   5.979   7.640 -0.1484 -0.1045  1.2084
  245MOL   H12229890   4.187   5.816   7.602 -0.1685 -1.0053 -2.7421
  246MOL     C129891   5.257   3.712   3.976 -0.6646  0.5062  0.4064
  246MOL     C229892   5.360   3.824   3.979 -0.1030 -0.3633  0.2292
  246MOL    Cl329893   5.419   3.866   3.810 -0.2480  0.2423  0.6868
  246MOL     H429894   5.230   3.693   4.079  0.2103  0.3222  0.6081
  246MOL     H529895   5.180   3.739   3.903  2.5418  2.5586 -2.3934
  246MOL     H629896   5.313   3.915   4.015 -1.6853  0.1220 -2.9386
  246MOL     H729897   5.292   3.624   3.921 -0.4049 -0.1535  1.6168
  246MOL     C829898   5.481   3.788   4.066  0.0431 -0.5083  0.0352
  246MOL     C929899   5.599   3.899   4.083  0.0158  0.5147  0.1599
  246MOL   Cl1029900   5.710   3.837   4.206 -0.2920 -0.1439  0.4024
  246MOL    H1129901   5.517   3.693   4.029  2.3601  0.3266  0.0722
  246MOL    H1229902   5.449   3.764   4.168  0.6194 -3.3092 -0.4071
  246MOL    H1329903   5.643   3.903   3.983  0.9234  1.3729  0.5870
  246MOL    C1429904   5.540   4.035   4.131  0.3897  0.4591  0.0475
  246MOL    C1529905   5.652   4.139   4.154 -0.2525  0.3732  0.3659
  246MOL   Cl1629906   5.575   4.305   4.184  0.1733  0.5338 -0.1616
  246MOL    H1729907   5.490   4.021   4.227  0.3263 -2.5561 -0.3872
  246MOL    H1829908   5.461   4.070   4.065  0.1076  1.2375  0.7780
  246MOL    H1929909   5.718   4.102   4.233 -2.0861  0.0376  1.7775
  246MOL    C2029910   5.733   4.152   4.024 -0.8532 -0.3765  0.1341
  246MOL    C2129911   5.832   4.267   4.017 -0.1913 -0.1813  0.2126
  246MOL   Cl2229912   5.831   4.321   3.843 -0.2561  0.1652  0.0760
  246MOL    H2329913   5.657   4.166   3.948  0.4731  1.7303 -0.8477
  246MOL    H2429914   5.785   4.058   4.007 -1.8391 -0.5964 -1.7407
  246MOL    H2529915   5.821   4.345   4.092  2.0003 -0.5516  0.9540
  246MOL    C2629916   5.979   4.209   4.031  0.4408 -0.4119  0.3118
  246MOL    C2729917   6.012   4.124   4.157  0.2563 -0.4228 -0.9959
  246MOL   Cl2829918   6.002   4.218   4.310 -0.0620 -0.0670 -0.2811
  246MOL    H2929919   6.047   4.294   4.040 -0.7752  0.4863  1.3113
  246MOL    H3029920   6.006   4.153   3.941  1.5846 -3.1228  2.2643
  246MOL    H3129921   5.933   4.050   4.164 -1.0561  1.1471  1.3424
  246MOL    C3229922   6.151   4.051   4.153  0.4348 -0.5123 -0.6907
  246MOL    C3329923   6.179   3.962   4.030  0.7469  0.6095  0.5242
  246MOL   Cl3429924   6.055   3.833   4.027 -0.1867 -0.0410  0.3268
  246MOL    H3529925   6.151   3.991   4.244 -0.6241  0.4015 -0.0850
  246MOL    H3629926   6.226   4.127   4.176  0.9815 -1.1650 -0.2670
  246MOL    H3729927   6.173   4.018   3.937 -2.4021 -0.9251 -0.2355
  246MOL    C3829928   6.319   3.901   4.033 -1.0309  0.4804  0.1654
  246MOL    C3929929   6.370   3.828   3.906 -0.2577  0.0752 -0.0110
  246MOL   Cl4029930   6.505   3.733   3.962  0.1483 -0.0784 -0.0238
  246MOL    H4129931   6.323   3.837   4.121 -0.1160  1.6298  0.9896
  246MOL    H4229932   6.385   3.984   4.059  0.8195 -1.1085  0.6913
  246MOL    H4329933   6.297   3.753   3.875 -0.1275 -0.5182  1.1053
  246MOL    C4429934   6.407   3.917   3.790  0.6675  0.3403 -0.0644
  246MOL    C4529935   6.415   3.856   3.644  0.1727 -0.3348 -0.5217
  246MOL   Cl4629936   6.262   3.767   3.614  0.6766  0.0188  0.1260
  246MOL    H4729937   6.486   3.986   3.822 -0.7295  1.5304  0.8932
  246MOL    H4829938   6.324   3.986   3.776  1.6062  1.4602 -0.2107
  246MOL    H4929939   6.420   3.939   3.574 -1.5637  1.0728  0.9694
  246MOL    C5029940   6.530   3.754   3.628 -0.1499 -0.1233 -0.2431
  246MOL    C5129941   6.667   3.811   3.674  0.2334 -0.5173 -0.3273
  246MOL   Cl5229942   6.699   3.957   3.570 -0.2974  0.1821  0.2235
  246MOL    H5329943   6.530   3.726   3.522  2.3585 -1.6020  0.0985
  246MOL    H5429944   6.516   3.668   3.692 -0.1466  0.4261  0.5072
  246MOL    H5529945   6.675   3.832   3.780 -1.4470 -1.5082  0.0076
  246MOL    C5629946   6.775   3.700   3.658 -0.4095  0.2925 -0.4688
  246MOL    C5729947   6.922   3.749   3.660 -0.6143  0.4344  0.0476
  246MOL   Cl5829948   7.031   3.605   3.657  0.2189  0.2583  0.0274
  246MOL    H5929949   6.770   3.635   3.570  0.7348 -2.4404  1.4066
  246MOL    H6029950   6.766   3.635   3.745  0.4805  0.3947 -0.2907
  246MOL    H6129951   6.939   3.808   3.570  2.7941 -0.3795  0.1100
  246MOL    C6229952   6.962   3.848   3.772 -0.3896  0.2401  0.1887
  246MOL    C6329953   7.102   3.909   3.755  0.0678  0.2351 -0.2360
  246MOL   Cl6429954   7.130   4.015   3.895  0.0966  0.3237 -0.1271
  246MOL    H6529955   6.953   3.795   3.867  0.7274  0.6932  0.5563
  246MOL    H6629956   6.902   3.938   3.772 -1.6777 -0.6092  1.0901
  246MOL    H6729957   7.169   3.823   3.750  0.1326  0.2050  1.0736
  246MOL    C6829958   7.126   3.992   3.625 -0.2753 -0.4996 -0.0641
  246MOL    C6929959   7.260   4.064   3.606  0.1624  0.1018  0.2957
  246MOL   Cl7029960   7.392   3.945   3.612 -0.0714 -0.1575  0.0502
  246MOL    H7129961   7.051   4.071   3.628  0.2129 -0.0621  0.6784
  246MOL    H7229962   7.112   3.935   3.533  0.0812 -0.9484  0.1533
  246MOL    H7329963   7.265   4.112   3.508 -0.6036  1.0642  0.7156
  246MOL    C7429964   7.292   4.188   3.693  0.2715 -1.1179 -0.2876
  246MOL    C7529965   7.185   4.305   3.704  0.6944  0.7246  0.0403
  246MOL   Cl7629966   7.103   4.342   3.547 -0.0972 -0.2859 -0.0124
  246MOL    H7729967   7.380   4.236   3.650  0.6926 -2.0217 -0.4444
  246MOL    H7829968   7.316   4.158   3.794  3.0328  1.0958 -0.2309
  246MOL    H7929969   7.102   4.285   3.772 -2.0531  1.3770 -2.9920
  246MOL    C8029970   7.246   4.440   3.756 -0.1160 -0.0937  0.5217
  246MOL    C8129971   7.286   4.459   3.908  0.2717  0.8352  0.2424
  246MOL   Cl8229972   7.129   4.446   3.997  0.1503  0.3601 -0.5070
  246MOL    H8329973   7.183   4.525   3.729  2.3358  2.2559  1.9093
  246MOL    H8429974   7.334   4.456   3.693  1.4104 -1.8587  2.1566
  246MOL    H8529975   7.343   4.372   3.941 -0.7150 -0.1594 -0.6109
  246MOL    C8629976   7.352   4.593   3.945 -0.1213  0.5323 -0.0785
  246MOL    C8729977   7.501   4.612   3.893 -0.7623 -0.1181  0.1563
  246MOL   Cl8829978   7.596   4.497   3.989 -0.3919 -0.3387  0.1084
  246MOL    H8929979   7.350   4.609   4.053 -0.3175 -0.0211  0.0015
  246MOL    H9029980   7.279   4.664   3.907 -3.0403 -1.9058  0.8208
  246MOL    H9129981   7.517   4.582   3.789  0.6139 -0.0753  0.3496
  246MOL    C9229982   7.550   4.748   3.923  0.3942  0.2000  0.2592
  246MOL    C9329983   7.495   4.857   3.829  0.0571  0.8074 -0.4749
  246MOL   Cl9429984   7.536   4.803   3.664 -0.4009  0.5660 -0.1736
  246MOL    H9529985   7.659   4.750   3.922  0.4117  0.0085  1.1657
  246MOL    H9629986   7.521   4.786   4.022  2.0630  4.1332 -0.6520
  246MOL    H9729987   7.386   4.865   3.830 -0.0779 -0.7965  2.4939
  246MOL    C9829988   7.549   5.005   3.851 -0.5142  0.4792 -1.1537
  246MOL    C9929989   7.487   5.112   3.758  0.6861  0.0484 -0.3566
  246MOL  Cl10029990   7.593   5.247   3.782  0.1408  0.0406  0.0869
  246MOL   H10129991   7.656   4.996   3.831 -0.5851 -2.1372 -0.5892
  246MOL   H10229992   7.550   5.035   3.955 -0.6422  2.3989 -1.6950
  246MOL   H10329993   7.486   5.083   3.653 -0.0170 -0.1478 -0.2989
  246MOL   C10429994   7.340   5.148   3.806 -0.3582  0.1671 -0.2166
  246MOL   C10529995   7.283   5.274   3.758 -0.5957 -0.2264  0.9189
  246MOL  Cl10629996   7.128   5.270   3.846  0.3983  0.2530 -0.4102
  246MOL   H10729997   7.344   5.134   3.914  0.2645  0.2700 -0.2281
  246MOL   H10829998   7.255   5.080   3.796 -1.0583  0.6691  1.9377
  246MOL   H10929999   7.341   5.364   3.781  0.2897 -0.1980 -1.3252
  246MOL   C11030000   7.272   5.294   3.600 -0.0611 -0.0784  0.2948
  246MOL   C11130001   7.175   5.202   3.537  0.2008  0.0424  0.4665
  246MOL  Cl11230002   7.252   5.045   3.483  0.1300  0.1073 -0.3626
  246MOL   H11330003   7.367   5.291   3.546 -0.6837  1.7210 -0.9471
  246MOL   H11430004   7.235   5.395   3.584  1.6557  0.5350  0.0953
  246MOL   H11530005   7.100   5.175   3.611 -0.5189 -1.6636 -0.8511
  246MOL   C11630006   7.098   5.264   3.425  0.6176  0.3320  0.3736
  246MOL   C11730007   7.007   5.162   3.351  0.2694 -0.4698 -0.1016
  246MOL  Cl11830008   6.939   5.226   3.198  0.3610 -0.3117 -0.0682
  246MOL   H11930009   7.167   5.311   3.354  0.7802 -2.3034 -1.2732
  246MOL   H12030010   7.026   5.341   3.454 -0.8002 -0.9710  0.3348
  246MOL   H12130011   7.050   5.064   3.331  0.0349 -0.4469 -0.7308
  246MOL   H12230012   6.926   5.134   3.417 -0.0939 -1.3154 -0.8911
  247MOL     C130013   2.863   4.279   4.901 -0.0923  0.6656 -0.2249
  247MOL     C230014   2.762   4.178   4.842  0.6540 -0.0563 -0.5092
  247MOL    Cl330015   2.817   4.142   4.678  0.1170  0.0739 -0.0116
  247MOL     H430016   2.852   4.377   4.854 -0.6130 -0.1842 -1.9248
  247MOL     H530017   2.861   4.295   5.008  0.8305 -3.3250  0.4460
  247MOL     H630018   2.764   4.085   4.900 -0.8468 -0.7312 -1.5247
  247MOL     H730019   2.966   4.244   4.899 -0.9389 -1.9771  0.3296
  247MOL     C830020   2.625   4.235   4.830 -0.0552  0.5870  0.7598
  247MOL     C930021   2.511   4.134   4.853 -0.3413 -0.7667 -0.2546
  247MOL   Cl1030022   2.521   4.075   5.018 -0.1337  0.1860  0.2360
  247MOL    H1130023   2.614   4.287   4.736 -1.0355 -2.5209 -0.9172
  247MOL    H1230024   2.613   4.307   4.911 -0.8568  0.7240  0.5219
  247MOL    H1330025   2.423   4.198   4.841 -1.2010 -2.2035 -1.7548
  247MOL    C1430026   2.509   4.021   4.747  0.1285  0.0585  0.0780
  247MOL    C1530027   2.487   4.077   4.597  0.6383 -0.3087 -0.3251
  247MOL   Cl1630028   2.328   4.157   4.575  0.0036  0.3230  0.0366
  247MOL    H1730029   2.436   3.943   4.765 -1.0633  1.4161  1.2601
  247MOL    H1830030   2.607   3.973   4.751  0.3026  0.4308  0.3648
  247MOL    H1930031   2.571   4.142   4.572 -0.6112  0.2661 -3.2721
  247MOL    C2030032   2.493   3.969   4.495 -0.1734 -0.0575  0.3815
  247MOL    C2130033   2.497   4.006   4.343 -0.2152  0.0078 -0.5456
  247MOL   Cl2230034   2.535   3.864   4.245 -0.0446 -0.3748 -0.2169
  247MOL    H2330035   2.410   3.898   4.505  0.7327 -1.4696 -1.7968
  247MOL    H2430036   2.587   3.920   4.521  0.5723  0.7066 -0.8257
  247MOL    H2530037   2.396   4.035   4.314  0.0425  1.6848  0.1776
  247MOL    C2630038   2.605   4.129   4.304  0.2492  0.4956  0.9618
  247MOL    C2730039   2.560   4.278   4.300 -0.4919 -0.3558 -0.3044
  247MOL   Cl2830040   2.421   4.289   4.200 -0.2572 -0.3553 -0.1389
  247MOL    H2930041   2.640   4.113   4.202 -2.0723  1.7890 -0.0709
  247MOL    H3030042   2.705   4.110   4.343 -0.1599 -1.5197  1.0903
  247MOL    H3130043   2.522   4.309   4.397  0.2126 -1.4888  0.3508
  247MOL    C3230044   2.668   4.378   4.259  0.0658  0.2852  1.0005
  247MOL    C3330045   2.767   4.410   4.370  0.5489  0.4341  0.4903
  247MOL   Cl3430046   2.687   4.532   4.476 -0.2054 -0.2869  0.2238
  247MOL    H3530047   2.616   4.462   4.212 -2.4661 -1.2402  0.9850
  247MOL    H3630048   2.729   4.330   4.183 -1.6819 -0.5829  0.1385
  247MOL    H3730049   2.803   4.321   4.422  0.5161  0.1713  0.0590
  247MOL    C3830050   2.893   4.483   4.324 -0.0452 -0.3939  0.2532
  247MOL    C3930051   3.008   4.390   4.275  0.4640 -0.3658  0.0569
  247MOL   Cl4030052   3.051   4.291   4.421  0.2971 -0.2124  0.1587
  247MOL    H4130053   2.930   4.523   4.419  0.4414  1.0603 -0.5406
  247MOL    H4230054   2.860   4.558   4.252 -0.5411 -3.2186 -2.5531
  247MOL    H4330055   2.985   4.324   4.192 -2.1054  0.5895 -0.0344
  247MOL    C4430056   3.129   4.475   4.227  0.1313  0.0744 -0.2475
  247MOL    C4530057   3.263   4.413   4.178  0.0951  0.1424  0.9384
  247MOL   Cl4630058   3.351   4.329   4.312 -0.0214 -0.0755  0.4394
  247MOL    H4730059   3.148   4.538   4.314  1.1907  1.2692 -1.3401
  247MOL    H4830060   3.094   4.550   4.157 -1.1851  0.0484  0.3646
  247MOL    H4930061   3.250   4.342   4.096  1.0368 -0.5025  1.3334
  247MOL    C5030062   3.355   4.530   4.131  1.0289  0.4350  0.0165
  247MOL    C5130063   3.486   4.505   4.063 -0.0499 -0.1235  0.2728
  247MOL   Cl5230064   3.567   4.655   4.020 -0.1675  0.1560  0.1683
  247MOL    H5330065   3.365   4.604   4.211 -1.8205  1.8900 -0.8886
  247MOL    H5430066   3.290   4.590   4.066  1.2681 -0.2798 -0.8979
  247MOL    H5530067   3.551   4.481   4.147 -1.5594 -0.3523  1.3991
  247MOL    C5630068   3.484   4.408   3.939  0.2054  0.0037 -0.6004
  247MOL    C5730069   3.602   4.383   3.854  0.2972  0.2660 -0.3071
  247MOL   Cl5830070   3.544   4.285   3.712 -0.3390  0.2556 -0.1420
  247MOL    H5930071   3.409   4.446   3.869 -0.5728  0.9493  0.7265
  247MOL    H6030072   3.436   4.322   3.984 -0.4205  1.1549  0.9763
  247MOL    H6130073   3.635   4.481   3.818 -0.5471  0.5412 -0.3684
  247MOL    C6230074   3.714   4.312   3.932 -0.2662  0.0279  0.2113
  247MOL    C6330075   3.835   4.268   3.844  0.2537  0.1754  0.0591
  247MOL   Cl6430076   3.955   4.204   3.961  0.0326 -0.0433  0.1148
  247MOL    H6530077   3.679   4.220   3.977  1.2045 -2.3751 -3.3487
  247MOL    H6630078   3.757   4.371   4.014  0.2667  0.5996 -0.4722
  247MOL    H6730079   3.800   4.186   3.782  0.5075  0.2639 -0.1984
  247MOL    C6830080   3.890   4.379   3.745 -0.0016  0.1940  0.0271
  247MOL    C6930081   3.969   4.317   3.626  1.0723 -0.1578  0.7754
  247MOL   Cl7030082   4.098   4.424   3.556  0.2174  0.2114  0.1454
  247MOL    H7130083   3.961   4.434   3.807 -0.1332 -2.6336  2.7647
  247MOL    H7230084   3.817   4.448   3.702 -1.0135 -0.3879  0.8160
  247MOL    H7330085   4.024   4.240   3.681  1.0912 -0.9331 -0.3144
  247MOL    C7430086   3.881   4.280   3.508  0.6845  0.2752  0.3715
  247MOL    C7530087   3.935   4.166   3.421  0.2085  1.1207 -0.8361
  247MOL   Cl7630088   3.960   4.027   3.526 -0.6236 -0.2255 -0.1035
  247MOL    H7730089   3.837   4.361   3.450  0.3116  0.0340  0.3115
  247MOL    H7830090   3.786   4.244   3.549  0.7092 -1.0888 -0.7101
  247MOL    H7930091   3.859   4.141   3.347  2.1801  0.8370 -2.8042
  247MOL    C8030092   4.054   4.199   3.329 -0.1972  0.0583  0.0688
  247MOL    C8130093   4.076   4.123   3.195 -0.0705  0.1775  0.4260
  247MOL   Cl8230094   4.138   3.958   3.213  0.4541 -0.3740  0.1141
  247MOL    H8330095   4.138   4.197   3.398 -0.5749  0.4550  0.5498
  247MOL    H8430096   4.030   4.301   3.299 -3.6048 -0.4089  0.9945
  247MOL    H8530097   3.986   4.120   3.134  1.2540  3.3323 -1.8453
  247MOL    C8630098   4.180   4.211   3.110 -0.1447  0.6393 -1.1193
  247MOL    C8730099   4.202   4.168   2.959 -0.3133  0.2983  0.2654
  247MOL   Cl8830100   4.310   4.285   2.881 -0.3299 -0.2743  0.1863
  247MOL    H8930101   4.278   4.215   3.157 -0.9714  0.4054  0.7019
  247MOL    H9030102   4.148   4.316   3.112  0.7104  0.8974 -0.4802
  247MOL    H9130103   4.247   4.069   2.973  1.3058  0.4950 -3.1214
  247MOL    C9230104   4.077   4.153   2.882  0.5225  0.3291 -0.3626
  247MOL    C9330105   3.997   4.274   2.839  0.3682  0.2714 -0.3334
  247MOL   Cl9430106   3.931   4.366   2.979  0.3214  0.2845 -0.1532
  247MOL    H9530107   4.017   4.079   2.935  0.1880  1.4794  0.9144
  247MOL    H9630108   4.113   4.094   2.798  1.1086  0.0456  0.0849
  247MOL    H9730109   4.067   4.344   2.794  1.6641 -0.2455  0.8359
  247MOL    C9830110   3.884   4.253   2.732  0.7814 -0.0234 -0.8107
  247MOL    C9930111   3.776   4.145   2.765  0.1943 -0.2237  0.2501
  247MOL  Cl10030112   3.841   3.979   2.747 -0.1020  0.4249 -0.1750
  247MOL   H10130113   3.927   4.230   2.634 -1.2429 -1.5803 -1.3883
  247MOL   H10230114   3.843   4.351   2.709 -0.9567 -0.0367  1.9539
  247MOL   H10330115   3.750   4.158   2.871  3.0735 -0.6181  1.0438
  247MOL   C10430116   3.658   4.170   2.668  0.2649 -0.3970  1.0185
  247MOL   C10530117   3.549   4.066   2.700  0.2644 -0.0251  0.5213
  247MOL  Cl10630118   3.541   3.944   2.565  0.5848 -0.4265 -0.8012
  247MOL   H10730119   3.674   4.174   2.561 -1.1336  1.5991  0.8550
  247MOL   H10830120   3.627   4.269   2.703  1.9602  0.1628  0.9703
  247MOL   H10930121   3.573   3.998   2.782 -0.1753 -0.9276 -0.0909
  247MOL   C11030122   3.412   4.138   2.719  0.0582  0.0881 -0.7686
  247MOL   C11130123   3.303   4.038   2.745  0.4058 -0.2925 -1.2862
  247MOL  Cl11230124   3.136   4.110   2.732  0.1195  0.0506  0.5085
  247MOL   H11330125   3.394   4.198   2.630  0.4257  0.1586 -0.7988
  247MOL   H11430126   3.409   4.212   2.799  2.3010 -0.4541 -0.1360
  247MOL   H11530127   3.305   3.960   2.669  0.4327 -0.3297 -1.2472
  247MOL   C11630128   3.320   3.957   2.879  0.4017  0.4265  0.6373
  247MOL   C11730129   3.330   4.044   2.999 -0.2126 -0.1371 -0.4373
  247MOL  Cl11830130   3.258   3.960   3.140  0.5354 -0.3337 -0.0334
  247MOL   H11930131   3.398   3.883   2.860 -0.6633 -0.0563 -2.0379
  247MOL   H12030132   3.236   3.888   2.893  2.5099 -2.7563 -1.6830
  247MOL   H12130133   3.430   4.075   3.029  0.2304 -0.3653 -1.6540
  247MOL   H12230134   3.270   4.135   2.997  0.3025  0.2301  0.7647
  248MOL     C130135   0.210   7.369   6.017 -0.0421 -0.0918  0.1775
  248MOL     C230136   0.330   7.363   6.114 -0.3853  0.2482 -0.8764
  248MOL    Cl330137   0.466   7.305   6.018 -0.3954  0.1050 -0.3344
  248MOL     H430138   0.230   7.434   5.931 -0.5150  0.7096  0.6668
  248MOL     H530139   0.172   7.271   5.991 -2.2514  0.6848  0.4131
  248MOL     H630140   0.353   7.462   6.153 -0.7155  0.1057 -0.3272
  248MOL     H730141   0.120   7.406   6.066 -0.5652 -0.5074 -0.4533
  248MOL     C830142   0.309   7.268   6.239  0.7182 -0.2835 -0.2961
  248MOL     C930143   0.213   7.339   6.349 -0.0142  0.3984 -0.3975
  248MOL   Cl1030144   0.309   7.466   6.426  0.0788  0.2870  0.1761
  248MOL    H1130145   0.410   7.254   6.280  1.0239 -2.7859 -1.8469
  248MOL    H1230146   0.267   7.168   6.228 -1.7264  0.5893  0.6975
  248MOL    H1330147   0.126   7.385   6.302 -0.8485  1.6878  2.3026
  248MOL    C1430148   0.161   7.249   6.464 -0.3769 -0.8856  0.1498
  248MOL    C1530149   0.088   7.122   6.422 -0.3750 -0.6294 -0.6539
  248MOL   Cl1630150   8.459   7.160   6.328  0.3017  0.2217  0.0104
  248MOL    H1730151   0.113   7.320   6.530  2.1354  2.6829 -1.7127
  248MOL    H1830152   0.245   7.205   6.517  0.1809  0.7415  0.6382
  248MOL    H1930153   0.152   7.061   6.358 -0.1657  0.0827 -1.1262
  248MOL    C2030154   0.061   7.045   6.553 -0.5542 -0.2433 -0.1189
  248MOL    C2130155   8.469   7.094   6.643  0.2218  0.1784 -0.3914
  248MOL   Cl2230156   0.004   7.209   6.764  0.1492  0.1033  0.2132
  248MOL    H2330157   0.155   7.039   6.607 -1.3222  1.8630  1.5285
  248MOL    H2430158   0.024   6.945   6.527 -0.9299  0.1594 -1.1608
  248MOL    H2530159   8.394   7.140   6.578 -3.0692 -0.7306  2.5896
  248MOL    C2630160   8.398   6.971   6.711 -0.8134 -0.3632 -0.5093
  248MOL    C2730161   8.298   6.901   6.612 -0.2050  0.3217  0.2209
  248MOL   Cl2830162   8.162   7.020   6.591 -0.1373  0.1692  0.1029
  248MOL    H2930163   8.339   7.010   6.794  1.7782  1.1169  0.7405
  248MOL    H3030164   8.477   6.911   6.758  0.6828  2.6328  0.9838
  248MOL    H3130165   8.355   6.889   6.519  1.7075  1.1950  1.2582
  248MOL    C3230166   8.251   6.754   6.644  0.7471 -0.1502 -0.1220
  248MOL    C3330167   8.167   6.674   6.540  0.0606 -0.5549 -0.1977
  248MOL   Cl3430168   7.994   6.728   6.527 -0.1920 -0.1284  0.0759
  248MOL    H3530169   8.185   6.772   6.729 -0.4408  0.3295 -1.1233
  248MOL    H3630170   8.326   6.684   6.680  0.4883 -1.9933 -2.9910
  248MOL    H3730171   8.211   6.700   6.444  1.8915 -0.9969  0.5078
  248MOL    C3830172   8.154   6.516   6.561  0.3994  0.7495  0.2170
  248MOL    C3930173   8.078   6.463   6.681  0.5451  0.9135  0.3045
  248MOL   Cl4030174   8.181   6.487   6.820 -0.3363  0.1905  0.1918
  248MOL    H4130175   8.256   6.479   6.575 -0.5815 -1.0422  2.9833
  248MOL    H4230176   8.125   6.465   6.469 -0.5721  3.1295 -0.8289
  248MOL    H4330177   7.996   6.532   6.702 -0.6484 -1.0087  2.1545
  248MOL    C4430178   8.025   6.319   6.660 -0.4957  0.3879 -0.0483
  248MOL    C4530179   7.933   6.299   6.543  0.4402 -0.3411 -0.5739
  248MOL   Cl4630180   7.784   6.394   6.550 -0.6264  0.5390 -0.1692
  248MOL    H4730181   7.978   6.283   6.752  2.3146 -0.4806  1.1153
  248MOL    H4830182   8.116   6.261   6.643 -0.1758  1.0414 -0.5869
  248MOL    H4930183   7.978   6.326   6.447  1.1476  0.8976  0.0978
  248MOL    C5030184   7.889   6.153   6.532 -0.3000  0.3177 -0.0480
  248MOL    C5130185   7.835   6.112   6.391 -0.0256  0.1379  0.4345
  248MOL   Cl5230186   7.785   5.947   6.409  0.1745 -0.0511 -0.2525
  248MOL    H5330187   7.811   6.136   6.607  0.8421  0.0524  1.0852
  248MOL    H5430188   7.975   6.088   6.545 -3.7832 -4.2773  1.7011
  248MOL    H5530189   7.751   6.175   6.361  1.4185  0.7708 -2.4519
  248MOL    C5630190   7.950   6.109   6.287  0.3719 -0.0121 -0.2545
  248MOL    C5730191   7.890   6.068   6.140 -0.2079  0.0993 -0.3341
  248MOL   Cl5830192   8.022   6.029   6.036 -0.1044  0.1224  0.2593
  248MOL    H5930193   8.036   6.045   6.311  1.1763 -0.1074 -3.1767
  248MOL    H6030194   7.999   6.206   6.281 -0.4157  0.4054  0.0092
  248MOL    H6130195   7.832   5.977   6.159 -0.4077  0.4148  0.6014
  248MOL    C6230196   7.787   6.165   6.069  0.0859 -0.1064  0.3787
  248MOL    C6330197   7.851   6.300   6.032 -1.1685 -0.1211  0.3975
  248MOL   Cl6430198   7.820   6.417   6.162 -0.3895 -0.2556 -0.0709
  248MOL    H6530199   7.698   6.190   6.126  0.3387 -1.8202  1.5605
  248MOL    H6630200   7.738   6.122   5.981  1.5112 -0.2064 -0.3835
  248MOL    H6730201   7.960   6.291   6.030 -1.0234  1.6882 -2.6213
  248MOL    C6830202   7.822   6.356   5.886  0.3325 -0.2387 -0.1195
  248MOL    C6930203   7.927   6.440   5.810 -0.3264 -0.5446 -0.0279
  248MOL   Cl7030204   8.086   6.357   5.794 -0.1354 -0.0294  0.2183
  248MOL    H7130205   7.733   6.419   5.886 -0.0716 -0.7990  0.4449
  248MOL    H7230206   7.806   6.269   5.822  4.2136 -0.7935 -0.4121
  248MOL    H7330207   7.890   6.451   5.708 -1.1855  0.1765  0.3549
  248MOL    C7430208   7.953   6.580   5.871 -0.4399 -0.1992  0.0834
  248MOL    C7530209   7.831   6.679   5.849 -0.5635  0.1205  0.8688
  248MOL   Cl7630210   7.814   6.729   5.679 -0.4972 -0.0183  0.3304
  248MOL    H7730211   8.038   6.633   5.827  0.7896 -1.2882  1.0819
  248MOL    H7830212   7.974   6.566   5.977 -1.5575 -1.9590  0.0938
  248MOL    H7930213   7.732   6.641   5.870 -1.4774  1.1643 -1.3854
  248MOL    C8030214   7.848   6.807   5.933  0.4969  0.1778  0.1700
  248MOL    C8130215   7.816   6.783   6.081 -0.0934  0.2861 -1.0101
  248MOL   Cl8230216   7.638   6.750   6.092  0.1372  0.3419 -0.3605
  248MOL    H8330217   7.790   6.889   5.890  1.6433 -0.3934 -2.5170
  248MOL    H8430218   7.951   6.834   5.913  0.5398  0.5381  0.8573
  248MOL    H8530219   7.874   6.698   6.116 -2.0221 -1.2442 -1.4685
  248MOL    C8630220   7.845   6.913   6.166  0.4922 -0.1601  0.1845
  248MOL    C8730221   7.990   6.973   6.154  0.2259 -0.2296  0.1301
  248MOL   Cl8830222   8.112   6.839   6.171  0.5001 -0.0762 -0.4428
  248MOL    H8930223   7.830   6.876   6.267 -1.3866 -0.7016 -0.2709
  248MOL    H9030224   7.764   6.983   6.144 -1.0647 -1.6785  1.0076
  248MOL    H9130225   8.008   7.022   6.058  2.2612  1.3971  1.2957
  248MOL    C9230226   8.032   7.082   6.263  0.9005 -0.3757  0.4422
  248MOL    C9330227   7.972   7.220   6.256  0.9207 -0.1783  0.5415
  248MOL   Cl9430228   8.031   7.297   6.105  0.4062  0.3541 -0.1056
  248MOL    H9530229   8.140   7.087   6.250  0.9430 -2.5150 -0.2430
  248MOL    H9630230   8.019   7.024   6.355  0.0628  1.7672  1.7101
  248MOL    H9730231   7.864   7.207   6.246  0.9927 -1.2875  1.0633
  248MOL    C9830232   8.009   7.303   6.373  0.2716 -0.1199  0.1176
  248MOL    C9930233   7.941   7.443   6.367 -0.3708 -0.2027 -0.2044
  248MOL  Cl10030234   8.023   7.563   6.471  0.2951 -0.5673  0.1221
  248MOL   H10130235   8.117   7.320   6.374  0.2177  0.2341  1.7986
  248MOL   H10230236   7.982   7.255   6.467  0.7888 -0.3387  0.1557
  248MOL   H10330237   7.946   7.482   6.265  0.4719 -0.7791 -0.3935
  248MOL   C10430238   7.794   7.437   6.410 -0.1374  0.7358 -0.7101
  248MOL   C10530239   7.710   7.569   6.403 -0.5506 -0.9189  0.0779
  248MOL  Cl10630240   7.531   7.549   6.445  0.2995  0.2273  0.2266
  248MOL   H10730241   7.781   7.398   6.512  1.1663  1.7241 -0.1549
  248MOL   H10830242   7.741   7.366   6.346 -0.4114 -1.3675  1.7280
  248MOL   H10930243   7.751   7.634   6.481 -0.6758  1.6309 -1.9125
  248MOL   C11030244   7.711   7.634   6.261 -0.7432  0.7045  0.0850
  248MOL   C11130245   7.647   7.772   6.242  0.0062  0.1471 -0.7794
  248MOL  Cl11230246   7.657   7.808   6.069 -0.0300 -0.0756  0.1401
  248MOL   H11330247   7.671   7.558   6.194  0.9683  1.1702 -1.5181
  248MOL   H11430248   7.814   7.655   6.231 -0.6398  0.5616  0.3342
  248MOL   H11530249   7.544   7.774   6.279  1.2504 -2.7722  3.1362
  248MOL   C11630250   7.741   7.879   6.307 -0.7118  0.2757  0.5285
  248MOL   C11730251   7.724   8.036   6.277 -0.1382  0.2634  0.2352
  248MOL  Cl11830252   7.572   8.099   6.333  0.4313  0.2882 -0.2050
  248MOL   H11930253   7.845   7.855   6.281 -0.5112  1.2898  0.3675
  248MOL   H12030254   7.741   7.869   6.416 -0.4728  0.8508  0.5832
  248MOL   H12130255   7.792   8.107   6.323  0.3652  0.0259 -0.1384
  248MOL   H12230256   7.720   8.061   6.171 -1.0565  0.6048  0.3427
  249MOL     C130257   1.980   1.988   6.018 -0.2710 -0.0704  0.1788
  249MOL     C230258   1.925   2.127   5.983  0.3243 -0.2817  0.5001
  249MOL    Cl330259   1.986   2.238   6.106 -0.2578 -0.1103 -0.1316
  249MOL     H430260   1.941   1.907   5.956 -0.5062  0.5134 -0.4464
  249MOL     H530261   2.087   1.993   5.998  0.0128  1.3649  1.9638
  249MOL     H630262   1.963   2.159   5.886  0.6756 -2.7238 -0.1917
  249MOL     H730263   1.956   1.958   6.120 -0.7086  0.1098  0.1325
  249MOL     C830264   1.773   2.126   5.971  0.4286 -0.3412  1.1355
  249MOL     C930265   1.719   2.065   5.839  0.2044 -0.0724  0.6165
  249MOL   Cl1030266   1.727   2.201   5.726 -0.1388 -0.5763  0.4100
  249MOL    H1130267   1.736   2.227   5.987  0.3340 -0.2490  0.3735
  249MOL    H1230268   1.741   2.074   6.061 -0.1248  0.3895  1.3601
  249MOL    H1330269   1.781   1.982   5.805 -0.7132 -0.1023 -1.0174
  249MOL    C1430270   1.573   2.034   5.855  0.0394 -0.1480 -0.4384
  249MOL    C1530271   1.495   1.989   5.730  0.2753 -0.0707  0.8558
  249MOL   Cl1630272   1.579   1.860   5.638 -0.1285 -0.0825  0.2083
  249MOL    H1730273   1.521   2.102   5.921  1.2150 -0.7252  1.1312
  249MOL    H1830274   1.572   1.945   5.919 -0.0114 -0.2396 -0.5665
  249MOL    H1930275   1.401   1.942   5.759 -0.2212  0.5597  0.2666
  249MOL    C2030276   1.442   2.103   5.646  0.1366  0.0405  0.8072
  249MOL    C2130277   1.302   2.087   5.590  0.4142  0.6050  0.1854
  249MOL   Cl2230278   1.186   2.078   5.727 -0.3363 -0.0138 -0.1063
  249MOL    H2330279   1.517   2.109   5.568  2.0605 -0.4117  2.5746
  249MOL    H2430280   1.455   2.199   5.696  1.1379 -0.9920  2.6175
  249MOL    H2530281   1.285   2.189   5.555 -0.9849  0.6386  0.9240
  249MOL    C2630282   1.287   1.971   5.498  0.1861 -0.0782  0.4151
  249MOL    C2730283   1.170   1.985   5.398  0.2749 -0.2215 -0.7608
  249MOL   Cl2830284   1.189   2.127   5.292 -0.2379  0.3382 -0.2889
  249MOL    H2930285   1.280   1.875   5.549 -0.2795 -0.4759 -0.3967
  249MOL    H3030286   1.379   1.959   5.441 -0.0290 -2.9159  0.6092
  249MOL    H3130287   1.183   1.897   5.335  0.6014 -1.0909  0.5177
  249MOL    C3230288   1.030   1.991   5.450 -0.1304 -0.3216 -0.1764
  249MOL    C3330289   0.990   1.857   5.518  0.5348 -1.2372  0.3120
  249MOL   Cl3430290   0.960   1.730   5.391  0.0784 -0.0403 -0.2428
  249MOL    H3530291   0.964   2.016   5.367  0.1668 -0.1472 -0.3580
  249MOL    H3630292   1.015   2.080   5.512  1.2604 -0.5494  0.5109
  249MOL    H3730293   1.058   1.804   5.584 -0.6036 -1.6838  1.1420
  249MOL    C3830294   0.845   1.875   5.589 -0.1027  0.1085 -1.0724
  249MOL    C3930295   0.832   1.978   5.693  0.6618 -0.4700  1.0678
  249MOL   Cl4030296   0.744   1.900   5.827 -0.2500 -0.1921 -0.3415
  249MOL    H4130297   0.791   1.783   5.611 -0.7886  0.2898 -1.9881
  249MOL    H4230298   0.775   1.901   5.510 -3.4557 -1.3530  1.3407
  249MOL    H4330299   0.933   1.998   5.731  0.6900  0.8242  0.3225
  249MOL    C4430300   0.748   2.096   5.654  0.1517 -0.2452  0.5028
  249MOL    C4530301   0.751   2.207   5.758  0.0706 -0.7767  0.3425
  249MOL   Cl4630302   0.631   2.319   5.683 -0.2231 -0.1249 -0.1348
  249MOL    H4730303   0.646   2.074   5.623 -0.6699  0.0324  2.9055
  249MOL    H4830304   0.785   2.142   5.562  0.9712 -2.3282 -0.2395
  249MOL    H4930305   0.710   2.180   5.855  1.3140  1.2389  1.4705
  249MOL    C5030306   0.891   2.273   5.766 -0.2202 -0.7068  0.3306
  249MOL    C5130307   0.907   2.399   5.862 -0.2242  0.0025  0.0524
  249MOL   Cl5230308   1.057   2.471   5.800 -0.2117 -0.2426  0.0046
  249MOL    H5330309   0.937   2.296   5.670  0.4353  0.8273  0.9884
  249MOL    H5430310   0.960   2.196   5.803  0.3007 -0.5984 -0.3942
  249MOL    H5530311   0.830   2.475   5.842  1.5513  1.6815 -0.5551
  249MOL    C5630312   0.928   2.367   6.009 -0.3208  0.6322  0.3126
  249MOL    C5730313   0.957   2.488   6.101 -0.0700  0.4327 -0.3179
  249MOL   Cl5830314   0.970   2.418   6.265 -0.0323  0.0111 -0.1046
  249MOL    H5930315   1.014   2.300   6.007 -0.7575  0.0815 -0.6450
  249MOL    H6030316   0.848   2.310   6.055 -0.4662  1.2589  0.8492
  249MOL    H6130317   1.044   2.547   6.073  0.8069  0.2399  1.9377
  249MOL    C6230318   0.827   2.577   6.117  0.3828  0.0798 -0.6404
  249MOL    C6330319   0.836   2.699   6.215  0.2933  0.0118  0.6775
  249MOL   Cl6430320   0.683   2.686   6.315 -0.1096 -0.2842 -0.0735
  249MOL    H6530321   0.747   2.513   6.154 -1.0726  0.3048 -3.3011
  249MOL    H6630322   0.783   2.613   6.024  1.4624  0.1472 -1.1358
  249MOL    H6730323   0.913   2.685   6.292 -0.3122 -1.1013  1.0972
  249MOL    C6830324   0.853   2.835   6.138 -0.3600 -0.1859 -0.4273
  249MOL    C6930325   0.838   2.959   6.224  0.0381  0.3900 -0.3669
  249MOL   Cl7030326   0.954   2.964   6.360  0.0740  0.1265 -0.4319
  249MOL    H7130327   0.796   2.842   6.046  0.9158 -1.6844 -1.3623
  249MOL    H7230328   0.959   2.830   6.112  0.2476  0.2523  1.8118
  249MOL    H7330329   0.877   3.041   6.165  0.1122  0.6471  0.0337
  249MOL    C7430330   0.698   2.998   6.266 -0.5313 -0.2479 -0.0316
  249MOL    C7530331   0.589   2.999   6.158 -0.3058 -0.0152  0.2167
  249MOL   Cl7630332   0.631   3.129   6.045  0.0526  0.2539 -0.4159
  249MOL    H7730333   0.702   3.100   6.304 -0.8440 -0.6809  1.1704
  249MOL    H7830334   0.667   2.932   6.347  0.6896  1.1118  1.5898
  249MOL    H7930335   0.588   2.905   6.102 -0.3893 -1.3937  2.4717
  249MOL    C8030336   0.441   3.012   6.198 -0.1157  0.1106 -0.0711
  249MOL    C8130337   0.406   3.144   6.275 -1.0852  0.2885 -0.0800
  249MOL   Cl8230338   0.385   3.112   6.447  0.2158  0.1767  0.0864
  249MOL    H8330339   0.399   2.920   6.237 -0.0455 -0.6957 -1.8394
  249MOL    H8430340   0.392   3.018   6.101 -1.6772  0.8337  0.7372
  249MOL    H8530341   0.486   3.217   6.260 -1.4438  0.4105 -1.4896
  249MOL    C8630342   0.269   3.205   6.223  0.5546  0.0316  0.2465
  249MOL    C8730343   0.278   3.266   6.076  0.2355  0.5537 -1.0511
  249MOL   Cl8830344   0.381   3.413   6.084 -0.2374  0.0065  0.4529
  249MOL    H8930345   0.254   3.295   6.281  0.7416  0.3911 -0.2577
  249MOL    H9030346   0.186   3.139   6.248 -0.1734  0.5710 -0.6987
  249MOL    H9130347   0.332   3.197   6.011  0.0218  2.0060 -2.7981
  249MOL    C9230348   0.137   3.303   6.024  0.1716 -0.4170 -0.0441
  249MOL    C9330349   0.041   3.181   6.004 -0.9820  0.3079 -0.3215
  249MOL   Cl9430350   0.111   3.066   5.886  0.3692  0.0650  0.1339
  249MOL    H9530351   0.148   3.359   5.931  0.9284  0.2272  0.4222
  249MOL    H9630352   0.094   3.382   6.086 -0.4376 -2.0075  1.5893
  249MOL    H9730353   0.027   3.137   6.102 -0.8438  0.2076 -0.3472
  249MOL    C9830354   8.424   3.226   5.957 -0.1156 -0.0299 -0.2025
  249MOL    C9930355   8.302   3.132   5.990 -0.2183  0.2181  0.6948
  249MOL  Cl10030356   8.292   2.984   5.888 -0.2408 -0.0859  0.2926
  249MOL   H10130357   8.425   3.263   5.854 -0.8578 -0.0033 -0.2061
  249MOL   H10230358   8.403   3.319   6.010 -0.6077 -0.0700 -0.3281
  249MOL   H10330359   8.307   3.098   6.094 -2.0913 -1.0372  0.4042
  249MOL   C10430360   8.167   3.204   5.964 -0.5023  0.7005  0.6391
  249MOL   C10530361   8.121   3.306   6.073 -0.1322  0.4035 -0.1538
  249MOL  Cl10630362   8.059   3.225   6.220 -0.0773 -0.2443  0.0477
  249MOL   H10730363   8.094   3.124   5.948  1.1667 -0.2822 -2.6576
  249MOL   H10830364   8.179   3.256   5.869 -1.1642 -3.4284 -1.8244
  249MOL   H10930365   8.210   3.361   6.103 -0.3920  0.0829  1.2409
  249MOL   C11030366   8.026   3.411   6.014 -0.2666  0.1575  0.5545
  249MOL   C11130367   7.985   3.522   6.114 -0.1581  0.3354  0.1356
  249MOL  Cl11230368   7.880   3.634   6.011 -0.1388  0.0141 -0.2465
  249MOL   H11330369   7.936   3.370   5.971 -2.0216  2.5455  1.8239
  249MOL   H11430370   8.081   3.456   5.931 -0.4882 -0.1001  0.2695
  249MOL   H11530371   7.935   3.468   6.194  0.7557 -2.8989 -1.4033
  249MOL   C11630372   8.103   3.605   6.189  0.5416 -0.2700  0.0993
  249MOL   C11730373   8.036   3.701   6.289  0.2001  0.0957 -0.3166
  249MOL  Cl11830374   8.159   3.778   6.390  0.6202  0.2059 -0.3228
  249MOL   H11930375   8.144   3.663   6.107 -2.3357 -1.3684 -2.1836
  249MOL   H12030376   8.182   3.543   6.232  0.6958  1.4330  2.3794
  249MOL   H12130377   7.968   3.777   6.252  1.6050  1.3360 -0.3976
  249MOL   H12230378   7.971   3.653   6.362  0.5709  2.2326  1.4446
  250MOL     C130379   7.332   2.525   2.459  0.3260  0.2156  0.6164
  250MOL     C230380   7.477   2.568   2.434  0.4461 -0.6174 -0.0069
  250MOL    Cl330381   7.580   2.435   2.364  0.0441 -0.3734  0.3991
  250MOL     H430382   7.327   2.432   2.517  0.2446 -0.5416 -0.5922
  250MOL     H530383   7.277   2.610   2.499  1.6576  1.5194 -0.2814
  250MOL     H630384   7.485   2.640   2.352  0.2669  0.1934  0.6865
  250MOL     H730385   7.290   2.507   2.360  0.9671 -2.0113  0.7328
  250MOL     C830386   7.546   2.602   2.565  0.0448 -0.6950  0.1344
  250MOL     C930387   7.498   2.730   2.636 -0.1519 -0.0186  0.4702
  250MOL   Cl1030388   7.466   2.862   2.527 -0.4745  0.0710 -0.0560
  250MOL    H1130389   7.653   2.617   2.555  0.5877 -1.8362  3.6716
  250MOL    H1230390   7.539   2.513   2.627  0.9093 -0.6649  0.2752
  250MOL    H1330391   7.403   2.707   2.685  0.3958  0.4260  1.7610
  250MOL    C1430392   7.601   2.792   2.740  0.2521 -0.5230 -0.7548
  250MOL    C1530393   7.620   2.716   2.876 -0.0125 -0.1685 -0.0764
  250MOL   Cl1630394   7.705   2.566   2.842  0.0788  0.1555  0.1154
  250MOL    H1730395   7.572   2.892   2.771  2.7366 -0.1892  0.5702
  250MOL    H1830396   7.696   2.814   2.692  0.7579  0.7225  0.7580
  250MOL    H1930397   7.681   2.784   2.936 -0.9454 -0.3568  1.1107
  250MOL    C2030398   7.486   2.695   2.947 -0.4948 -0.1130  0.0929
  250MOL    C2130399   7.480   2.681   3.107 -0.1767  0.4396  0.4002
  250MOL   Cl2230400   7.539   2.829   3.187 -0.0360 -0.0845  0.1667
  250MOL    H2330401   7.441   2.606   2.904  0.6556 -0.3987 -0.5402
  250MOL    H2430402   7.413   2.768   2.913  1.7312  0.8631 -2.7902
  250MOL    H2530403   7.374   2.667   3.124 -0.0206  0.6995  1.6325
  250MOL    C2630404   7.552   2.555   3.168 -1.0849  0.2329 -0.4376
  250MOL    C2730405   7.497   2.416   3.118 -0.0982 -0.4566  0.2961
  250MOL   Cl2830406   7.326   2.407   3.164 -0.1355  0.2036  0.0589
  250MOL    H2930407   7.530   2.563   3.274  0.9540 -0.3847  0.0648
  250MOL    H3030408   7.659   2.577   3.162 -0.9734 -0.0960  0.3034
  250MOL    H3130409   7.499   2.424   3.009 -0.9351 -0.7653  0.2559
  250MOL    C3230410   7.576   2.294   3.166  0.0258  0.0510 -1.4104
  250MOL    C3330411   7.727   2.315   3.147  0.6884 -0.6739  0.0021
  250MOL   Cl3430412   7.798   2.168   3.077  0.2378 -0.5472  0.0329
  250MOL    H3530413   7.553   2.200   3.116  1.0068 -0.8642 -0.1741
  250MOL    H3630414   7.557   2.272   3.271 -0.1353 -0.2063 -1.4927
  250MOL    H3730415   7.741   2.384   3.064  0.4884 -0.0783  0.4649
  250MOL    C3830416   7.813   2.344   3.272 -0.0940  0.2624 -0.0499
  250MOL    C3930417   7.958   2.378   3.251  0.4964  0.0066 -0.1364
  250MOL   Cl4030418   8.033   2.357   3.403 -0.0727  0.0976  0.1853
  250MOL    H4130419   7.813   2.253   3.332  1.5920 -0.1736 -0.6676
  250MOL    H4230420   7.765   2.414   3.340  1.6341 -1.1827  2.7627
  250MOL    H4330421   7.996   2.302   3.182 -0.0429  0.5038 -0.9909
  250MOL    C4430422   7.982   2.514   3.178 -0.1515 -0.0490 -0.1085
  250MOL    C4530423   8.129   2.548   3.133 -0.2768  0.1112 -0.7025
  250MOL   Cl4630424   8.223   2.620   3.261 -0.6129  0.0644  0.3930
  250MOL    H4730425   7.943   2.591   3.244  0.9699  1.5188 -1.2495
  250MOL    H4830426   7.913   2.511   3.093 -1.0034 -1.2045  0.6061
  250MOL    H4930427   8.182   2.457   3.108 -1.3627 -1.1808  1.5308
  250MOL    C5030428   8.129   2.638   3.001 -0.2086  0.5436 -0.4126
  250MOL    C5130429   8.034   2.762   2.991 -0.6543 -0.3955  0.3413
  250MOL   Cl5230430   8.039   2.810   2.822 -0.0009 -0.0542 -0.0355
  250MOL    H5330431   8.106   2.573   2.917  0.2093 -0.5258  0.2877
  250MOL    H5430432   8.230   2.672   2.978  0.1146  0.4937  0.8943
  250MOL    H5530433   7.930   2.741   3.019 -0.7315 -0.1774  0.2271
  250MOL    C5630434   8.099   2.884   3.064  0.4313 -0.0299 -0.1248
  250MOL    C5730435   8.048   2.906   3.208  0.1033 -0.6920  0.0920
  250MOL   Cl5830436   7.876   2.944   3.196  0.3411 -0.2964  0.1686
  250MOL    H5930437   8.075   2.971   3.003  0.6993  0.9290  1.1154
  250MOL    H6030438   8.207   2.888   3.058  0.3740 -0.0707 -1.4667
  250MOL    H6130439   8.042   2.816   3.269  2.5875 -0.3997  0.8327
  250MOL    C6230440   8.123   3.016   3.278  0.0361  0.7598  0.3667
  250MOL    C6330441   8.064   3.039   3.424 -0.2294 -0.2292  0.1904
  250MOL   Cl6430442   8.152   3.177   3.477  0.0599 -0.0949 -0.0781
  250MOL    H6530443   8.104   3.110   3.227  0.5448  1.3087  1.1706
  250MOL    H6630444   8.230   3.001   3.266 -0.1153  0.9027 -1.2571
  250MOL    H6730445   7.959   3.068   3.432 -0.2323  0.5671 -2.3818
  250MOL    C6830446   8.102   2.916   3.506 -0.1466  0.5783  0.4960
  250MOL    C6930447   8.085   2.927   3.659 -0.4319 -0.1821 -0.4085
  250MOL   Cl7030448   8.196   2.814   3.741 -0.2269  0.7018  0.0793
  250MOL    H7130449   8.206   2.890   3.489  0.1723  0.9845  1.7315
  250MOL    H7230450   8.051   2.826   3.473 -0.3472  0.8943 -0.0608
  250MOL    H7330451   8.118   3.024   3.696 -0.1211 -0.3584 -0.2276
  250MOL    C7430452   7.947   2.882   3.713  0.6273 -0.3337 -0.5942
  250MOL    C7530453   7.829   2.982   3.667  0.1358 -0.0332 -0.4142
  250MOL   Cl7630454   7.880   3.159   3.691  0.2107  0.5124  0.1091
  250MOL    H7730455   7.945   2.874   3.822  0.4986  1.7339 -0.4269
  250MOL    H7830456   7.939   2.780   3.675  0.7345 -0.8506  0.7336
  250MOL    H7930457   7.809   2.973   3.560  2.5238 -0.6001 -0.8542
  250MOL    C8030458   7.690   2.957   3.734  0.3248 -0.2182 -0.1647
  250MOL    C8130459   7.648   2.808   3.749 -0.0747 -0.1712  0.1405
  250MOL   Cl8230460   7.644   2.741   3.583  0.0098 -0.1316  0.0225
  250MOL    H8330461   7.616   3.000   3.667 -1.1893 -2.0545  0.2682
  250MOL    H8430462   7.674   3.008   3.829  0.8200  0.4138 -0.4134
  250MOL    H8530463   7.726   2.759   3.807  1.0543  0.5904 -0.7177
  250MOL    C8630464   7.507   2.777   3.800  0.1530 -0.8209 -0.4397
  250MOL    C8730465   7.477   2.860   3.929  0.2274  0.2773 -0.0001
  250MOL   Cl8830466   7.592   2.796   4.048 -0.0459  0.4825 -0.2001
  250MOL    H8930467   7.493   2.670   3.820 -2.0255 -0.6642 -1.1059
  250MOL    H9030468   7.432   2.808   3.727 -1.6442 -1.1408  1.2366
  250MOL    H9130469   7.485   2.969   3.924 -3.9318  0.6450  0.1931
  250MOL    C9230470   7.338   2.828   3.995  0.0446 -0.8450  0.0483
  250MOL    C9330471   7.210   2.875   3.922  0.3046  0.8165  0.1678
  250MOL   Cl9430472   7.148   2.746   3.809 -0.3827 -0.2668 -0.2461
  250MOL    H9530473   7.342   2.866   4.097 -0.5389 -2.7766  0.8195
  250MOL    H9630474   7.336   2.720   4.009  1.9389 -1.0605 -1.1095
  250MOL    H9730475   7.128   2.868   3.994  0.5540 -2.8052  0.2324
  250MOL    C9830476   7.207   3.014   3.851 -0.2159 -0.1158 -0.3835
  250MOL    C9930477   7.087   3.092   3.905 -0.0536 -0.4347  0.1673
  250MOL  Cl10030478   7.111   3.121   4.078  0.0066 -0.0923 -0.0348
  250MOL   H10130479   7.202   3.005   3.743 -2.3889  1.3197 -0.4450
  250MOL   H10230480   7.291   3.076   3.883 -0.7418  1.0550 -1.2257
  250MOL   H10330481   7.094   3.189   3.856  1.3448 -0.9625 -0.6937
  250MOL   C10430482   6.948   3.027   3.881  0.0465  0.1034 -0.1423
  250MOL   C10530483   6.828   3.101   3.932  0.1107 -0.2936  0.2424
  250MOL  Cl10630484   6.685   3.002   3.911  0.0164 -0.0131  0.1704
  250MOL   H10730485   6.950   2.925   3.920  1.7152 -0.3912 -1.4425
  250MOL   H10830486   6.942   3.010   3.774 -0.5113 -3.2722  0.3621
  250MOL   H10930487   6.844   3.119   4.038 -3.1801  2.6366  0.3362
  250MOL   C11030488   6.806   3.243   3.859  0.4997  0.7151 -0.3721
  250MOL   C11130489   6.727   3.336   3.946  0.0868  0.4334  0.4714
  250MOL  Cl11230490   6.613   3.425   3.846  0.0985  0.2897  0.0414
  250MOL   H11330491   6.753   3.222   3.767  0.1588 -0.6534  0.1155
  250MOL   H11430492   6.906   3.275   3.829  1.1287 -1.0969 -0.2895
  250MOL   H11530493   6.672   3.274   4.017  0.9505  2.0343  2.6188
  250MOL   C11630494   6.818   3.427   4.034  0.0936  0.0480  0.7635
  250MOL   C11730495   6.728   3.503   4.135 -0.1131 -0.1943  0.5249
  250MOL  Cl11830496   6.815   3.628   4.227  0.1360 -0.2353  0.0117
  250MOL   H11930497   6.870   3.489   3.961 -0.8386  1.3106  1.1522
  250MOL   H12030498   6.895   3.361   4.074 -1.2477 -1.1884  1.3422
  250MOL   H12130499   6.642   3.552   4.089  0.6477 -0.9467 -1.7603
  250MOL   H12230500   6.677   3.433   4.201 -2.1439 -1.5143 -2.3480
  251MOL     C130501   2.107   3.974   7.950  0.2029 -1.4681 -0.4519
  251MOL     C230502   1.991   4.071   7.933 -0.0387 -0.0511  0.0730
  251MOL    Cl330503   1.880   3.987   7.820  0.0235  0.3678 -0.0295
  251MOL     H430504   2.077   3.870   7.965 -0.4057 -1.6237 -2.5023
  251MOL     H530505   2.152   3.978   7.851  3.5737 -0.2364  1.0635
  251MOL     H630506   1.934   4.080   8.025  1.6349  0.6207  1.0530
  251MOL     H730507   2.179   3.990   8.030 -0.0545 -0.4277 -0.4201
  251MOL     C830508   2.023   4.215   7.889  0.2169  0.3450  0.4590
  251MOL     C930509   2.066   4.309   8.000 -1.1018  0.3407  0.4741
  251MOL   Cl1030510   2.239   4.301   8.039 -0.5720  0.5592 -0.1908
  251MOL    H1130511   1.934   4.262   7.848  1.2409  2.5911  0.7787
  251MOL    H1230512   2.096   4.210   7.807 -2.9242  3.4317 -2.6800
  251MOL    H1330513   2.068   4.411   7.962  0.9331  0.0808 -0.1716
  251MOL    C1430514   1.976   4.308   8.122 -0.0276 -0.3278  0.4117
  251MOL    C1530515   1.826   4.329   8.099 -0.2143  1.1654  0.0287
  251MOL   Cl1630516   1.808   4.476   7.997  0.4979  0.0317 -0.1686
  251MOL    H1730517   2.016   4.393   8.178  0.1049 -0.5818  0.7107
  251MOL    H1830518   1.994   4.214   8.175 -1.3972  0.2308  1.8980
  251MOL    H1930519   1.791   4.244   8.040  1.5407 -0.1394  0.8052
  251MOL    C2030520   1.746   4.346   8.225 -0.1917 -0.0950  0.9581
  251MOL    C2130521   1.766   4.229   8.322 -0.5829  0.5039  0.5900
  251MOL   Cl2230522   1.749   4.076   8.241 -0.5797 -0.1617 -0.2621
  251MOL    H2330523   1.641   4.339   8.197 -0.1015  2.8486 -0.3523
  251MOL    H2430524   1.774   4.437   8.278  2.4626  0.4684 -1.2903
  251MOL    H2530525   1.867   4.236   8.362 -0.3150  4.5740 -0.5808
  251MOL    C2630526   1.668   4.228   8.441 -0.1177 -0.6172 -0.0936
  251MOL    C2730527   1.674   4.351   0.011  0.4084  0.3813 -0.0593
  251MOL   Cl2830528   1.809   4.335   0.128 -0.0635  0.1822  0.0017
  251MOL    H2930529   1.676   4.138   8.502  2.9692 -0.1850  0.2154
  251MOL    H3030530   1.570   4.223   8.393  0.5397 -0.1345 -1.4901
  251MOL    H3130531   1.690   4.447   8.487 -0.1835 -0.4543 -1.9241
  251MOL    C3230532   1.551   4.376   0.087  0.0309  0.0899 -0.4659
  251MOL    C3330533   1.537   4.511   0.153 -0.5178 -0.4435 -0.1392
  251MOL   Cl3430534   1.411   4.494   0.270  0.2507 -0.4190  0.5508
  251MOL    H3530535   1.525   4.297   0.157  0.6810 -0.2817 -0.6338
  251MOL    H3630536   1.465   4.367   0.021 -1.7819  0.7050  1.7331
  251MOL    H3730537   1.621   4.543   0.215 -1.8992  1.5634  0.7380
  251MOL    C3830538   1.501   4.629   0.062  0.0344 -0.1022 -0.5040
  251MOL    C3930539   1.501   4.767   0.126 -0.2128  0.1530 -0.2708
  251MOL   Cl4030540   1.414   4.876   0.025 -0.3527 -0.0514 -0.2451
  251MOL    H4130541   1.403   4.612   0.019 -0.9793 -0.3999  1.8314
  251MOL    H4230542   1.556   4.628   8.494  1.3611 -0.8072  0.2643
  251MOL    H4330543   1.447   4.767   0.220  0.2518  0.3494 -0.0026
  251MOL    C4430544   1.639   4.820   0.157  1.0894  0.1010  0.1559
  251MOL    C4530545   1.742   4.835   0.027  0.0108  0.3863 -0.8525
  251MOL   Cl4630546   1.825   4.681   8.523 -0.1586  0.0830 -0.5051
  251MOL    H4730547   1.675   4.753   0.235 -1.0355 -1.3257 -0.0392
  251MOL    H4830548   1.622   4.917   0.203 -0.6107  0.1050 -0.4097
  251MOL    H4930549   1.691   4.852   8.458  0.5685  1.4041 -0.9769
  251MOL    C5030550   1.855   4.938   0.059  0.3105  0.5929  0.0090
  251MOL    C5130551   1.805   5.085   0.067 -0.4094 -0.4048 -0.0998
  251MOL   Cl5230552   1.814   5.151   8.428  0.4709  0.2436  0.4827
  251MOL    H5330553   1.941   4.925   8.519 -0.1143  0.2605 -0.4909
  251MOL    H5430554   1.902   4.925   0.157 -0.4089 -0.2482  0.2481
  251MOL    H5530555   1.702   5.097   0.102 -0.0700  1.0264  0.4398
  251MOL    C5630556   1.897   5.171   0.162  0.1095 -0.1855 -0.0000
  251MOL    C5730557   1.884   5.142   0.311 -0.1485 -0.6524  0.0908
  251MOL   Cl5830558   1.728   5.211   0.366  0.0845  0.4253 -0.2912
  251MOL    H5930559   1.882   5.277   0.143  1.2887 -0.2934 -1.6148
  251MOL    H6030560   1.994   5.138   0.125  0.8122  0.6302  1.0637
  251MOL    H6130561   1.876   5.038   0.341 -3.7641 -0.2197  0.8138
  251MOL    C6230562   1.999   5.216   0.385  0.5271  0.2408  0.6852
  251MOL    C6330563   2.131   5.139   0.365 -0.0791 -0.5074 -0.6476
  251MOL   Cl6430564   2.116   4.964   0.397  0.0659 -0.4391  0.2669
  251MOL    H6530565   1.984   5.221   0.493  3.6870 -0.7055  1.2007
  251MOL    H6630566   1.998   5.322   0.358  0.2074  0.0840  0.0800
  251MOL    H6730567   2.157   5.134   0.259 -1.9804 -2.1786 -1.0734
  251MOL    C6830568   2.244   5.203   0.447  0.1959  0.3861 -0.6680
  251MOL    C6930569   2.292   5.335   0.406 -0.2382 -0.7638  0.9275
  251MOL   Cl7030570   2.347   5.342   0.240 -0.0353  0.4103  0.1248
  251MOL    H7130571   2.324   5.128   0.453 -0.5731 -0.4925 -1.3100
  251MOL    H7230572   2.213   5.208   0.551 -0.4374 -1.5381 -0.7462
  251MOL    H7330573   2.205   5.401   0.410  0.5568  0.5020 -1.7490
  251MOL    C7430574   2.397   5.385   0.503  1.1459  0.2760  0.2213
  251MOL    C7530575   2.420   5.533   0.502 -0.0837 -0.8435 -0.3994
  251MOL   Cl7630576   2.278   5.609   0.570  0.2281  0.0599  0.0553
  251MOL    H7730577   2.486   5.326   0.483  0.4338 -0.5055 -0.6452
  251MOL    H7830578   2.356   5.369   0.603  0.0689  1.2764 -0.0483
  251MOL    H7930579   2.499   5.553   0.575  0.3173 -0.1200 -1.0222
  251MOL    C8030580   2.455   5.612   0.372 -0.9043 -0.3902 -0.0873
  251MOL    C8130581   2.589   5.570   0.311 -0.4768 -0.0791  0.1599
  251MOL   Cl8230582   2.713   5.623   0.417 -0.1404  0.1561  0.4169
  251MOL    H8330583   2.458   5.719   0.391  0.1122 -0.3856 -0.2546
  251MOL    H8430584   2.377   5.587   0.300 -1.0931  0.0176 -0.0245
  251MOL    H8530585   2.593   5.461   0.321 -3.7433 -0.4743 -1.9707
  251MOL    C8630586   2.614   5.622   0.166 -0.8169 -0.5727  0.3516
  251MOL    C8730587   2.530   5.556   0.049 -0.2160  0.1298 -0.6999
  251MOL   Cl8830588   2.623   5.401   0.013 -0.0400  0.2399 -0.0066
  251MOL    H8930589   2.721   5.629   0.145 -1.2967 -1.6245 -2.7187
  251MOL    H9030590   2.584   5.726   0.168  0.1506 -0.2830  0.1266
  251MOL    H9130591   2.435   5.520   0.088 -0.6782  0.7660 -1.2302
  251MOL    C9230592   2.515   5.641   8.444  0.3921  0.0614  0.3366
  251MOL    C9330593   2.374   5.636   8.388  0.3683  0.1691 -0.0291
  251MOL   Cl9430594   2.257   5.699   8.500 -0.2655 -0.2713 -0.0289
  251MOL    H9530595   2.589   5.605   8.371 -0.2066  1.5035 -1.0106
  251MOL    H9630596   2.541   5.743   8.474 -0.1641 -0.6870  3.5375
  251MOL    H9730597   2.362   5.702   8.302 -1.2235 -1.3205 -0.9694
  251MOL    C9830598   2.324   5.494   8.346  0.6538 -0.3391 -0.5609
  251MOL    C9930599   2.386   5.438   8.214  0.5067 -0.0236 -0.1253
  251MOL  Cl10030600   2.295   5.503   8.073  0.0424 -0.2535  0.0282
  251MOL   H10130601   2.216   5.503   8.330  1.1780  0.2165 -4.2887
  251MOL   H10230602   2.333   5.418   8.423 -0.9472 -2.7611 -2.6710
  251MOL   H10330603   2.489   5.471   8.207  0.6744 -0.6936 -0.8859
  251MOL   C10430604   2.382   5.281   8.196  0.4113 -0.0711  0.0198
  251MOL   C10530605   2.466   5.195   8.294  0.1489  0.1295  0.2160
  251MOL  Cl10630606   2.630   5.213   8.251 -0.0495 -0.2704  0.1622
  251MOL   H10730607   2.401   5.247   8.094  0.1865 -1.7777  0.5400
  251MOL   H10830608   2.278   5.251   8.201  1.0008 -1.8904  1.9813
  251MOL   H10930609   2.449   5.232   8.395 -2.3035 -0.7815  0.1627
  251MOL   C11030610   2.431   5.048   8.302  0.0100  0.2615  0.0977
  251MOL   C11130611   2.287   5.011   8.349  0.1234 -0.2401 -0.0082
  251MOL  Cl11230612   2.233   5.105   8.484  0.0959 -0.3099 -0.2487
  251MOL   H11330613   2.499   5.019   8.381  1.8165  2.0875 -0.7414
  251MOL   H11430614   2.461   5.001   8.208 -0.8374 -2.3590  1.1080
  251MOL   H11530615   2.224   5.036   8.264  1.3515 -0.3054 -0.9591
  251MOL   C11630616   2.253   4.867   8.383  0.3664  0.1076  0.3986
  251MOL   C11730617   2.257   4.762   8.274  0.1937 -0.9380  0.2066
  251MOL  Cl11830618   2.260   4.599   8.342 -0.1279 -0.2206  0.0459
  251MOL   H11930619   2.148   4.861   8.413 -0.1444  0.3261 -1.3013
  251MOL   H12030620   2.321   4.837   8.462 -1.0568 -0.5111  1.4257
  251MOL   H12130621   2.173   4.775   8.205  3.2449  2.0909 -3.1448
  251MOL   H12230622   2.347   4.792   8.221 -0.7285  0.7388 -0.4694
  252MOL     C130623   2.729   1.557   7.221  0.3192 -0.2674  0.3136
  252MOL     C230624   2.840   1.512   7.322  0.7597 -0.8136  0.0533
  252MOL    Cl330625   2.933   1.652   7.388 -0.2023 -0.1083 -0.0807
  252MOL     H430626   2.673   1.643   7.257 -1.7152 -0.6066 -1.9174
  252MOL     H530627   2.774   1.567   7.122  2.9748 -0.0006  1.5037
  252MOL     H630628   2.787   1.470   7.408 -0.0457  0.4709  0.1980
  252MOL     H730629   2.655   1.478   7.210 -1.4154  1.5370 -1.1776
  252MOL     C830630   2.943   1.419   7.265 -0.0196  0.6428  0.3786
  252MOL     C930631   2.890   1.281   7.214  0.7333  0.5760  0.3795
  252MOL   Cl1030632   2.794   1.195   7.337 -0.2587 -0.4202  0.3053
  252MOL    H1130633   3.018   1.398   7.341  0.3624 -0.3040 -0.2457
  252MOL    H1230634   2.998   1.461   7.181 -0.3511 -0.0446 -0.1857
  252MOL    H1330635   2.819   1.289   7.132  0.4355 -2.7571  0.2408
  252MOL    C1430636   3.008   1.189   7.171  0.4466 -0.0251  0.6680
  252MOL    C1530637   3.103   1.252   7.058  0.2208 -0.0373  0.0634
  252MOL   Cl1630638   3.007   1.318   6.930  0.0338  0.0163  0.2186
  252MOL    H1730639   2.973   1.094   7.131 -2.7693  0.9282  1.0527
  252MOL    H1830640   3.071   1.167   7.257  0.7041 -2.7416 -0.1551
  252MOL    H1930641   3.167   1.330   7.098  1.1139 -0.7345  0.0122
  252MOL    C2030642   3.208   1.152   7.001  0.7292  0.5898  0.0544
  252MOL    C2130643   3.308   1.106   7.104 -0.1644  0.2417 -0.9255
  252MOL   Cl2230644   3.383   1.244   7.204  0.0946  0.2929 -0.1462
  252MOL    H2330645   3.255   1.192   6.911 -0.9289  2.1528 -0.1409
  252MOL    H2430646   3.155   1.065   6.963  0.9809  0.8871 -0.9856
  252MOL    H2530647   3.251   1.042   7.170  0.6263  1.3830  0.9322
  252MOL    C2630648   3.425   1.033   7.029 -0.7465 -0.0298 -0.5126
  252MOL    C2730649   3.533   0.970   7.113 -0.4825 -0.1222 -0.2611
  252MOL   Cl2830650   3.673   0.919   7.004  0.0287  0.2452  0.1438
  252MOL    H2930651   3.476   1.100   6.959 -2.4086 -0.0756 -1.8123
  252MOL    H3030652   3.388   0.957   6.960 -2.4786 -0.6325  1.0543
  252MOL    H3130653   3.568   1.045   7.184 -2.7469  2.0681 -1.3832
  252MOL    C3230654   3.470   0.846   7.185  0.4725  0.0388 -0.4008
  252MOL    C3330655   3.552   0.802   7.311  0.1565 -0.1649  0.1486
  252MOL   Cl3430656   3.519   0.636   7.352 -0.0741  0.5321  0.1133
  252MOL    H3530657   3.457   0.764   7.114 -3.2998  1.0319 -0.9748
  252MOL    H3630658   3.374   0.886   7.220  1.9151  2.3194  1.0697
  252MOL    H3730659   3.658   0.803   7.288 -0.0169  1.7533 -0.7591
  252MOL    C3830660   3.515   0.895   7.432  0.0468  0.7628  0.3877
  252MOL    C3930661   3.617   0.913   7.546 -0.2007 -0.1596 -0.2779
  252MOL   Cl4030662   3.763   0.987   7.474 -0.4356  0.0107  0.1031
  252MOL    H4130663   3.421   0.856   7.471  0.1055  0.6326  0.3988
  252MOL    H4230664   3.495   0.995   7.394  0.4584  0.4031 -0.7845
  252MOL    H4330665   3.578   0.982   7.621 -0.4856 -2.3952  1.6931
  252MOL    C4430666   3.653   0.784   7.625 -0.0084  0.2448 -0.4803
  252MOL    C4530667   3.712   0.807   7.767  0.3667  0.3121 -0.0336
  252MOL   Cl4630668   3.588   0.885   7.858 -0.1469 -0.2354  0.2327
  252MOL    H4730669   3.708   0.714   7.563  0.1046  0.2569 -0.3926
  252MOL    H4830670   3.563   0.728   7.650 -0.0886  0.4815 -0.2380
  252MOL    H4930671   3.728   0.711   7.816  0.5045  1.4045  2.1230
  252MOL    C5030672   3.845   0.890   7.775  0.2398 -1.0578 -0.1670
  252MOL    C5130673   3.971   0.826   7.710 -0.5266  0.7972 -0.5842
  252MOL   Cl5230674   3.988   0.673   7.801  0.1903  0.2763 -0.1317
  252MOL    H5330675   3.858   0.922   7.878 -4.1135 -1.3534  0.5997
  252MOL    H5430676   3.842   0.983   7.719  0.5878 -1.7542 -1.3516
  252MOL    H5530677   3.956   0.803   7.605 -1.6808  2.4521 -0.7926
  252MOL    C5630678   4.100   0.905   7.742  0.2438  0.5112  0.3726
  252MOL    C5730679   4.232   0.843   7.692 -0.0146 -0.7830 -0.2791
  252MOL   Cl5830680   4.368   0.894   7.788 -0.2982 -0.4266 -0.3170
  252MOL    H5930681   4.097   0.917   7.851  0.4826 -0.3334  0.4741
  252MOL    H6030682   4.085   1.007   7.707 -2.1766 -0.0606 -0.3995
  252MOL    H6130683   4.218   0.735   7.692  0.1481 -0.8056  0.0346
  252MOL    C6230684   4.274   0.882   7.552  0.2185  0.1103  0.1695
  252MOL    C6330685   4.172   0.869   7.430  0.7997 -0.2548  0.4741
  252MOL   Cl6430686   4.160   0.693   7.386 -0.4429  0.5508  0.0114
  252MOL    H6530687   4.373   0.842   7.528  1.2634  1.9651  1.3217
  252MOL    H6630688   4.292   0.988   7.571 -1.3541  0.2631  0.8964
  252MOL    H6730689   4.081   0.916   7.468  1.2149  0.7976  0.1864
  252MOL    C6830690   4.216   0.941   7.302  0.3966 -0.2929 -0.1853
  252MOL    C6930691   4.128   0.942   7.175  0.1611  0.0583 -0.1310
  252MOL   Cl7030692   4.216   0.981   7.037  0.8897  0.2021 -0.2112
  252MOL    H7130693   4.306   0.892   7.265  0.4701  0.4561 -1.0107
  252MOL    H7230694   4.250   1.040   7.331  0.3564  0.1164 -1.4911
  252MOL    H7330695   4.103   0.839   7.149  1.2090 -0.5221  1.0816
  252MOL    C7430696   3.991   1.007   7.181 -0.5152  0.1061 -0.3308
  252MOL    C7530697   3.988   1.157   7.176 -0.2462 -0.2459  0.3299
  252MOL   Cl7630698   4.047   1.222   7.335 -0.3226 -0.2681  0.0501
  252MOL    H7730699   3.940   0.967   7.269 -0.0988  1.8218  0.7192
  252MOL    H7830700   3.937   0.967   7.095 -1.2374 -0.6773  0.4754
  252MOL    H7930701   4.048   1.199   7.095 -1.5378  1.5341  0.2508
  252MOL    C8030702   3.845   1.214   7.162  0.0609 -0.4020 -0.0294
  252MOL    C8130703   3.829   1.366   7.169 -0.3980  0.2541  0.3007
  252MOL   Cl8230704   3.660   1.416   7.125  0.2496  0.3002 -0.2455
  252MOL    H8330705   3.797   1.177   7.253  0.2567  1.1516  0.7116
  252MOL    H8430706   3.797   1.182   7.069 -1.3824 -1.1049  0.9259
  252MOL    H8530707   3.826   1.383   7.276 -1.9364  2.0124  0.0067
  252MOL    C8630708   3.927   1.465   7.097  0.6267 -0.0486  0.0101
  252MOL    C8730709   3.913   1.482   6.944  0.2094  0.2218 -0.1348
  252MOL   Cl8830710   3.930   1.312   6.869 -0.3459  0.4932  0.6613
  252MOL    H8930711   4.033   1.446   7.114  0.7337  1.9317  1.7375
  252MOL    H9030712   3.913   1.557   7.153 -1.7591 -0.2358 -0.2409
  252MOL    H9130713   3.810   1.516   6.933  0.1504  0.9244  2.1810
  252MOL    C9230714   4.008   1.582   6.875  0.2480  0.2197  0.6017
  252MOL    C9330715   3.989   1.723   6.911 -0.0354  0.4418 -0.2195
  252MOL   Cl9430716   3.835   1.774   6.842 -0.2281  0.1982  0.0672
  252MOL    H9530717   4.001   1.568   6.767  0.2912 -0.7337  0.7209
  252MOL    H9630718   4.108   1.544   6.892  0.0804 -0.3968  0.1983
  252MOL    H9730719   3.975   1.743   7.018 -0.9251  0.7572 -0.3854
  252MOL    C9830720   4.098   1.820   6.855  0.0840  0.0474  0.0088
  252MOL    C9930721   4.237   1.785   6.902 -0.1811 -0.7626 -0.1211
  252MOL  Cl10030722   4.240   1.749   7.078  0.0731 -0.1620  0.0476
  252MOL   H10130723   4.069   1.922   6.882 -1.6026 -0.5650  0.5206
  252MOL   H10230724   4.105   1.803   6.748 -2.4886 -0.1145 -0.1656
  252MOL   H10330725   4.274   1.702   6.842 -0.1107 -1.2170  0.5419
  252MOL   C10430726   4.333   1.897   6.869 -0.4319 -0.5567 -0.5044
  252MOL   C10530727   4.475   1.890   6.942  0.6115  0.0485  0.1119
  252MOL  Cl10630728   4.553   2.045   6.895 -0.1738 -0.0908 -0.5723
  252MOL   H10730729   4.284   1.993   6.887  0.3731 -0.2103 -0.1704
  252MOL   H10830730   4.359   1.894   6.763  0.2132 -0.7305 -0.3435
  252MOL   H10930731   4.464   1.884   7.050  0.2982 -2.3903 -0.0234
  252MOL   C11030732   4.558   1.767   6.899  0.2066 -0.1991  0.3775
  252MOL   C11130733   4.692   1.748   6.963 -0.6230  0.1830  0.2598
  252MOL  Cl11230734   4.760   1.600   6.886 -0.5737  0.1643  0.0276
  252MOL   H11330735   4.569   1.772   6.790  0.8068 -1.5427  0.3680
  252MOL   H11430736   4.493   1.683   6.922  0.0982 -0.4852 -0.9147
  252MOL   H11530737   4.755   1.829   6.926  3.1781 -1.4140  2.8732
  252MOL   C11630738   4.697   1.723   7.120 -1.1082  0.7526 -0.6384
  252MOL   C11730739   4.805   1.787   7.198 -0.3931 -0.1861  0.1108
  252MOL  Cl11830740   4.760   1.951   7.242 -0.0023 -0.3261 -0.4037
  252MOL   H11930741   4.710   1.616   7.139  0.2652  0.9583 -0.3746
  252MOL   H12030742   4.603   1.757   7.162 -0.3221  0.3904  1.4896
  252MOL   H12130743   4.815   1.723   7.285 -0.2191 -0.0199  0.2145
  252MOL   H12230744   4.901   1.783   7.146  0.2719  0.0397  1.3038
  253MOL     C130745   1.814   1.182   7.857  0.8899 -0.0381 -0.9041
  253MOL     C230746   1.909   1.274   7.782  1.0260  0.3906  1.3234
  253MOL    Cl330747   1.977   1.202   7.640 -0.0881  0.2920 -0.3269
  253MOL     H430748   1.761   1.247   7.927 -0.1882  0.2340 -1.9647
  253MOL     H530749   1.743   1.140   7.787  0.7110 -0.5498 -0.4253
  253MOL     H630750   1.854   1.354   7.733  1.4624 -0.9885 -1.5259
  253MOL     H730751   1.860   1.111   7.927 -1.7292 -1.6597 -0.7750
  253MOL     C830752   2.018   1.330   7.878  0.1270  0.2423  0.5261
  253MOL     C930753   1.979   1.404   7.999  0.4117  0.6235  0.2941
  253MOL   Cl1030754   1.897   1.554   7.938 -0.0073 -0.0572  0.4227
  253MOL    H1130755   2.082   1.394   7.817 -0.3963  0.0560 -0.2241
  253MOL    H1230756   2.064   1.236   7.909  0.8642  0.3568 -0.1881
  253MOL    H1330757   1.909   1.345   8.058 -1.4734  0.8718 -1.6176
  253MOL    C1430758   2.097   1.444   8.093  0.1159 -0.3408 -0.7835
  253MOL    C1530759   2.166   1.334   8.176 -0.0185  0.1534  0.7020
  253MOL   Cl1630760   2.044   1.282   8.295  0.2834 -0.0323  0.3125
  253MOL    H1730761   2.058   1.509   8.171  0.9115  0.4697 -1.0537
  253MOL    H1830762   2.171   1.501   8.037  0.6352 -0.1152  0.1057
  253MOL    H1930763   2.195   1.252   8.110  3.2815  1.9114 -0.1450
  253MOL    C2030764   2.298   1.364   8.242  0.4751 -0.5380 -0.4797
  253MOL    C2130765   2.387   1.461   8.164  0.1038  0.4929 -0.0271
  253MOL   Cl2230766   2.438   1.411   8.000 -0.1665 -0.1490 -0.0413
  253MOL    H2330767   2.348   1.272   8.271  0.1430 -1.2997 -2.2833
  253MOL    H2430768   2.272   1.427   8.328 -0.6432  2.2395 -2.7589
  253MOL    H2530769   2.338   1.557   8.151 -0.1645  0.4301  0.5212
  253MOL    C2630770   2.511   1.496   8.248 -1.1806  0.6420  0.3215
  253MOL    C2730771   2.582   1.622   8.202 -0.6707  0.8745  0.3280
  253MOL   Cl2830772   2.737   1.614   8.280 -0.1519 -0.3495  0.3564
  253MOL    H2930773   2.576   1.409   8.244  1.6555  2.5982  1.8445
  253MOL    H3030774   2.474   1.518   8.348 -1.2167 -0.2658  0.5141
  253MOL    H3130775   2.617   1.611   8.099  1.2447  2.6915  0.7636
  253MOL    C3230776   2.526   1.763   8.229 -0.1413 -0.6651 -0.0358
  253MOL    C3330777   2.604   1.886   8.173  0.4816  0.2041 -0.0333
  253MOL   Cl3430778   2.486   2.024   8.191  0.4313  0.2738 -0.4543
  253MOL    H3530779   2.511   1.783   8.335  1.4833  0.2090  0.0393
  253MOL    H3630780   2.425   1.770   8.187  0.7816 -0.9770 -2.3711
  253MOL    H3730781   2.685   1.913   8.241 -1.1599  3.0917  0.8490
  253MOL    C3830782   2.646   1.870   8.027 -0.8515  0.3933  0.2109
  253MOL    C3930783   2.798   1.842   8.027 -0.8022  0.1982 -0.0907
  253MOL   Cl4030784   2.889   1.984   8.090 -0.0368  0.1916  0.0700
  253MOL    H4130785   2.615   1.963   7.978 -0.1990  2.0176  2.7898
  253MOL    H4230786   2.594   1.783   7.986  0.4369 -0.9741  1.4375
  253MOL    H4330787   2.821   1.757   8.091 -1.3939 -0.8558 -1.2658
  253MOL    C4430788   2.857   1.811   7.890  0.0209  0.9902 -0.0221
  253MOL    C4530789   3.012   1.783   7.891 -0.2091  0.7456  0.3197
  253MOL   Cl4630790   3.061   1.747   7.722 -0.3240 -0.6089  0.3391
  253MOL    H4730791   2.834   1.897   7.828  0.3888  1.5136  0.5611
  253MOL    H4830792   2.797   1.733   7.844  0.6751 -0.6645  1.8370
  253MOL    H4930793   3.064   1.875   7.918 -0.8814  0.6943  1.8334
  253MOL    C5030794   3.055   1.662   7.985  0.6409  0.0903 -0.0261
  253MOL    C5130795   3.200   1.612   7.969 -0.5119 -0.3348  0.0250
  253MOL   Cl5230796   3.218   1.484   8.096  0.0226  0.0192  0.0818
  253MOL    H5330797   2.997   1.571   7.975  1.6472 -0.5346 -0.2662
  253MOL    H5430798   3.039   1.689   8.090  2.3799 -3.9429  1.3858
  253MOL    H5530799   3.223   1.573   7.870 -0.4861  2.1844 -1.0000
  253MOL    C5630800   3.310   1.712   8.004  0.0363  0.0997  0.7430
  253MOL    C5730801   3.363   1.805   7.888  0.3978 -0.2169  0.3214
  253MOL   Cl5830802   3.446   1.699   7.775  0.1921  0.1770 -0.0634
  253MOL    H5930803   3.396   1.663   8.051  0.9363  1.1629  0.2373
  253MOL    H6030804   3.270   1.775   8.084  0.7064  1.5362 -0.0311
  253MOL    H6130805   3.284   1.849   7.827  0.6935 -1.6131 -1.1076
  253MOL    C6230806   3.459   1.918   7.935  0.0373 -0.3866  0.1394
  253MOL    C6330807   3.394   2.012   8.039  0.1872 -0.2119 -0.0009
  253MOL   Cl6430808   3.229   2.052   7.989 -0.2119  0.1300 -0.0233
  253MOL    H6530809   3.488   1.974   7.845 -1.2620 -0.3973 -0.2905
  253MOL    H6630810   3.541   1.866   7.984  0.1527  0.5752  0.9702
  253MOL    H6730811   3.391   1.964   8.137  1.0663  0.4650  0.3676
  253MOL    C6830812   3.465   2.144   8.037 -0.4646 -0.2957 -0.5186
  253MOL    C6930813   3.622   2.146   8.058  0.1072 -0.1994 -0.0606
  253MOL   Cl7030814   3.663   2.073   8.214  0.2201 -0.1117 -0.1878
  253MOL    H7130815   3.414   2.208   8.109 -2.9327 -0.6181 -1.9208
  253MOL    H7230816   3.449   2.207   7.949  0.6825 -1.7610 -1.8122
  253MOL    H7330817   3.655   2.068   7.990  0.0218  1.9141 -2.5911
  253MOL    C7430818   3.706   2.275   8.043  0.1270 -0.0627  0.7384
  253MOL    C7530819   3.758   2.294   7.903 -0.7509  0.3098 -0.5334
  253MOL   Cl7630820   3.833   2.456   7.902  0.1500  0.0818  0.0365
  253MOL    H7730821   3.787   2.265   8.115 -0.8920 -3.3683  1.4891
  253MOL    H7830822   3.659   2.370   8.071  1.1626  1.2970 -1.9340
  253MOL    H7930823   3.827   2.212   7.884 -1.0688 -0.4364  1.3871
  253MOL    C8030824   3.649   2.291   7.790  0.0523  0.2379 -0.0733
  253MOL    C8130825   3.696   2.323   7.649 -0.1053 -1.1387  0.3481
  253MOL   Cl8230826   3.562   2.307   7.538  0.2632 -0.0156  0.0003
  253MOL    H8330827   3.576   2.366   7.819 -1.3801 -0.8342 -0.8396
  253MOL    H8430828   3.592   2.199   7.785  0.3073  0.0369  0.6314
  253MOL    H8530829   3.713   2.430   7.639  2.6632 -1.5975 -0.1468
  253MOL    C8630830   3.819   2.245   7.592 -0.2217  0.7896  0.1046
  253MOL    C8730831   3.803   2.094   7.570  0.0991  0.5737 -0.2945
  253MOL   Cl8830832   3.799   1.993   7.720 -0.1393 -0.3333 -0.1380
  253MOL    H8930833   3.904   2.261   7.659 -0.0744  0.6353 -0.0453
  253MOL    H9030834   3.862   2.289   7.502  1.7470 -0.5348  0.3765
  253MOL    H9130835   3.706   2.081   7.522  0.2323  2.1015 -1.0070
  253MOL    C9230836   3.919   2.033   7.478  0.1637 -0.7604  0.3177
  253MOL    C9330837   4.066   2.032   7.526 -0.1334 -0.4652 -0.0591
  253MOL   Cl9430838   4.126   2.198   7.514  0.3440 -0.1088 -0.0878
  253MOL    H9530839   3.904   2.080   7.381 -0.4948 -1.0263  0.2891
  253MOL    H9630840   3.890   1.935   7.439 -1.9940 -0.5505  1.3604
  253MOL    H9730841   4.087   2.012   7.631 -0.0805 -0.6656 -0.1060
  253MOL    C9830842   4.156   1.931   7.454  0.2388 -0.4954  0.0395
  253MOL    C9930843   4.308   1.937   7.481  0.0605 -0.2479  0.6073
  253MOL  Cl10030844   4.378   1.813   7.375 -0.2305  0.0111 -0.1380
  253MOL   H10130845   4.157   1.946   7.346  0.0778 -0.6426  0.0181
  253MOL   H10230846   4.129   1.827   7.474 -0.7297 -0.8578 -2.8837
  253MOL   H10330847   4.347   2.034   7.449 -1.9029 -0.0265 -1.2258
  253MOL   C10430848   4.352   1.921   7.624  0.0939  0.4950  0.5708
  253MOL   C10530849   4.507   1.921   7.638 -0.0837 -0.1947 -0.0956
  253MOL  Cl10630850   4.581   1.751   7.629 -0.2535 -0.0931 -0.1501
  253MOL   H10730851   4.312   1.824   7.653 -0.3414  1.5432  3.6041
  253MOL   H10830852   4.309   1.998   7.688  1.9748  0.8534  1.4507
  253MOL   H10930853   4.543   1.977   7.552 -2.5773 -0.1055 -1.0967
  253MOL   C11030854   4.565   1.993   7.763 -0.5763 -0.2906  0.3633
  253MOL   C11130855   4.721   2.000   7.771  0.3069 -0.9705  0.1273
  253MOL  Cl11230856   4.753   2.097   7.916 -0.0784  0.1625 -0.1419
  253MOL   H11330857   4.534   1.936   7.851  3.8085  0.6708  2.6274
  253MOL   H11430858   4.522   2.093   7.757  0.4646  0.2310  1.4658
  253MOL   H11530859   4.774   1.905   7.773 -1.6418 -2.1147 -0.8720
  253MOL   C11630860   4.782   2.079   7.656  0.0875 -0.2164  0.1564
  253MOL   C11730861   4.941   2.073   7.655 -0.0414  0.0504 -0.3522
  253MOL  Cl11830862   5.038   2.148   7.527  0.1433 -0.0890 -0.2113
  253MOL   H11930863   4.749   2.182   7.653  0.5880 -0.0064  1.4493
  253MOL   H12030864   4.753   2.030   7.563 -1.0727  0.2805  0.2513
  253MOL   H12130865   4.971   2.126   7.745  1.0094  2.5642 -2.1217
  253MOL   H12230866   4.974   1.969   7.654 -1.2052 -0.3485  0.8859
  254MOL     C130867   3.962   0.745   4.577  0.1263  0.0113  0.4370
  254MOL     C230868   3.904   0.818   4.691 -0.1883 -0.9695  0.3624
  254MOL    Cl330869   3.729   0.795   4.727 -0.0981 -0.2499 -0.6864
  254MOL     H430870   3.936   0.639   4.579 -0.8655  0.2454  0.1642
  254MOL     H530871   3.928   0.783   4.481  1.0447 -2.1845 -0.7763
  254MOL     H630872   3.953   0.793   4.785  0.7599  3.1382  1.0588
  254MOL     H730873   4.070   0.745   4.586  0.3224  0.3426 -1.6542
  254MOL     C830874   3.929   0.975   4.662 -0.0804  0.3377 -0.3054
  254MOL     C930875   4.084   1.013   4.644  0.3548 -0.0965 -0.1486
  254MOL   Cl1030876   4.178   0.959   4.781  0.2334  0.2475  0.2069
  254MOL    H1130877   3.906   1.031   4.753  0.0747  2.3836 -1.5182
  254MOL    H1230878   3.868   1.019   4.584 -0.9913 -1.0629 -0.3981
  254MOL    H1330879   4.120   0.963   4.554  1.2815  0.2666  0.0104
  254MOL    C1430880   4.100   1.166   4.613  0.1139 -0.8235  1.1876
  254MOL    C1530881   4.029   1.212   4.484 -0.2627 -0.5304  0.2692
  254MOL   Cl1630882   4.099   1.147   4.336  0.3470 -0.1103 -0.0398
  254MOL    H1730883   4.201   1.207   4.613 -0.3627  0.3947  0.5498
  254MOL    H1830884   4.064   1.215   4.704 -3.1796 -2.6383  0.9304
  254MOL    H1930885   3.927   1.174   4.486 -0.6493  0.5280  3.4514
  254MOL    C2030886   4.021   1.370   4.477  0.1020  0.5625  0.1719
  254MOL    C2130887   3.923   1.433   4.372  0.1411 -0.1016 -0.3747
  254MOL   Cl2230888   3.944   1.606   4.358 -0.1059  0.1986  0.2191
  254MOL    H2330889   4.118   1.414   4.455  0.4920  0.0946  0.9419
  254MOL    H2430890   4.010   1.397   4.581 -6.3130 -1.3210  0.2116
  254MOL    H2530891   3.948   1.391   4.275  0.8999  0.4278 -0.4163
  254MOL    C2630892   3.777   1.408   4.414 -0.3270 -0.6340  0.3749
  254MOL    C2730893   3.671   1.441   4.316  0.1468  0.2768  0.2208
  254MOL   Cl2830894   3.519   1.432   4.396 -0.0090 -0.4857 -0.2273
  254MOL    H2930895   3.758   1.471   4.501 -0.0982 -0.9520  0.6557
  254MOL    H3030896   3.745   1.313   4.456 -2.7162 -0.2098 -0.4544
  254MOL    H3130897   3.689   1.542   4.279  0.1679  0.6405  1.2289
  254MOL    C3230898   3.666   1.339   4.196  0.3585 -0.1248  0.5461
  254MOL    C3330899   3.601   1.384   4.072  1.1536  0.1690 -0.4899
  254MOL   Cl3430900   3.421   1.422   4.087 -0.3850 -0.0681 -0.6181
  254MOL    H3530901   3.637   1.238   4.226 -0.4494  0.4588  1.7417
  254MOL    H3630902   3.769   1.329   4.161  0.0160 -0.0864 -0.4722
  254MOL    H3730903   3.657   1.474   4.050  0.7312  0.4893 -0.2679
  254MOL    C3830904   3.613   1.268   3.971 -0.3744  0.4410  0.9444
  254MOL    C3930905   3.584   1.307   3.821 -0.5236  0.2354  0.4453
  254MOL   Cl4030906   3.553   1.151   3.742 -0.2493  0.0217  0.4995
  254MOL    H4130907   3.552   1.181   3.997 -0.1812  0.3451  1.0777
  254MOL    H4230908   3.713   1.225   3.978  0.1948  1.2046 -1.8564
  254MOL    H4330909   3.490   1.363   3.814  0.2352  1.8301  2.6346
  254MOL    C4430910   3.712   1.370   3.772 -0.4125 -0.3608 -0.5846
  254MOL    C4530911   3.728   1.382   3.616  0.1093  0.4423  0.7395
  254MOL   Cl4630912   3.860   1.501   3.593 -0.1811  0.3112 -0.2386
  254MOL    H4730913   3.800   1.318   3.812 -0.9603 -0.7424  0.1510
  254MOL    H4830914   3.715   1.472   3.809  4.4390 -1.7912  3.8300
  254MOL    H4930915   3.757   1.283   3.583 -1.7271  0.5068 -1.1885
  254MOL    C5030916   3.606   1.435   3.542  0.3417 -0.1270 -0.0231
  254MOL    C5130917   3.608   1.388   3.393 -0.0094  0.1397  0.3555
  254MOL   Cl5230918   3.600   1.210   3.375  0.0729  0.2086  0.2433
  254MOL    H5330919   3.583   1.541   3.549  0.0096 -0.2001 -0.0010
  254MOL    H5430920   3.508   1.398   3.573  0.4578 -1.5921 -1.3437
  254MOL    H5530921   3.517   1.426   3.346  0.3013  0.2852 -0.1282
  254MOL    C5630922   3.726   1.441   3.307  0.1558  0.7240  0.2255
  254MOL    C5730923   3.750   1.598   3.311 -0.0045 -0.2771  0.4928
  254MOL   Cl5830924   3.625   1.672   3.201  0.0139  0.1126 -0.5411
  254MOL    H5930925   3.722   1.411   3.203 -2.1494  0.4379  0.3847
  254MOL    H6030926   3.824   1.399   3.334  0.3938  2.0214  1.4793
  254MOL    H6130927   3.721   1.641   3.407 -1.3369 -0.7670  0.3124
  254MOL    C6230928   3.891   1.638   3.257  0.3727  0.3066 -0.0865
  254MOL    C6330929   3.918   1.792   3.249  0.3959  0.1248 -0.7551
  254MOL   Cl6430930   4.071   1.809   3.155 -0.0633 -0.0696  0.3137
  254MOL    H6530931   3.895   1.606   3.153  2.9299 -1.4304  0.4969
  254MOL    H6630932   3.959   1.578   3.317 -0.3466  0.5086  0.9560
  254MOL    H6730933   3.849   1.843   3.182  2.3695  0.1911 -2.7742
  254MOL    C6830934   3.930   1.863   3.381 -0.1543  0.5136 -0.0687
  254MOL    C6930935   3.901   2.014   3.386 -0.2066  0.3325  0.2765
  254MOL   Cl7030936   4.016   2.118   3.290  0.3600 -0.7410  0.4030
  254MOL    H7130937   4.021   1.832   3.433  0.0823 -0.8111 -1.2597
  254MOL    H7230938   3.852   1.815   3.441 -0.7536  0.9585 -0.4883
  254MOL    H7330939   3.806   2.036   3.337 -0.1070 -1.1660 -0.6096
  254MOL    C7430940   3.898   2.066   3.524 -0.6057 -0.2085  0.4745
  254MOL    C7530941   3.772   2.035   3.605  0.2018  0.0603  0.1266
  254MOL   Cl7630942   3.648   2.143   3.540 -0.0289 -0.4055  0.4326
  254MOL    H7730943   3.915   2.173   3.531 -0.6458 -0.0500 -1.6448
  254MOL    H7830944   3.985   2.019   3.571  0.8919  0.8616 -1.1684
  254MOL    H7930945   3.738   1.934   3.583  0.2596  0.1402 -0.3202
  254MOL    C8030946   3.785   2.069   3.754 -0.5696  0.4782  0.8253
  254MOL    C8130947   3.877   1.980   3.843 -0.1186  0.0093  0.3002
  254MOL   Cl8230948   3.835   1.808   3.818 -0.5032  0.4341  0.1469
  254MOL    H8330949   3.687   2.072   3.801 -1.2970  0.6284 -0.6818
  254MOL    H8430950   3.816   2.173   3.768  2.7802 -0.3282 -0.0448
  254MOL    H8530951   3.975   2.005   3.803 -0.9374  0.5937 -1.3512
  254MOL    C8630952   3.862   2.019   3.995  0.0491 -0.0205  0.1045
  254MOL    C8730953   3.949   1.940   4.097  0.6796  0.4788  0.3404
  254MOL   Cl8830954   3.887   1.953   4.262  0.1731  0.3961 -0.0016
  254MOL    H8930955   3.763   1.994   4.031 -0.2122 -0.0157 -0.6156
  254MOL    H9030956   3.875   2.127   4.007  0.6556  0.1649 -2.0525
  254MOL    H9130957   3.933   1.835   4.072  2.8395  0.1441  0.2671
  254MOL    C9230958   4.099   1.972   4.102  0.1488  0.0754  0.3273
  254MOL    C9330959   4.144   2.108   4.169  0.2848  0.2102 -0.4742
  254MOL   Cl9430960   4.152   2.231   4.042 -0.2987  0.2524 -0.3296
  254MOL    H9530961   4.159   1.957   4.012 -0.7618 -1.5042 -0.0179
  254MOL    H9630962   4.136   1.895   4.170  1.6198  1.6590  1.3821
  254MOL    H9730963   4.069   2.141   4.242  1.5260 -1.5407  1.6688
  254MOL    C9830964   4.278   2.103   4.243 -0.9213 -0.2561  0.2934
  254MOL    C9930965   4.267   2.120   4.396  1.2503 -0.2265 -0.5563
  254MOL  Cl10030966   4.428   2.140   4.456 -0.0825 -0.0213 -0.0184
  254MOL   H10130967   4.342   2.181   4.202 -0.0783 -1.4378 -0.6642
  254MOL   H10230968   4.320   2.005   4.219 -1.8768 -0.6330  0.1544
  254MOL   H10330969   4.212   2.214   4.403  0.7917 -0.5572  0.3857
  254MOL   C10430970   4.200   2.000   4.469  0.0272  1.0513  0.2055
  254MOL   C10530971   4.163   2.021   4.621  0.3161  0.9794 -0.5950
  254MOL  Cl10630972   4.306   2.013   4.726 -0.0609  0.2425  0.0700
  254MOL   H10730973   4.255   1.907   4.458 -0.8731  0.3080  1.8654
  254MOL   H10830974   4.113   1.979   4.407 -0.1716 -0.7577  1.0671
  254MOL   H10930975   4.135   2.126   4.629  1.0591  1.2319 -1.3180
  254MOL   C11030976   4.061   1.922   4.677  0.4047 -0.4976 -0.8122
  254MOL   C11130977   3.925   1.914   4.609  0.4032  0.0792 -0.2079
  254MOL  Cl11230978   3.832   2.069   4.588 -0.3146  0.4204 -0.0631
  254MOL   H11330979   4.040   1.963   4.776 -1.4679  1.0284 -1.7977
  254MOL   H11430980   4.107   1.823   4.681  1.5867 -0.0172 -2.0394
  254MOL   H11530981   3.940   1.864   4.513  2.1913 -0.4338  0.3256
  254MOL   C11630982   3.843   1.822   4.698  0.5232  0.2506  0.1639
  254MOL   C11730983   3.727   1.750   4.625  0.2025  0.3826  0.5081
  254MOL  Cl11830984   3.623   1.658   4.737 -0.0549  0.0458 -0.3049
  254MOL   H11930985   3.809   1.869   4.790 -4.0654 -0.6420 -0.9227
  254MOL   H12030986   3.905   1.739   4.732  1.4934  0.8563 -0.1078
  254MOL   H12130987   3.651   1.814   4.579 -0.8858 -1.0836  0.2279
  254MOL   H12230988   3.757   1.676   4.550  1.0778  1.1217  0.1214
  255MOL     C130989   5.613   6.905   6.097 -0.1473  0.3481  0.8202
  255MOL     C230990   5.578   7.042   6.142 -0.2979 -0.3193  0.4163
  255MOL    Cl330991   5.431   7.016   6.241  0.1795 -0.0513  0.3090
  255MOL     H430992   5.642   6.838   6.178 -1.2530 -2.9682 -1.4348
  255MOL     H530993   5.538   6.859   6.033 -0.4173  0.3887  1.1060
  255MOL     H630994   5.653   7.093   6.202  0.0139 -0.3400  0.0473
  255MOL     H730995   5.696   6.906   6.028 -1.0892  1.1312 -0.3199
  255MOL     C830996   5.546   7.128   6.016  0.3321 -0.1666  0.1153
  255MOL     C930997   5.676   7.195   5.959 -0.6963  0.2897  0.8839
  255MOL   Cl1030998   5.758   7.295   6.082  0.1304 -0.9904  0.1745
  255MOL    H1130999   5.479   7.213   6.030 -0.5621 -0.8067 -0.2062
  255MOL    H1231000   5.495   7.072   5.938 -0.8695 -0.0531  0.8024
  255MOL    H1331001   5.741   7.110   5.934 -3.6878 -1.4407 -1.3091
  255MOL    C1431002   5.653   7.283   5.834 -0.1774 -0.3804  0.8726
  255MOL    C1531003   5.770   7.332   5.750  0.0629 -0.2136  0.0620
  255MOL   Cl1631004   5.710   7.473   5.657 -0.2135  0.2728 -0.0070
  255MOL    H1731005   5.602   7.372   5.871  2.3941  1.1462  0.8665
  255MOL    H1831006   5.583   7.238   5.764  1.6404  1.6724 -2.3861
  255MOL    H1931007   5.856   7.363   5.810  0.3345  0.3264 -0.5911
  255MOL    C2031008   5.813   7.226   5.645 -0.1922 -0.6726  0.1073
  255MOL    C2131009   5.934   7.268   5.545 -0.4340  0.5228 -1.3444
  255MOL   Cl2231010   5.956   7.133   5.428  0.2933  0.3012  0.0947
  255MOL    H2331011   5.727   7.202   5.581  0.0826 -0.3320 -0.3961
  255MOL    H2431012   5.846   7.132   5.689  0.5596  0.3901  1.8522
  255MOL    H2531013   5.914   7.358   5.486 -1.8140  0.6345 -0.7173
  255MOL    C2631014   6.076   7.282   5.614 -0.3543  0.1568 -0.0983
  255MOL    C2731015   6.190   7.339   5.527 -0.0963  0.9806  0.3924
  255MOL   Cl2831016   6.128   7.472   5.420  0.0473 -0.1604 -0.2085
  255MOL    H2931017   6.105   7.183   5.650  0.7038  0.6667  0.4799
  255MOL    H3031018   6.053   7.345   5.700 -0.3235 -1.1591  0.8932
  255MOL    H3131019   6.261   7.385   5.596 -0.0592  0.5787  0.6232
  255MOL    C3231020   6.257   7.232   5.440 -0.1002 -0.1655  0.0227
  255MOL    C3331021   6.397   7.267   5.386  0.9748  1.0595  0.1672
  255MOL   Cl3431022   6.506   7.294   5.526  0.0984  0.1079 -0.0934
  255MOL    H3531023   6.194   7.219   5.352 -0.0458  1.5240 -0.2832
  255MOL    H3631024   6.259   7.135   5.489  1.0424  0.2348  0.7943
  255MOL    H3731025   6.425   7.177   5.331  0.4372  1.4479 -0.7405
  255MOL    C3831026   6.407   7.377   5.281 -0.3792 -0.5496 -0.2256
  255MOL    C3931027   6.542   7.381   5.205  0.5600  0.8189  0.5325
  255MOL   Cl4031028   6.646   7.489   5.304  0.6023 -0.2113  0.0915
  255MOL    H4131029   6.389   7.479   5.315  1.4000  0.3035 -1.7303
  255MOL    H4231030   6.330   7.349   5.209  1.9214 -3.5648 -1.6444
  255MOL    H4331031   6.590   7.284   5.220 -0.2350  0.5007  1.0283
  255MOL    C4431032   6.550   7.417   5.058  0.1898  0.1373 -0.0924
  255MOL    C4531033   6.457   7.353   4.960  0.0053 -0.2818 -0.5801
  255MOL   Cl4631034   6.434   7.181   4.999  0.1856  0.2798 -0.0727
  255MOL    H4731035   6.651   7.387   5.032 -0.1358 -1.4401  0.3470
  255MOL    H4831036   6.542   7.525   5.050 -1.3713 -0.0533 -1.3737
  255MOL    H4931037   6.359   7.398   4.976  0.6119  1.2673 -1.1091
  255MOL    C5031038   6.503   7.360   4.814 -0.5348 -0.8272  1.1247
  255MOL    C5131039   6.383   7.403   4.727  0.0936 -0.1630 -0.2805
  255MOL   Cl5231040   6.446   7.379   4.560 -0.0751 -0.2878  0.2599
  255MOL    H5331041   6.537   7.263   4.777 -0.0323  0.6933 -2.5945
  255MOL    H5431042   6.590   7.421   4.793 -0.4396 -1.3833 -0.1856
  255MOL    H5531043   6.295   7.340   4.745 -1.3836  1.7085 -0.7962
  255MOL    C5631044   6.356   7.553   4.752  0.1747  0.6010 -0.0336
  255MOL    C5731045   6.237   7.604   4.660 -0.4613 -0.4734 -0.2274
  255MOL   Cl5831046   6.233   7.781   4.657  0.5586 -0.3715 -0.1525
  255MOL    H5931047   6.447   7.610   4.733  1.6873 -1.2181  1.5674
  255MOL    H6031048   6.333   7.581   4.855  1.1623  1.0352  0.0745
  255MOL    H6131049   6.244   7.565   4.558 -0.5581  1.6554 -1.0658
  255MOL    C6231050   6.099   7.551   4.707 -0.3826 -0.2560  0.2781
  255MOL    C6331051   5.979   7.591   4.622  0.5304 -0.0939  0.2042
  255MOL   Cl6431052   5.831   7.560   4.722 -0.0953 -0.2402 -0.3065
  255MOL    H6531053   6.090   7.582   4.811 -0.2699  0.7635 -0.0148
  255MOL    H6631054   6.111   7.443   4.699 -0.7344 -0.2730 -0.0320
  255MOL    H6731055   5.982   7.695   4.592 -0.0780 -0.3233 -0.6902
  255MOL    C6831056   5.963   7.508   4.492  0.2399 -0.2171  0.4470
  255MOL    C6931057   5.860   7.544   4.389 -0.1978 -0.3467  0.4100
  255MOL   Cl7031058   5.814   7.411   4.279 -0.1882 -0.4546 -0.3636
  255MOL    H7131059   5.956   7.404   4.523 -1.1993  0.1547  1.4387
  255MOL    H7231060   6.058   7.513   4.440 -0.7807  0.8697 -1.3740
  255MOL    H7331061   5.770   7.556   4.449 -0.9340 -0.4368 -0.6662
  255MOL    C7431062   5.873   7.672   4.301  0.3695  0.3713 -0.2134
  255MOL    C7531063   5.999   7.680   4.210  0.4137  0.1270  0.2513
  255MOL   Cl7631064   6.137   7.718   4.315 -0.0860 -0.1320 -0.0225
  255MOL    H7731065   5.884   7.766   4.354 -2.8120  0.8169 -0.2655
  255MOL    H7831066   5.783   7.686   4.243  0.4709 -0.9571 -0.7093
  255MOL    H7931067   6.017   7.582   4.165  2.9419  0.7961 -0.2614
  255MOL    C8031068   5.976   7.778   4.097 -0.0713  0.5391 -0.1115
  255MOL    C8131069   6.103   7.807   4.016 -1.2648 -0.0789 -0.3549
  255MOL   Cl8231070   6.052   7.935   3.901 -0.5514  0.0224  0.1422
  255MOL    H8331071   5.934   7.860   4.155 -2.4103 -0.2834 -0.5726
  255MOL    H8431072   5.888   7.746   4.041 -0.3124 -0.0203  0.5731
  255MOL    H8531073   6.185   7.845   4.077 -1.2954 -0.1921 -0.2422
  255MOL    C8631074   6.149   7.688   3.926 -0.6757  0.5767  0.4532
  255MOL    C8731075   6.249   7.592   3.997 -0.2760  0.6195  0.3262
  255MOL   Cl8831076   6.393   7.700   4.040  0.1698 -0.1824  0.0891
  255MOL    H8931077   6.189   7.720   3.830 -1.2111  0.2224  0.1059
  255MOL    H9031078   6.054   7.638   3.903  0.0414 -0.9424  0.7568
  255MOL    H9131079   6.217   7.547   4.091 -0.1769 -0.9210 -0.3783
  255MOL    C9231080   6.314   7.478   3.905 -0.3910 -0.4424  0.2493
  255MOL    C9331081   6.212   7.378   3.845 -0.5339 -0.3640  0.0648
  255MOL   Cl9431082   6.135   7.284   3.974  0.0192 -0.2657  0.0433
  255MOL    H9531083   6.393   7.420   3.953 -0.4509 -3.2998 -2.8980
  255MOL    H9631084   6.356   7.525   3.816 -3.9098  0.3547 -1.0650
  255MOL    H9731085   6.133   7.430   3.792 -1.4394 -1.7081  0.0616
  255MOL    C9831086   6.278   7.271   3.759 -0.0676 -0.6575 -0.3242
  255MOL    C9931087   6.336   7.322   3.627  0.4761  0.4931  0.3026
  255MOL  Cl10031088   6.203   7.380   3.525  0.1024 -0.3442  0.1303
  255MOL   H10131089   6.195   7.202   3.747  0.2385 -0.8576 -1.3432
  255MOL   H10231090   6.350   7.224   3.825  0.1223  0.1777  0.0774
  255MOL   H10331091   6.403   7.405   3.647  0.8842 -0.2978  2.2949
  255MOL   C10431092   6.413   7.210   3.558 -0.0722  0.4525  0.0381
  255MOL   C10531093   6.508   7.248   3.442  0.4343  0.0224  0.1214
  255MOL  Cl10631094   6.637   7.349   3.513 -0.3674 -0.0288  0.0400
  255MOL   H10731095   6.342   7.137   3.522  2.7882 -1.3734 -2.1079
  255MOL   H10831096   6.474   7.158   3.632  0.3065  0.8073 -0.0223
  255MOL   H10931097   6.564   7.158   3.418 -0.5041 -0.6488  0.4334
  255MOL   C11031098   6.437   7.312   3.322  0.0714 -0.8474 -0.8398
  255MOL   C11131099   6.340   7.218   3.244  0.0083 -0.4855 -0.3007
  255MOL  Cl11231100   6.413   7.067   3.179  0.3416 -0.1595  0.3626
  255MOL   H11331101   6.505   7.363   3.254  2.0240 -0.9283  0.9885
  255MOL   H11431102   6.386   7.403   3.354 -1.1893 -1.1671 -1.8923
  255MOL   H11531103   6.259   7.188   3.310  0.5439 -1.0235  0.1169
  255MOL   C11631104   6.285   7.279   3.121 -0.4613 -0.4468 -0.1517
  255MOL   C11731105   6.235   7.428   3.136  0.1639  0.0944  0.2866
  255MOL  Cl11831106   6.177   7.476   2.974  0.2521 -0.1776  0.0129
  255MOL   H11931107   6.207   7.213   3.083  1.0772 -1.3486 -1.8162
  255MOL   H12031108   6.365   7.278   3.046  1.6730 -0.3765  2.0598
  255MOL   H12131109   6.159   7.440   3.213  0.4707 -1.3665  0.8323
  255MOL   H12231110   6.315   7.497   3.166 -0.5873  1.2370 -0.3089
  256MOL     C131111   8.076   0.235   3.140 -0.8124  0.1428 -0.2106
  256MOL     C231112   8.161   0.261   3.017  0.3209  0.9892 -0.1682
  256MOL    Cl331113   8.260   0.112   2.996 -0.0046 -0.0881  0.3756
  256MOL     H431114   8.150   0.214   3.218 -0.1844  1.4503 -0.4423
  256MOL     H531115   8.021   0.325   3.166  0.9902  0.9707  0.8119
  256MOL     H631116   8.099   0.267   2.927  1.7546  0.1249 -1.2294
  256MOL     H731117   8.010   0.150   3.122  1.6943 -1.6380 -1.3258
  256MOL     C831118   8.241   0.388   3.040  0.3462  0.2929 -0.7177
  256MOL     C931119   8.301   0.443   2.910 -0.1125  0.0304 -0.2850
  256MOL   Cl1031120   8.174   0.495   2.804 -0.0514 -0.2165 -0.4004
  256MOL    H1131121   8.319   0.380   3.116 -1.5618  2.5838  1.5811
  256MOL    H1231122   8.166   0.460   3.072 -1.3978 -1.6763 -0.3241
  256MOL    H1331123   8.353   0.538   2.922 -0.8101  0.1300  2.2016
  256MOL    C1431124   8.399   0.344   2.840  0.1724  0.3618 -0.1099
  256MOL    C1531125   8.489   0.400   2.717 -0.1068  0.4263  0.6633
  256MOL   Cl1631126   0.080   0.530   2.773 -0.1781  0.3122  0.1995
  256MOL    H1731127   8.337   0.268   2.792 -1.1944  0.6943  1.1042
  256MOL    H1831128   8.470   0.301   2.911  0.6272  0.5729 -0.4352
  256MOL    H1931129   0.033   0.323   2.684 -0.5744 -0.2634  1.2957
  256MOL    C2031130   8.422   0.457   2.597  0.4601 -0.3269  0.3257
  256MOL    C2131131   8.342   0.348   2.517  0.0902  0.8390 -0.3403
  256MOL   Cl2231132   8.460   0.236   2.454 -0.1503  0.0686  0.1938
  256MOL    H2331133   8.487   0.496   2.519 -0.6778 -0.6841 -0.8124
  256MOL    H2431134   8.357   0.539   2.627  0.9081  0.7497 -1.5781
  256MOL    H2531135   8.284   0.285   2.585 -0.4632  1.7264  0.0139
  256MOL    C2631136   8.241   0.398   2.410  0.5740  0.5435 -0.0706
  256MOL    C2731137   8.151   0.288   2.348 -0.4975  0.1299  0.2279
  256MOL   Cl2831138   8.121   0.319   2.177  0.0831 -0.1554  0.4088
  256MOL    H2931139   8.299   0.444   2.330  2.5128 -1.6544  0.0418
  256MOL    H3031140   8.181   0.477   2.454  0.8900  0.0154  1.3131
  256MOL    H3131141   8.202   0.192   2.340  0.8829  0.8658  0.1208
  256MOL    C3231142   8.009   0.268   2.415 -0.1669 -0.1635 -0.5422
  256MOL    C3331143   8.005   0.212   2.557  0.4781 -0.0287  0.0498
  256MOL   Cl3431144   8.112   0.074   2.584 -0.3134  0.1525 -0.1696
  256MOL    H3531145   7.949   0.195   2.361 -0.7171  1.4110 -2.0993
  256MOL    H3631146   7.959   0.364   2.403  0.7908  0.2077 -1.7136
  256MOL    H3731147   8.049   0.293   2.616  0.7547 -0.4488  0.4253
  256MOL    C3831148   7.861   0.177   2.608  0.0912 -0.1852  0.1553
  256MOL    C3931149   7.780   0.293   2.653 -0.1556 -0.1695 -0.4542
  256MOL   Cl4031150   7.841   0.355   2.812  0.3020 -0.1175 -0.2770
  256MOL    H4131151   7.862   0.112   2.695 -1.1798 -2.9664 -1.8579
  256MOL    H4231152   7.810   0.117   2.533 -0.4481  2.3146 -1.5309
  256MOL    H4331153   7.784   0.372   2.579 -1.7295  1.5218  1.2208
  256MOL    C4431154   7.634   0.249   2.683 -0.2187  0.0028  1.1435
  256MOL    C4531155   7.546   0.207   2.564 -0.4666 -0.4491 -0.1937
  256MOL   Cl4631156   7.570   0.318   2.430  0.3785  0.2356 -0.0989
  256MOL    H4731157   7.589   0.335   2.731 -1.3822  0.3484 -0.5456
  256MOL    H4831158   7.632   0.169   2.757 -0.8869 -1.7398 -0.7105
  256MOL    H4931159   7.567   0.105   2.531 -0.9614 -0.8882  0.8299
  256MOL    C5031160   7.396   0.222   2.603 -0.5866 -0.0254  0.5568
  256MOL    C5131161   7.356   0.120   2.718  0.0219  0.5905  0.9541
  256MOL   Cl5231162   7.352   8.470   2.668  0.6387 -0.0903  0.1193
  256MOL    H5331163   7.347   0.205   2.508  0.3766 -3.5465  0.5999
  256MOL    H5431164   7.385   0.329   2.620  0.0519  0.2819 -0.8764
  256MOL    H5531165   7.437   0.123   2.791  0.3776 -0.9577  0.6434
  256MOL    C5631166   7.228   0.146   2.794 -0.4490  0.0778  0.2202
  256MOL    C5731167   7.110   0.171   2.709  0.3516 -0.3071 -0.6140
  256MOL   Cl5831168   7.108   0.339   2.644 -0.1540 -0.0625  0.2077
  256MOL    H5931169   7.245   0.233   2.857  0.8736  0.6405 -0.9147
  256MOL    H6031170   7.202   0.063   2.860  1.7137 -1.3230 -0.6523
  256MOL    H6131171   7.110   0.091   2.634  0.6954 -1.4480  0.5930
  256MOL    C6231172   6.971   0.148   2.790 -0.7306 -0.6095 -0.1275
  256MOL    C6331173   6.847   0.150   2.706  0.2992 -0.5267  0.5757
  256MOL   Cl6431174   6.712   0.163   2.821  0.0077  0.2868  0.0423
  256MOL    H6531175   6.966   0.212   2.878  0.4692 -0.5096 -0.1273
  256MOL    H6631176   6.973   0.050   2.837  1.4533  0.2454  1.6149
  256MOL    H6731177   6.865   0.242   2.650 -0.0669 -0.4830  0.5285
  256MOL    C6831178   6.821   0.029   2.619 -0.1006 -0.4811  0.2116
  256MOL    C6931179   6.811   8.419   2.689 -0.6232 -0.1808 -0.2408
  256MOL   Cl7031180   6.982   8.367   2.722  0.3393  0.2070  0.0426
  256MOL    H7131181   6.897   0.015   2.542 -0.5594 -0.2543 -0.2852
  256MOL    H7231182   6.730   0.035   2.559  0.1715 -0.0048 -0.1548
  256MOL    H7331183   6.748   8.421   2.778  1.2025  0.4489  1.0463
  256MOL    C7431184   6.760   8.305   2.595 -0.1593  0.2112 -0.4268
  256MOL    C7531185   6.609   8.307   2.556  0.5384  0.0110 -0.0690
  256MOL   Cl7631186   6.518   8.285   2.703 -0.0034  0.0922  0.1253
  256MOL    H7731187   6.785   8.209   2.640  1.5827 -0.2250 -2.2528
  256MOL    H7831188   6.808   8.305   2.497 -1.9906  1.2652 -1.3472
  256MOL    H7931189   6.589   8.405   2.513  0.4985 -0.8942 -2.1965
  256MOL    C8031190   6.570   8.204   2.447 -0.2717  0.1869  0.1985
  256MOL    C8131191   6.416   8.190   2.423  0.0074 -0.6549  0.2865
  256MOL   Cl8231192   6.400   8.070   2.287 -0.1780 -0.1975  0.3488
  256MOL    H8331193   6.608   8.105   2.471  1.6473  1.2186  1.5492
  256MOL    H8431194   6.613   8.232   2.351  0.1020 -1.3004 -0.0697
  256MOL    H8531195   6.372   8.146   2.512 -1.4383 -1.8923 -1.0115
  256MOL    C8631196   6.338   8.319   2.394 -0.2562 -0.6106  0.2562
  256MOL    C8731197   6.187   8.301   2.387 -0.1348 -0.2069  0.1556
  256MOL   Cl8831198   6.116   8.436   2.297 -0.2656  0.5116 -0.0532
  256MOL    H8931199   6.363   8.343   2.291 -0.8875  0.9118  0.4351
  256MOL    H9031200   6.361   8.409   2.451 -3.4833  1.2574 -1.2062
  256MOL    H9131201   6.155   8.214   2.329 -1.4948  0.3253  0.0967
  256MOL    C9231202   6.114   8.302   2.524 -0.0121  0.0826 -0.0988
  256MOL    C9331203   5.967   8.253   2.522 -0.2694 -0.3057  0.6196
  256MOL   Cl9431204   5.897   8.293   2.687 -0.0853 -0.1459  0.0450
  256MOL    H9531205   6.120   8.391   2.588 -0.2823 -2.2707  3.3516
  256MOL    H9631206   6.162   8.235   2.595  1.7176  0.9396 -0.4491
  256MOL    H9731207   5.919   8.321   2.451  1.2246 -0.2886 -0.4208
  256MOL    C9831208   5.940   8.103   2.474 -0.4267  0.5330 -0.0168
  256MOL    C9931209   5.795   8.063   2.477  1.4462 -0.3763 -0.4200
  256MOL  Cl10031210   5.785   7.884   2.475 -0.0074 -0.0541 -0.0016
  256MOL   H10131211   5.980   8.029   2.544 -2.5674  0.0072  0.6730
  256MOL   H10231212   5.991   8.074   2.383 -0.2643 -1.9925  0.8571
  256MOL   H10331213   5.753   8.100   2.571  1.1846  1.0218 -1.0804
  256MOL   C10431214   5.696   8.116   2.367 -0.5740  0.6827  0.2622
  256MOL   C10531215   5.738   8.099   2.218  0.5155  0.0780 -0.0546
  256MOL  Cl10631216   5.837   8.239   2.188 -0.0169  0.2050  0.2521
  256MOL   H10731217   5.666   8.218   2.390 -0.6886  0.3371  1.7262
  256MOL   H10831218   5.602   8.062   2.383  0.0954 -0.1724  1.3894
  256MOL   H10931219   5.802   8.012   2.206 -1.3788 -1.4876  0.9673
  256MOL   C11031220   5.617   8.110   2.120  0.8717 -0.7387 -0.0994
  256MOL   C11131221   5.505   7.994   2.106 -0.5447  0.0293 -0.0138
  256MOL  Cl11231222   5.571   7.847   2.028 -0.0835  0.2952 -0.2123
  256MOL   H11331223   5.659   8.132   2.022  0.1157 -0.5865 -0.3930
  256MOL   H11431224   5.557   8.196   2.147  0.5997 -0.7251 -0.7417
  256MOL   H11531225   5.480   7.971   2.209  0.3637 -0.9160  0.0031
  256MOL   C11631226   5.377   8.036   2.042 -0.1904 -0.2209 -0.5011
  256MOL   C11731227   5.268   7.926   2.041  0.0389 -0.1077  0.1339
  256MOL  Cl11831228   5.118   7.989   1.963 -0.2325  0.0723  0.4538
  256MOL   H11931229   5.404   8.060   1.939  0.0751  0.2533 -0.3204
  256MOL   H12031230   5.342   8.123   2.098  0.4651 -0.3106  0.0553
  256MOL   H12131231   5.302   7.844   1.978 -0.5839  0.4917 -1.0055
  256MOL   H12231232   5.253   7.893   2.144  0.7928 -0.6320  0.0812
  257MOL     C131233   1.714   4.495   2.113  0.3518  0.1666 -0.1677
  257MOL     C231234   1.686   4.549   2.248 -0.1410  0.9016  0.2253
  257MOL    Cl331235   1.635   4.417   2.353  0.3579  0.1564  0.3592
  257MOL     H431236   1.765   4.572   2.055  1.0300  0.2101  0.4705
  257MOL     H531237   1.788   4.416   2.107  0.4629  0.3770 -1.8431
  257MOL     H631238   1.774   4.598   2.290  1.0491 -1.0126  0.0011
  257MOL     H731239   1.623   4.452   2.072  0.3220 -0.3357  0.4138
  257MOL     C831240   1.572   4.657   2.253 -0.0411  0.0334  0.1434
  257MOL     C931241   1.522   4.699   2.390  0.3299  0.5558  0.6460
  257MOL   Cl1031242   1.392   4.812   2.366  0.2140  0.2180 -0.1513
  257MOL    H1131243   1.489   4.600   2.209  0.7158 -0.1196 -1.1147
  257MOL    H1231244   1.595   4.750   2.201  1.9228 -0.0427  0.8218
  257MOL    H1331245   1.474   4.613   2.436 -0.6018 -0.1254 -1.5846
  257MOL    C1431246   1.627   4.754   2.482 -0.3644  0.4862 -1.1444
  257MOL    C1531247   1.582   4.833   2.606  0.1660 -0.4008  0.6240
  257MOL   Cl1631248   1.593   5.008   2.566  0.0882  0.2969 -0.2073
  257MOL    H1731249   1.687   4.819   2.418  1.1125 -0.2252 -0.5067
  257MOL    H1831250   1.697   4.677   2.516 -0.9738  0.1444 -0.6493
  257MOL    H1931251   1.480   4.803   2.628  0.6114 -1.3733  1.3684
  257MOL    C2031252   1.678   4.815   2.727 -0.4925 -0.3731  0.0092
  257MOL    C2131253   1.670   4.684   2.796  0.1301  0.7175 -0.0732
  257MOL   Cl2231254   1.503   4.641   2.829 -0.2727  0.3314 -0.3659
  257MOL    H2331255   1.658   4.896   2.798 -1.7018 -0.7128  0.0709
  257MOL    H2431256   1.781   4.827   2.694 -1.2915  1.6032 -1.9184
  257MOL    H2531257   1.712   4.608   2.730 -2.0619 -0.9938  0.4614
  257MOL    C2631258   1.747   4.683   2.929 -0.3023  0.7077  0.0368
  257MOL    C2731259   1.782   4.547   2.990 -0.3915 -0.4070  0.1058
  257MOL   Cl2831260   1.929   4.483   2.918 -0.4299  0.1662  0.1082
  257MOL    H2931261   1.678   4.737   2.993 -0.1470  0.7562  0.1635
  257MOL    H3031262   1.838   4.742   2.925  1.1583 -1.4662  0.3430
  257MOL    H3131263   1.809   4.574   3.092  1.8047 -0.5475 -0.4284
  257MOL    C3231264   1.676   4.440   3.004 -0.1003 -0.1317  0.1512
  257MOL    C3331265   1.730   4.307   3.073 -0.3377 -0.1725  0.2287
  257MOL   Cl3431266   1.613   4.177   3.039  0.1954 -0.1285 -0.3421
  257MOL    H3531267   1.641   4.425   2.902  0.6670  2.3255 -0.4939
  257MOL    H3631268   1.590   4.482   3.057  0.8509 -0.7016  2.2013
  257MOL    H3731269   1.823   4.274   3.026  0.2495  2.4313 -0.5577
  257MOL    C3831270   1.756   4.316   3.229  0.4358  0.5285 -0.5421
  257MOL    C3931271   1.850   4.204   3.286  0.7740  0.8732 -0.2864
  257MOL   Cl4031272   2.006   4.212   3.194 -0.0367  0.5161 -0.3330
  257MOL    H4131273   1.658   4.316   3.278  1.1508 -0.6389  0.9422
  257MOL    H4231274   1.815   4.403   3.256  2.2040 -0.7380 -0.2388
  257MOL    H4331275   1.859   4.222   3.393 -4.9749  1.2881  0.3189
  257MOL    C4431276   1.787   4.052   3.278  0.1999  0.6497  1.1487
  257MOL    C4531277   1.658   4.023   3.353 -0.1505 -0.3198  0.0947
  257MOL   Cl4631278   1.703   4.024   3.525 -0.0090  0.2874 -0.0195
  257MOL    H4731279   1.858   3.983   3.324 -0.2334 -0.9499 -0.5392
  257MOL    H4831280   1.779   4.027   3.173 -1.7734  2.7926  0.7422
  257MOL    H4931281   1.574   4.092   3.345 -0.5161 -0.7618  0.0952
  257MOL    C5031282   1.602   3.879   3.320 -0.3175 -0.5188 -0.8968
  257MOL    C5131283   1.537   3.875   3.185  0.0336 -0.3270 -0.1401
  257MOL   Cl5231284   1.383   3.953   3.197 -0.1269  0.1030  0.1919
  257MOL    H5331285   1.520   3.853   3.388 -1.0820 -1.5109 -2.1617
  257MOL    H5431286   1.688   3.813   3.328  0.4469  0.4347 -1.1827
  257MOL    H5531287   1.597   3.926   3.110 -3.0570  2.9941 -0.4541
  257MOL    C5631288   1.515   3.732   3.142  0.0298  0.1032 -0.3697
  257MOL    C5731289   1.436   3.715   3.012  0.5782  0.2067 -0.4716
  257MOL   Cl5831290   1.422   3.537   2.985 -0.3703 -0.3584  0.1567
  257MOL    H5931291   1.479   3.661   3.216  0.9605  0.2830  0.2614
  257MOL    H6031292   1.616   3.693   3.131  0.4517  1.0950 -0.0525
  257MOL    H6131293   1.338   3.760   3.030  0.0754 -0.4178 -1.5677
  257MOL    C6231294   1.509   3.775   2.886  0.3597  0.1446 -0.2180
  257MOL    C6331295   1.440   3.782   2.752  0.5088  0.1567 -0.0214
  257MOL   Cl6431296   1.286   3.877   2.777 -0.5345 -0.5314  0.1663
  257MOL    H6531297   1.602   3.719   2.881  0.8874  1.0961 -1.3869
  257MOL    H6631298   1.538   3.878   2.905 -1.7446  0.6196  0.5063
  257MOL    H6731299   1.499   3.849   2.690  1.1639  0.1606  0.6006
  257MOL    C6831300   1.410   3.650   2.682 -0.3205  0.0651  0.2970
  257MOL    C6931301   1.539   3.571   2.637 -0.0739 -0.1853  0.5608
  257MOL   Cl7031302   1.662   3.678   2.563  0.3668 -0.1940  0.2496
  257MOL    H7131303   1.339   3.663   2.601  1.1151  0.9044 -0.8415
  257MOL    H7231304   1.351   3.589   2.751  1.4866 -2.4416 -0.3477
  257MOL    H7331305   1.593   3.531   2.723  2.3018  1.4812 -0.1026
  257MOL    C7431306   1.492   3.454   2.549  0.4540  0.5578  0.4616
  257MOL    C7531307   1.407   3.338   2.618  0.2672 -0.1514  0.3578
  257MOL   Cl7631308   1.523   3.256   2.723  0.0822  0.4462 -0.1746
  257MOL    H7731309   1.570   3.406   2.489 -0.1277 -1.3159  1.1818
  257MOL    H7831310   1.427   3.505   2.478 -0.4761  1.0840  1.6787
  257MOL    H7931311   1.333   3.384   2.683  0.0983  1.3282 -0.8497
  257MOL    C8031312   1.351   3.230   2.534  0.4915  0.4785 -0.0312
  257MOL    C8131313   1.260   3.272   2.415 -0.1141 -0.5336 -0.1778
  257MOL   Cl8231314   1.353   3.329   2.272  0.2061 -0.4277  0.5132
  257MOL    H8331315   1.298   3.159   2.597  0.7069  0.0783 -0.2947
  257MOL    H8431316   1.439   3.176   2.499  0.3339  0.6621 -0.7261
  257MOL    H8531317   1.208   3.178   2.394  1.0373 -1.1124 -0.4882
  257MOL    C8631318   1.152   3.384   2.443  0.3513  0.3335  0.0822
  257MOL    C8731319   1.059   3.359   2.564  0.5855 -0.6080  0.1308
  257MOL   Cl8831320   0.983   3.210   2.535 -0.1730  0.5581 -0.0793
  257MOL    H8931321   1.090   3.387   2.354 -1.4155  0.2337  1.2768
  257MOL    H9031322   1.201   3.481   2.452 -0.8626  0.7814  2.3853
  257MOL    H9131323   1.120   3.348   2.654 -0.0310 -0.9176  0.5154
  257MOL    C9231324   0.953   3.472   2.582  0.2082 -0.0572  0.2315
  257MOL    C9331325   0.995   3.602   2.645 -0.6770 -0.0809  0.4082
  257MOL   Cl9431326   1.085   3.575   2.799  0.1235  0.1482  0.1744
  257MOL    H9531327   0.879   3.432   2.652  2.0369  1.5440  3.1419
  257MOL    H9631328   0.903   3.479   2.485  1.4308  2.1787 -0.2560
  257MOL    H9731329   1.067   3.654   2.582 -2.0150  0.9551 -0.2721
  257MOL    C9831330   0.876   3.692   2.667  0.4003 -0.4620  0.0702
  257MOL    C9931331   0.800   3.731   2.536 -0.1367 -0.1094  0.3020
  257MOL  Cl10031332   0.922   3.799   2.422  0.5086  0.0731 -0.5110
  257MOL   H10131333   0.916   3.778   2.720  2.6941 -1.6751  0.3640
  257MOL   H10231334   0.803   3.656   2.739 -0.1261  1.0884  0.3421
  257MOL   H10331335   0.759   3.641   2.490 -1.5983 -0.5513  2.4151
  257MOL   C10431336   0.675   3.820   2.546 -0.1102 -0.5617  0.1032
  257MOL   C10531337   0.593   3.809   2.424 -0.0378 -0.1711 -0.0746
  257MOL  Cl10631338   0.485   3.961   2.405  0.1390  0.0541  0.3895
  257MOL   H10731339   0.706   3.924   2.556 -1.0707 -0.0300 -2.2559
  257MOL   H10831340   0.615   3.789   2.631 -1.2499 -1.3161 -0.9573
  257MOL   H10931341   0.661   3.810   2.338 -0.9777 -0.6033 -0.8304
  257MOL   C11031342   0.512   3.674   2.412  0.1723  0.8616  0.2587
  257MOL   C11131343   0.397   3.680   2.303 -0.0558  0.1969 -0.2693
  257MOL  Cl11231344   0.307   3.524   2.316 -0.1806  0.1244 -0.2447
  257MOL   H11331345   0.463   3.668   2.509 -0.7462  0.5135 -0.2209
  257MOL   H11431346   0.575   3.588   2.388 -1.1070 -0.5792  1.9761
  257MOL   H11531347   0.318   3.747   2.336 -1.2579 -0.4526 -1.7594
  257MOL   C11631348   0.443   3.718   2.163 -0.0947  0.2389 -0.3589
  257MOL   C11731349   0.323   3.721   2.060 -0.5007 -0.0682 -0.2573
  257MOL  Cl11831350   0.396   3.759   1.897 -0.0491 -0.2367  0.2166
  257MOL   H11931351   0.509   3.639   2.128  0.1111  1.6751 -3.3441
  257MOL   H12031352   0.485   3.818   2.152 -0.9494  0.4493 -1.9386
  257MOL   H12131353   0.262   3.634   2.038 -1.8904  0.9253 -0.4056
  257MOL   H12231354   0.250   3.800   2.078 -0.9985 -0.7391  0.7022
  258MOL     C131355   7.754   6.987   6.913 -0.7781 -0.6723  0.1199
  258MOL     C231356   7.772   6.921   6.779  0.6089  0.4823 -0.4380
  258MOL    Cl331357   7.755   7.047   6.655 -0.1682 -0.0554 -0.0202
  258MOL     H431358   7.784   6.922   6.996  3.1178  0.0066 -0.6770
  258MOL     H531359   7.800   7.084   6.932  0.6710 -0.8841 -2.1563
  258MOL     H631360   7.872   6.880   6.775  1.4287  2.1084  2.1059
  258MOL     H731361   7.647   7.005   6.926 -0.5319 -0.1645  1.5398
  258MOL     C831362   7.663   6.815   6.741 -0.1671 -0.6832 -0.5741
  258MOL     C931363   7.661   6.692   6.834  0.3073 -0.2632 -0.3521
  258MOL   Cl1031364   7.814   6.609   6.860  0.4286 -0.1941 -0.6226
  258MOL    H1131365   7.683   6.791   6.637  0.1707 -2.5046 -0.1050
  258MOL    H1231366   7.567   6.866   6.751 -0.4501 -0.9925 -1.5995
  258MOL    H1331367   7.631   6.729   6.932  0.6951 -0.1144 -0.2898
  258MOL    C1431368   7.562   6.586   6.786  0.1707  0.0525 -0.1322
  258MOL    C1531369   7.417   6.629   6.761 -0.3569  0.6273 -0.2537
  258MOL   Cl1631370   7.343   6.673   6.915 -0.2747  0.0555 -0.1911
  258MOL    H1731371   7.560   6.512   6.866 -0.0606 -0.5094 -0.6509
  258MOL    H1831372   7.608   6.539   6.699  0.0681  0.6594 -0.5145
  258MOL    H1931373   7.405   6.719   6.702 -2.2819  1.5551  1.4551
  258MOL    C2031374   7.331   6.523   6.684 -0.7667 -0.2451 -0.0424
  258MOL    C2131375   7.387   6.452   6.562 -0.5636  0.4428  0.9245
  258MOL   Cl2231376   7.415   6.585   6.439  0.0522  0.1727 -0.1156
  258MOL    H2331377   7.240   6.579   6.664 -0.0783  1.1750  0.6961
  258MOL    H2431378   7.308   6.443   6.755 -0.1839 -0.0664  0.3539
  258MOL    H2531379   7.486   6.410   6.579  0.2107  2.6415  2.1811
  258MOL    C2631380   7.283   6.354   6.498 -0.1846  0.2129 -0.2670
  258MOL    C2731381   7.341   6.243   6.406  0.2219  0.0731 -0.1956
  258MOL   Cl2831382   7.448   6.148   6.512 -0.1003 -0.4964 -0.1991
  258MOL    H2931383   7.193   6.409   6.470 -0.5633  0.4654  1.3731
  258MOL    H3031384   7.253   6.297   6.586  0.3452 -0.3076 -0.4168
  258MOL    H3131385   7.258   6.175   6.389 -1.0629  1.1041  1.7134
  258MOL    C3231386   7.408   6.298   6.277 -0.0011 -0.1573  0.7996
  258MOL    C3331387   7.323   6.366   6.174 -0.0517  0.3081 -0.3079
  258MOL   Cl3431388   7.191   6.260   6.126 -0.0065 -0.1131 -0.5770
  258MOL    H3531389   7.454   6.218   6.218  2.4465  1.6375  0.1934
  258MOL    H3631390   7.491   6.365   6.300  0.2741 -0.3072  0.2451
  258MOL    H3731391   7.264   6.436   6.233  0.3668 -1.2518  2.0294
  258MOL    C3831392   7.419   6.427   6.063 -0.1389 -0.4052 -0.2421
  258MOL    C3931393   7.342   6.537   5.984 -0.6007  0.4735  0.4335
  258MOL   Cl4031394   7.445   6.611   5.852 -0.6598  0.0441  0.3211
  258MOL    H4131395   7.449   6.344   5.999  0.2221 -0.2821 -0.2322
  258MOL    H4231396   7.498   6.483   6.113 -1.0968  0.1822  0.6382
  258MOL    H4331397   7.258   6.482   5.943  0.4786  0.2439 -1.5159
  258MOL    C4431398   7.287   6.649   6.075 -0.0736 -0.6402  0.3344
  258MOL    C4531399   7.133   6.654   6.096  0.5128  0.1504  0.3725
  258MOL   Cl4631400   7.052   6.646   5.934  0.1772  0.2698 -0.2392
  258MOL    H4731401   7.325   6.743   6.036  1.6319 -0.8596  1.4298
  258MOL    H4831402   7.330   6.659   6.175  0.3410  1.3172 -0.0082
  258MOL    H4931403   7.096   6.568   6.152  0.9549  0.0782  0.5651
  258MOL    C5031404   7.092   6.783   6.167 -0.5830 -0.4172 -0.2554
  258MOL    C5131405   7.150   6.786   6.312  0.3207 -0.3967  0.1005
  258MOL   Cl5231406   7.074   6.653   6.412 -0.2236 -0.0511  0.0349
  258MOL    H5331407   6.983   6.784   6.169 -0.5829  0.1091 -0.2956
  258MOL    H5431408   7.123   6.872   6.111 -0.3178 -0.1820  0.2679
  258MOL    H5531409   7.257   6.770   6.321 -0.0464 -2.2119  1.3328
  258MOL    C5631410   7.119   6.929   6.365 -0.2298  0.3278  0.0726
  258MOL    C5731411   7.200   6.990   6.492  0.2134  0.6390 -0.0099
  258MOL   Cl5831412   7.368   7.016   6.446  0.0032  0.1834  0.0355
  258MOL    H5931413   7.014   6.937   6.391 -0.3774 -0.3680 -0.3047
  258MOL    H6031414   7.127   7.007   6.289 -1.8665 -0.5007 -0.9561
  258MOL    H6131415   7.168   7.092   6.514 -0.0263  0.4115  0.6894
  258MOL    C6231416   7.181   6.913   6.625  0.2651  0.4301  0.5753
  258MOL    C6331417   7.040   6.905   6.694 -0.0132 -0.0435  0.1438
  258MOL   Cl6431418   6.973   7.063   6.742  0.0662  0.3137  0.1807
  258MOL    H6531419   7.257   6.949   6.694  1.8674  0.2377 -1.0559
  258MOL    H6631420   7.216   6.812   6.603  0.3134  0.5911 -0.0882
  258MOL    H6731421   6.963   6.874   6.624 -0.7176  1.4637  0.2345
  258MOL    C6831422   7.049   6.805   6.812  0.3817  0.0547  0.0463
  258MOL    C6931423   6.921   6.762   6.884  0.2665 -0.1560 -0.0969
  258MOL   Cl7031424   6.847   6.905   6.958 -0.3810  0.0017  0.0947
  258MOL    H7131425   7.122   6.842   6.884  0.3640  0.1134  0.0350
  258MOL    H7231426   7.091   6.713   6.771  1.4852  0.0646  1.1138
  258MOL    H7331427   6.851   6.721   6.811  0.2436 -0.2619 -0.0150
  258MOL    C7431428   6.950   6.654   6.996  1.0805 -0.6314 -0.6500
  258MOL    C7531429   6.848   6.630   7.113  0.0894 -0.0249 -0.3878
  258MOL   Cl7631430   6.922   6.508   7.223  0.1014 -0.2918  0.0868
  258MOL    H7731431   7.033   6.696   7.051 -1.3200 -0.6927  3.2036
  258MOL    H7831432   6.976   6.555   6.958  1.4556 -0.6666 -0.2992
  258MOL    H7931433   6.835   6.724   7.166 -0.3390 -0.8317  0.9559
  258MOL    C8031434   6.703   6.596   7.077  0.0615 -0.8139  0.2878
  258MOL    C8131435   6.607   6.583   7.198 -0.5666 -0.3511 -0.5246
  258MOL   Cl8231436   6.453   6.516   7.135 -0.0655  0.2536 -0.1286
  258MOL    H8331437   6.694   6.503   7.021  2.5071 -1.8229  1.5146
  258MOL    H8431438   6.667   6.682   7.020  3.6878  0.2434 -0.5140
  258MOL    H8531439   6.643   6.506   7.266  0.6115  0.8604  0.2633
  258MOL    C8631440   6.585   6.727   7.269 -0.2100  0.4565 -0.3502
  258MOL    C8731441   6.468   6.739   7.372 -0.0398  0.2571 -0.3849
  258MOL   Cl8831442   6.464   6.915   7.422  0.0446  0.0890 -0.3022
  258MOL    H8931443   6.576   6.806   7.194  2.2943  0.6022 -0.5331
  258MOL    H9031444   6.681   6.752   7.314  0.0692 -0.4504 -0.4367
  258MOL    H9131445   6.371   6.720   7.326 -0.1404 -0.3936  0.1065
  258MOL    C9231446   6.490   6.650   7.494  0.3223 -0.2541  0.5757
  258MOL    C9331447   6.395   6.680   7.607  0.3408 -0.5662  0.5911
  258MOL   Cl9431448   6.464   6.806   7.717 -0.0368 -0.8104  0.1506
  258MOL    H9531449   6.594   6.640   7.524  0.1265 -0.5858  1.1429
  258MOL    H9631450   6.475   6.544   7.474 -0.6067 -0.0106 -0.0901
  258MOL    H9731451   6.303   6.723   7.567  0.4544  1.5249  2.5039
  258MOL    C9831452   6.360   6.556   7.696 -0.4250  0.2625  0.4818
  258MOL    C9931453   6.257   6.592   7.811 -0.2222 -0.3256  0.6113
  258MOL  Cl10031454   6.351   6.643   7.963  0.2347  0.2579 -0.3896
  258MOL   H10131455   6.451   6.513   7.737  0.8205  0.7055 -1.7455
  258MOL   H10231456   6.328   6.485   7.620  0.7734 -0.4635  0.6559
  258MOL   H10331457   6.195   6.676   7.779  0.2804 -0.0970  0.2360
  258MOL   C10431458   6.170   6.471   7.852  0.3808  0.7074  0.1456
  258MOL   C10531459   6.044   6.472   7.761 -0.6894 -0.2928  0.1296
  258MOL  Cl10631460   5.937   6.602   7.792  0.1209 -0.5580  0.1471
  258MOL   H10731461   6.149   6.476   7.959 -0.7051  0.2535 -0.0407
  258MOL   H10831462   6.224   6.376   7.842  1.0591  1.0223  0.7092
  258MOL   H10931463   6.065   6.479   7.654  2.1324  0.7100  0.7109
  258MOL   C11031464   5.975   6.338   7.775 -0.3410  0.6803 -0.7095
  258MOL   C11131465   5.847   6.307   7.689  0.1737  0.1091  0.6822
  258MOL  Cl11231466   5.772   6.159   7.750  0.3220  0.4436 -0.2816
  258MOL   H11331467   5.938   6.323   7.877 -0.6128  0.9592 -0.7632
  258MOL   H11431468   6.045   6.259   7.748 -0.1566  0.7860 -0.5429
  258MOL   H11531469   5.772   6.383   7.711 -0.7599 -1.1864  2.0544
  258MOL   C11631470   5.862   6.295   7.534  0.1106 -0.3690 -0.0827
  258MOL   C11731471   5.735   6.344   7.465 -0.4579  0.3081  0.2342
  258MOL  Cl11831472   5.741   6.320   7.288 -0.3573 -0.0285 -0.1603
  258MOL   H11931473   5.891   6.194   7.504  2.0364  0.2105 -0.2473
  258MOL   H12031474   5.942   6.366   7.511 -0.6005  0.2782 -0.5936
  258MOL   H12131475   5.648   6.286   7.496 -1.5798  1.5865 -0.4476
  258MOL   H12231476   5.705   6.446   7.488 -0.7698  0.0338  1.0628
  259MOL     C131477   2.776   1.706   2.857  0.7136  0.4585  0.5758
  259MOL     C231478   2.891   1.804   2.905  0.3951 -0.1645  1.0888
  259MOL    Cl331479   2.936   1.754   3.074  0.5590  0.2027  0.3079
  259MOL     H431480   2.816   1.607   2.879  1.0670 -0.3094 -3.2595
  259MOL     H531481   2.679   1.722   2.903  0.3860  1.1706 -0.3532
  259MOL     H631482   2.977   1.797   2.839 -1.1212 -2.1272 -0.7308
  259MOL     H731483   2.747   1.710   2.752 -1.4982 -2.2084  1.0425
  259MOL     C831484   2.859   1.960   2.898  0.0864  0.7426  1.0018
  259MOL     C931485   2.849   2.017   2.761 -0.0004 -0.4033  0.1994
  259MOL   Cl1031486   3.011   2.024   2.675 -0.0500 -0.5397 -0.0858
  259MOL    H1131487   2.926   2.015   2.963  1.3613 -2.8532  2.8390
  259MOL    H1231488   2.762   1.966   2.949 -0.9825 -2.3259 -0.5491
  259MOL    H1331489   2.781   1.947   2.714 -0.2741 -0.8158  1.1839
  259MOL    C1431490   2.779   2.164   2.773  0.2180  0.1535 -0.2502
  259MOL    C1531491   2.718   2.224   2.648 -0.5083  0.5094  0.4076
  259MOL   Cl1631492   2.581   2.117   2.606  0.3511 -0.3764  0.1258
  259MOL    H1731493   2.845   2.234   2.825 -1.1545  0.4975  1.0981
  259MOL    H1831494   2.689   2.155   2.834 -0.1299  0.7977 -0.6687
  259MOL    H1931495   2.680   2.320   2.683 -2.0747  0.3926 -0.8930
  259MOL    C2031496   2.815   2.251   2.525  0.2161  0.0609  0.6089
  259MOL    C2131497   2.742   2.310   2.407  0.3934 -0.0902  0.7284
  259MOL   Cl2231498   2.829   2.258   2.262 -0.2296  0.0436  0.0545
  259MOL    H2331499   2.872   2.162   2.499  2.3304  1.3840  0.6283
  259MOL    H2431500   2.891   2.322   2.559 -1.2861  0.3195  3.5541
  259MOL    H2531501   2.642   2.266   2.402  0.0927  0.6467  0.1446
  259MOL    C2631502   2.733   2.470   2.421 -0.0681  0.1655  0.3698
  259MOL    C2731503   2.650   2.546   2.311 -0.3341 -0.4134 -0.1732
  259MOL   Cl2831504   2.659   2.714   2.363  0.1100  0.0232  0.1078
  259MOL    H2931505   2.829   2.511   2.389 -0.2982  1.6232  1.5008
  259MOL    H3031506   2.733   2.505   2.524  0.6125  1.2047  0.0237
  259MOL    H3131507   2.684   2.548   2.208 -2.1653  2.2612 -0.7699
  259MOL    C3231508   2.506   2.503   2.318  0.5863 -0.1147 -0.4827
  259MOL    C3331509   2.450   2.443   2.194 -0.3907  0.5528 -0.3434
  259MOL   Cl3431510   2.407   2.578   2.092 -0.0874  0.4389 -0.0791
  259MOL    H3531511   2.450   2.587   2.356  0.1325 -0.3738 -0.5762
  259MOL    H3631512   2.482   2.430   2.395  1.5483 -1.0725 -1.0609
  259MOL    H3731513   2.525   2.392   2.133  0.2220  2.4636 -1.2330
  259MOL    C3831514   2.322   2.350   2.209 -0.2072  0.1377  0.8120
  259MOL    C3931515   2.263   2.300   2.084  0.8037 -0.0778 -0.4982
  259MOL   Cl4031516   2.132   2.189   2.139 -0.0589  0.1216  0.1585
  259MOL    H4131517   2.246   2.418   2.249 -1.6529  0.0586 -1.6894
  259MOL    H4231518   2.340   2.277   2.288  2.7361 -2.8197 -2.4566
  259MOL    H4331519   2.227   2.384   2.024  0.3733  0.5149  0.5644
  259MOL    C4431520   2.350   2.213   1.990 -0.3083 -0.7326  0.5578
  259MOL    C4531521   2.404   2.073   2.043 -0.0643 -0.3322 -0.8887
  259MOL   Cl4631522   2.517   2.115   2.176 -0.2751  0.0822 -0.2091
  259MOL    H4731523   2.433   2.268   1.946  0.3995 -1.8147  0.5328
  259MOL    H4831524   2.291   2.186   1.902 -0.2847  0.6832  0.1066
  259MOL    H4931525   2.325   2.005   2.076  0.0445 -0.6682 -1.3196
  259MOL    C5031526   2.487   2.020   1.925 -0.4291 -0.3381  0.0621
  259MOL    C5131527   2.552   1.885   1.957  0.5717  0.3473 -0.7594
  259MOL   Cl5231528   2.702   1.869   1.859  0.0819  0.1927  0.5125
  259MOL    H5331529   2.566   2.093   1.909  0.6018 -1.0487  1.6881
  259MOL    H5431530   2.428   2.015   1.834 -0.5718 -0.7101  0.1718
  259MOL    H5531531   2.590   1.869   2.058  2.5136  0.2695 -1.4835
  259MOL    C5631532   2.451   1.766   1.938 -0.5072  0.4027  0.3946
  259MOL    C5731533   2.529   1.633   1.971 -0.4392 -0.7285  0.2165
  259MOL   Cl5831534   2.412   1.497   1.982 -0.3044 -0.0695  0.6943
  259MOL    H5931535   2.412   1.760   1.836  0.8248  1.6252 -0.2060
  259MOL    H6031536   2.374   1.783   2.013 -1.8337  1.8225 -1.2456
  259MOL    H6131537   2.588   1.602   1.885 -0.3175 -2.0964  0.7867
  259MOL    C6231538   2.623   1.618   2.098 -0.3803  0.2406  0.3502
  259MOL    C6331539   2.679   1.478   2.125  0.1118  0.1483 -0.1711
  259MOL   Cl6431540   2.800   1.491   2.254  0.0124  0.0968  0.1879
  259MOL    H6531541   2.564   1.652   2.182 -0.5360 -0.8409  0.6918
  259MOL    H6631542   2.715   1.677   2.094 -0.3829  0.2080 -0.4015
  259MOL    H6731543   2.596   1.421   2.167  0.5848 -0.4969 -0.0981
  259MOL    C6831544   2.742   1.397   2.012  0.4910 -0.5032 -1.1613
  259MOL    C6931545   2.772   1.253   2.044 -0.5118 -0.1048 -0.3282
  259MOL   Cl7031546   2.836   1.172   1.892 -0.2125 -0.2852  0.3486
  259MOL    H7131547   2.833   1.444   1.977  1.6371 -1.2004  0.7903
  259MOL    H7231548   2.677   1.381   1.926  1.4421 -1.5581 -1.6881
  259MOL    H7331549   2.853   1.252   2.117  0.9337 -0.4130 -1.9040
  259MOL    C7431550   2.655   1.169   2.100  0.7152  0.1859  0.2679
  259MOL    C7531551   2.689   1.023   2.125 -0.3415  0.1579 -0.1624
  259MOL   Cl7631552   2.556   0.943   2.197  0.5811 -0.1601  0.3761
  259MOL    H7731553   2.565   1.184   2.040  0.4067  0.4156  0.7775
  259MOL    H7831554   2.610   1.207   2.192 -1.9274 -0.7423 -0.6056
  259MOL    H7931555   2.700   0.971   2.030  1.3624  0.2283 -0.0151
  259MOL    C8031556   2.821   0.997   2.205  0.1281 -0.1589  0.1340
  259MOL    C8131557   2.821   1.054   2.346  0.3832  0.0436  0.9705
  259MOL   Cl8231558   2.976   1.141   2.370  0.0688 -0.0718  0.1279
  259MOL    H8331559   2.910   1.034   2.155  0.4803  1.3348  1.8156
  259MOL    H8431560   2.850   0.892   2.203  0.8919  0.0461  0.3685
  259MOL    H8531561   2.738   1.125   2.350  0.3892  0.0760  0.5308
  259MOL    C8631562   2.806   0.951   2.456  0.5950 -0.5595  0.2152
  259MOL    C8731563   2.761   1.017   2.594 -0.8098 -0.3632  0.1870
  259MOL   Cl8831564   2.834   0.932   2.735 -0.2865  0.1150 -0.1230
  259MOL    H8931565   2.902   0.900   2.458  1.2157  0.3766 -3.0486
  259MOL    H9031566   2.731   0.878   2.425  1.1616 -0.1474 -2.2041
  259MOL    H9131567   2.794   1.120   2.609 -1.5405 -0.1076  0.0629
  259MOL    C9231568   2.610   1.021   2.621 -0.4402 -0.7804  0.2102
  259MOL    C9331569   2.551   1.090   2.746  0.2745 -0.0079  0.0463
  259MOL   Cl9431570   2.378   1.048   2.769  0.2614 -0.4028 -0.5636
  259MOL    H9531571   2.566   0.921   2.622  0.9880 -1.4234  0.4864
  259MOL    H9631572   2.561   1.070   2.537  0.4375 -0.4739 -0.1271
  259MOL    H9731573   2.602   1.041   2.829  1.2178  0.1976 -0.4047
  259MOL    C9831574   2.572   1.237   2.759  0.4289  0.7027  0.0587
  259MOL    C9931575   2.516   1.317   2.644  0.4317 -0.3382 -0.1956
  259MOL  Cl10031576   2.628   1.318   2.508 -0.4995 -0.3514  0.1858
  259MOL   H10131577   2.677   1.259   2.779  0.2808  2.0614 -0.6006
  259MOL   H10231578   2.522   1.261   2.853  0.0926  0.2438 -0.0010
  259MOL   H10331579   2.425   1.277   2.600  0.0168 -0.2477  0.5570
  259MOL   C10431580   2.499   1.461   2.691 -0.3780  0.2562 -0.1020
  259MOL   C10531581   2.411   1.544   2.601 -0.0703 -0.1260  0.3063
  259MOL  Cl10631582   2.428   1.713   2.655 -0.2948 -0.1367 -0.2460
  259MOL   H10731583   2.596   1.512   2.699  0.5847 -1.9888  3.2505
  259MOL   H10831584   2.459   1.467   2.792  0.3986  0.1298  0.2195
  259MOL   H10931585   2.444   1.541   2.497  0.7297 -3.4028  0.6031
  259MOL   C11031586   2.254   1.502   2.605  0.2516  0.0398  0.6652
  259MOL   C11131587   2.152   1.580   2.525  0.0319  0.2277  0.1993
  259MOL  Cl11231588   2.008   1.567   2.623  0.4697 -0.6267  0.1563
  259MOL   H11331589   2.226   1.520   2.709 -0.2325  0.3197  0.4896
  259MOL   H11431590   2.236   1.397   2.582  0.0608  0.0798  0.6305
  259MOL   H11531591   2.187   1.683   2.521  0.4064  0.0637 -0.8322
  259MOL   C11631592   2.128   1.528   2.382  0.0757  0.3704  0.4183
  259MOL   C11731593   2.074   1.636   2.291 -0.7448  0.0983 -0.1745
  259MOL  Cl11831594   2.203   1.764   2.254  0.1054  0.3050 -0.5886
  259MOL   H11931595   2.056   1.446   2.376  0.7395 -0.2423  0.6861
  259MOL   H12031596   2.217   1.481   2.339 -0.0837  1.4310 -1.1253
  259MOL   H12131597   2.039   1.584   2.202  1.0738  2.3833 -2.3012
  259MOL   H12231598   1.993   1.697   2.330  0.1248  1.1910 -0.0359
  260MOL     C131599   1.236   3.634   6.002  0.3301  0.4713  0.4061
  260MOL     C231600   1.302   3.564   5.883  0.6305  0.6417 -0.2728
  260MOL    Cl331601   1.462   3.497   5.921  0.2418  0.0891 -0.1913
  260MOL     H431602   1.307   3.696   6.057  1.3453  0.5105 -0.9320
  260MOL     H531603   1.154   3.701   5.974 -0.5470 -0.9974 -0.6084
  260MOL     H631604   1.232   3.481   5.878 -0.6373  1.3537  3.9284
  260MOL     H731605   1.211   3.558   6.076  1.9515 -0.5671 -0.0976
  260MOL     C831606   1.295   3.642   5.755  0.7799 -0.9641 -0.2919
  260MOL     C931607   1.311   3.563   5.615  1.0961  0.1796  0.1985
  260MOL   Cl1031608   1.188   3.440   5.597 -0.0350  0.1002 -0.1847
  260MOL    H1131609   1.372   3.719   5.759 -1.7504  1.5746  0.6862
  260MOL    H1231610   1.203   3.701   5.750  1.0150 -0.4740  1.1494
  260MOL    H1331611   1.292   3.631   5.532  0.3812  2.0211  1.8258
  260MOL    C1431612   1.443   3.493   5.583 -0.0112 -0.1782  0.1102
  260MOL    C1531613   1.571   3.585   5.593  0.2362  0.0587 -0.0842
  260MOL   Cl1631614   1.547   3.738   5.510 -0.0309  0.1685 -0.4866
  260MOL    H1731615   1.444   3.463   5.479  0.1192  1.0557 -0.2572
  260MOL    H1831616   1.459   3.399   5.635 -4.9220 -1.4544 -0.4291
  260MOL    H1931617   1.587   3.602   5.700 -0.4182  4.6856 -0.6215
  260MOL    C2031618   1.690   3.515   5.536 -0.6884  0.1144 -0.0911
  260MOL    C2131619   1.757   3.417   5.636  0.2499  0.8192  0.1834
  260MOL   Cl2231620   1.814   3.492   5.792 -0.3691 -0.1816 -0.1857
  260MOL    H2331621   1.759   3.592   5.502 -2.1922  1.0177 -1.1545
  260MOL    H2431622   1.664   3.465   5.443 -0.9501  0.6182 -0.2923
  260MOL    H2531623   1.677   3.355   5.676 -0.0844  2.1625  1.6330
  260MOL    C2631624   1.868   3.339   5.568 -0.4389  0.5449 -0.2483
  260MOL    C2731625   1.939   3.232   5.657  0.2922  0.6504 -0.6589
  260MOL   Cl2831626   2.075   3.183   5.550 -0.3301  0.0841 -0.4673
  260MOL    H2931627   1.941   3.417   5.545  1.8845 -0.9801  1.6923
  260MOL    H3031628   1.845   3.295   5.471 -0.9106  0.2970 -0.0247
  260MOL    H3131629   1.973   3.270   5.753 -1.0937 -0.7839  0.4264
  260MOL    C3231630   1.839   3.117   5.683 -0.1720  0.0383 -0.3666
  260MOL    C3331631   1.915   2.988   5.747  0.4460 -0.2613  0.3100
  260MOL   Cl3431632   1.793   2.855   5.763 -0.2373  0.0612 -0.0444
  260MOL    H3531633   1.789   3.090   5.591  1.0106 -1.7850 -0.5097
  260MOL    H3631634   1.762   3.155   5.750 -1.3632 -0.4762 -1.4279
  260MOL    H3731635   1.995   2.943   5.687  0.4302  1.5740 -1.1426
  260MOL    C3831636   1.971   3.026   5.882 -0.1062  0.8685 -0.2197
  260MOL    C3931637   2.032   2.907   5.941  0.2496  0.0351  0.1309
  260MOL   Cl4031638   2.003   2.919   6.115  0.0366  0.1560  0.4139
  260MOL    H4131639   1.895   3.071   5.946  1.5617  0.9671  1.7564
  260MOL    H4231640   2.056   3.091   5.865 -0.2444  0.9689 -0.5181
  260MOL    H4331641   1.991   2.812   5.904  0.9847 -1.5719  3.3219
  260MOL    C4431642   2.186   2.883   5.935  0.2958  0.1791  0.3553
  260MOL    C4531643   2.254   2.849   5.799  0.4731 -0.1158  0.1907
  260MOL   Cl4631644   2.257   2.983   5.680 -0.1670  0.2515  0.3967
  260MOL    H4731645   2.205   2.799   6.001 -2.6726 -1.6982 -1.0887
  260MOL    H4831646   2.228   2.976   5.973  1.4260  0.1758 -0.8608
  260MOL    H4931647   2.356   2.820   5.823  0.9606  2.4336  1.3813
  260MOL    C5031648   2.196   2.723   5.727 -0.4003  0.0856  0.2988
  260MOL    C5131649   2.187   2.598   5.813  0.7582  0.2616  0.5531
  260MOL   Cl5231650   2.345   2.569   5.890  0.0938 -0.1054 -0.1833
  260MOL    H5331651   2.265   2.698   5.646 -2.3900 -2.2475 -0.7171
  260MOL    H5431652   2.102   2.734   5.674  0.7314  1.2124 -1.5476
  260MOL    H5531653   2.118   2.624   5.893  1.4619  0.5761  1.0721
  260MOL    C5631654   2.162   2.462   5.746  0.2377 -0.1543  0.0839
  260MOL    C5731655   2.045   2.452   5.638 -1.1660 -0.5053  0.0653
  260MOL   Cl5831656   1.898   2.506   5.715  0.0998  0.1630  0.4213
  260MOL    H5931657   2.151   2.389   5.826  1.1452 -0.4781 -0.0824
  260MOL    H6031658   2.255   2.432   5.699 -1.0494 -1.4834 -1.6700
  260MOL    H6131659   2.065   2.522   5.557  1.0636  1.0554  1.8960
  260MOL    C6231660   2.014   2.309   5.588  1.0007 -0.5383  0.3415
  260MOL    C6331661   2.128   2.245   5.508  0.5392 -0.7304 -0.2527
  260MOL   Cl6431662   2.156   2.350   5.369 -0.0443  0.0554  0.1416
  260MOL    H6531663   1.921   2.304   5.531  0.1421  0.9849  1.5523
  260MOL    H6631664   1.986   2.247   5.673 -0.2934 -1.3509 -0.6626
  260MOL    H6731665   2.219   2.248   5.569 -0.5417 -0.6117  1.3891
  260MOL    C6831666   2.107   2.103   5.451  0.1993 -0.1187  0.3266
  260MOL    C6931667   2.080   1.991   5.550  0.0404 -0.1282 -0.1553
  260MOL   Cl7031668   2.226   1.970   5.653 -0.4164  0.0179  0.6603
  260MOL    H7131669   2.195   2.077   5.391 -0.2963  0.1464 -0.5246
  260MOL    H7231670   2.021   2.099   5.384  0.5003 -0.4321 -0.0491
  260MOL    H7331671   1.995   2.019   5.612  0.8997  1.2527  0.4489
  260MOL    C7431672   2.050   1.860   5.475  0.8792 -0.4126 -0.3893
  260MOL    C7531673   2.022   1.735   5.563  0.0994 -0.2382  0.3728
  260MOL   Cl7631674   1.964   1.612   5.452 -0.2683 -0.0143  0.1186
  260MOL    H7731675   2.124   1.827   5.402  0.1204  0.4213 -1.5522
  260MOL    H7831676   1.958   1.890   5.424  0.8928  1.2857  0.5704
  260MOL    H7931677   2.121   1.707   5.598  1.1119  1.6626 -0.9138
  260MOL    C8031678   1.911   1.758   5.667  0.6600  0.3725  0.3519
  260MOL    C8131679   1.880   1.625   5.746  0.3957 -0.4252 -0.1394
  260MOL   Cl8231680   1.749   1.672   5.848  0.3228 -0.4767  0.3525
  260MOL    H8331681   1.823   1.796   5.616  0.6405 -0.4204 -0.2095
  260MOL    H8431682   1.957   1.832   5.733 -2.0496  0.9251  1.6937
  260MOL    H8531683   1.846   1.541   5.686 -0.5383 -0.9338  1.0859
  260MOL    C8631684   1.993   1.580   5.845 -0.7148 -0.0778 -0.0525
  260MOL    C8731685   1.961   1.451   5.927 -0.3345 -0.2348  0.6574
  260MOL   Cl8831686   1.879   1.321   5.841  0.1394  0.0210  0.3337
  260MOL    H8931687   2.041   1.657   5.905 -0.6471 -1.5125  1.7932
  260MOL    H9031688   2.082   1.557   5.785  0.0278  0.4896  0.8227
  260MOL    H9131689   2.063   1.419   5.948  0.3173  1.4780  0.2330
  260MOL    C9231690   1.892   1.476   6.058  0.2198  0.3098  0.5948
  260MOL    C9331691   1.945   1.588   6.148 -0.1451  0.7089  0.4162
  260MOL   Cl9431692   2.116   1.561   6.187 -0.2597 -0.2584 -0.1354
  260MOL    H9531693   1.876   1.380   6.109 -0.6252 -0.5909 -1.3000
  260MOL    H9631694   1.788   1.503   6.043  0.5193  0.2615 -1.7135
  260MOL    H9731695   1.935   1.684   6.098 -1.6633  1.2805  1.7572
  260MOL    C9831696   1.874   1.603   6.292  0.0081 -0.1813 -0.9802
  260MOL    C9931697   1.723   1.621   6.302  1.5079  0.7206  0.1422
  260MOL  Cl10031698   1.654   1.743   6.178  0.1154  0.0100  0.0905
  260MOL   H10131699   1.917   1.682   6.353 -0.6424 -0.1853 -0.5126
  260MOL   H10231700   1.903   1.507   6.334  1.6308  0.5012 -0.5153
  260MOL   H10331701   1.665   1.534   6.269 -0.2288  1.5610  0.8770
  260MOL   C10431702   1.672   1.673   6.441  0.3702  0.6423 -0.0341
  260MOL   C10531703   1.712   1.574   6.558 -0.2662 -0.3351  0.4676
  260MOL  Cl10631704   1.598   1.437   6.555 -0.3202  0.2288  0.3017
  260MOL   H10731705   1.564   1.674   6.435  0.2265  1.3603  2.3797
  260MOL   H10831706   1.712   1.772   6.464 -0.8434  1.1291  0.0286
  260MOL   H10931707   1.815   1.539   6.552  0.7208  2.0941  2.5028
  260MOL   C11031708   1.692   1.643   6.701  0.9799  0.0438  0.6714
  260MOL   C11131709   1.793   1.757   6.736 -0.3973 -0.1572 -0.8540
  260MOL  Cl11231710   1.959   1.703   6.744  0.0167 -0.0688 -0.4895
  260MOL   H11331711   1.707   1.568   6.778  1.6544 -0.5984 -0.0692
  260MOL   H11431712   1.591   1.683   6.704  0.2980 -1.6763  0.6820
  260MOL   H11531713   1.803   1.821   6.649  3.4682  2.9481  1.7181
  260MOL   C11631714   1.748   1.844   6.855  0.0404  1.1164  0.4952
  260MOL   C11731715   1.738   1.776   6.990 -0.6625  0.2812 -1.0465
  260MOL  Cl11831716   1.723   1.898   7.118  0.0801  0.4131 -0.1275
  260MOL   H11931717   1.651   1.884   6.825 -0.5284 -1.1099 -0.7494
  260MOL   H12031718   1.829   1.916   6.868  2.7896 -1.8577  0.5211
  260MOL   H12131719   1.652   1.711   7.009 -1.8208  2.5289  1.7561
  260MOL   H12231720   1.825   1.712   7.004  0.0980  1.3688 -0.7646
  261MOL     C131721   6.071   7.373   7.206 -0.1312  0.4155  0.1816
  261MOL     C231722   6.206   7.376   7.138 -0.1501  0.4377 -0.3145
  261MOL    Cl331723   6.184   7.439   6.975 -0.1686  0.0308  0.1692
  261MOL     H431724   5.998   7.317   7.147  0.0584  0.5632 -0.1887
  261MOL     H531725   6.084   7.324   7.303  0.9002  1.9041  0.8128
  261MOL     H631726   6.271   7.439   7.198 -0.6622 -0.1719  0.8973
  261MOL     H731727   6.041   7.474   7.234 -1.6991 -0.5021  1.9443
  261MOL     C831728   6.258   7.229   7.142 -0.5286 -0.4652 -0.9502
  261MOL     C931729   6.185   7.119   7.069  0.4351  0.2131 -0.1843
  261MOL   Cl1031730   6.058   7.038   7.160 -0.3299  0.4198  0.3403
  261MOL    H1131731   6.273   7.198   7.246  2.2249 -1.7432 -1.6757
  261MOL    H1231732   6.354   7.239   7.090 -0.7648  3.2153 -0.7731
  261MOL    H1331733   6.138   7.157   6.978 -1.3863 -1.4326  0.0436
  261MOL    C1431734   6.289   7.011   7.024  0.8558 -0.9884 -0.4219
  261MOL    C1531735   6.244   6.888   6.949  1.0037 -0.3923 -0.4064
  261MOL   Cl1631736   6.378   6.773   6.952 -0.1899 -0.0777  0.0271
  261MOL    H1731737   6.347   6.972   7.108  3.3977  2.4447 -0.4817
  261MOL    H1831738   6.357   7.070   6.963  1.3506  1.0962  2.0302
  261MOL    H1931739   6.170   6.847   7.019  0.6902  0.0144 -0.4966
  261MOL    C2031740   6.202   6.919   6.803  0.0313  0.3685 -0.1793
  261MOL    C2131741   6.107   6.822   6.738  0.3281 -0.5085  0.3169
  261MOL   Cl2231742   5.973   6.795   6.845  0.5603  0.2835 -0.0261
  261MOL    H2331743   6.293   6.942   6.748  1.7730 -1.9229  1.6297
  261MOL    H2431744   6.157   7.018   6.796  0.7621  0.6805 -0.5809
  261MOL    H2531745   6.055   6.860   6.650 -1.5594 -0.7991  1.2614
  261MOL    C2631746   6.168   6.676   6.710  0.4288 -0.7515  0.3443
  261MOL    C2731747   6.286   6.675   6.609  0.2000 -0.3798 -0.6849
  261MOL   Cl2831748   6.233   6.744   6.457 -0.2914 -0.0793 -0.7200
  261MOL    H2931749   6.094   6.614   6.660  2.8709 -3.2835 -0.2508
  261MOL    H3031750   6.207   6.634   6.803 -0.8230  0.9539  1.6749
  261MOL    H3131751   6.362   6.746   6.643 -1.2330  0.4749  0.7856
  261MOL    C3231752   6.337   6.530   6.588 -0.1029  0.0614  0.3088
  261MOL    C3331753   6.419   6.463   6.702 -0.5387 -1.1708  0.6822
  261MOL   Cl3431754   6.570   6.553   6.733 -0.0266 -0.0147  0.0167
  261MOL    H3531755   6.395   6.539   6.496 -1.1598  2.5170 -0.1568
  261MOL    H3631756   6.255   6.468   6.551  0.8922 -1.4495  0.5687
  261MOL    H3731757   6.364   6.470   6.796 -1.4078  0.0234  0.1033
  261MOL    C3831758   6.460   6.321   6.657 -0.2806 -0.4787 -0.3880
  261MOL    C3931759   6.543   6.239   6.769  0.2674  0.1485  0.2411
  261MOL   Cl4031760   6.578   6.080   6.688 -0.2663 -0.3431 -0.2741
  261MOL    H4131761   6.503   6.328   6.557 -0.0991  0.6226 -0.2311
  261MOL    H4231762   6.359   6.284   6.636 -0.6222  0.1648  0.1023
  261MOL    H4331763   6.642   6.284   6.777  0.9777 -1.1157 -1.1618
  261MOL    C4431764   6.467   6.216   6.900  0.1958 -0.1556  0.3374
  261MOL    C4531765   6.534   6.116   7.001  0.1300 -0.2894  0.2117
  261MOL   Cl4631766   6.417   6.090   7.131  0.0901 -0.4194 -0.0660
  261MOL    H4731767   6.368   6.170   6.890 -0.0456  0.4920 -0.3268
  261MOL    H4831768   6.441   6.313   6.944  1.1665  0.8838 -1.3014
  261MOL    H4931769   6.551   6.015   6.963  1.8983 -0.5365  1.6267
  261MOL    C5031770   6.670   6.159   7.049 -0.2792  0.3029 -0.0514
  261MOL    C5131771   6.741   6.034   7.118  0.0281  0.5565 -0.3332
  261MOL   Cl5231772   6.675   6.006   7.284 -0.1029  0.0672 -0.0201
  261MOL    H5331773   6.685   6.253   7.102 -0.1278 -0.6104  1.5700
  261MOL    H5431774   6.722   6.178   6.955 -0.1492  4.5081  0.7623
  261MOL    H5531775   6.727   5.943   7.059  1.6137  0.3844 -0.4732
  261MOL    C5631776   6.896   6.054   7.137  0.5919  0.5748  0.3806
  261MOL    C5731777   6.980   6.042   7.019 -1.2151  0.5146  0.0580
  261MOL   Cl5831778   6.976   5.880   6.962 -0.0077  0.4591 -0.1793
  261MOL    H5931779   6.934   5.982   7.209 -0.3657 -3.1905 -2.7432
  261MOL    H6031780   6.894   6.155   7.179 -0.7649  0.5962  0.2948
  261MOL    H6131781   6.951   6.111   6.940  0.0155  0.1299 -0.7433
  261MOL    C6231782   7.128   6.070   7.039 -0.5047 -0.2445  0.4136
  261MOL    C6331783   7.164   6.213   7.080  0.0640  0.9566  0.2441
  261MOL   Cl6431784   7.114   6.313   6.943 -0.1413 -0.4445 -0.3494
  261MOL    H6531785   7.191   6.038   6.956 -1.8568  0.9081 -1.0727
  261MOL    H6631786   7.167   6.018   7.127  0.9014 -1.9535 -1.1691
  261MOL    H6731787   7.099   6.249   7.160 -0.2933 -0.0951  0.4337
  261MOL    C6831788   7.311   6.237   7.110  0.5613  0.1318 -0.3904
  261MOL    C6931789   7.351   6.375   7.168 -0.5503 -0.2313  0.4192
  261MOL   Cl7031790   7.526   6.401   7.174  0.1373  0.3467 -0.3105
  261MOL    H7131791   7.377   6.230   7.024 -0.0285  1.1430 -0.9424
  261MOL    H7231792   7.343   6.156   7.176  0.0114  0.6669  0.5463
  261MOL    H7331793   7.313   6.453   7.101 -1.3607 -0.1404  0.9751
  261MOL    C7431794   7.305   6.401   7.313  0.3180  0.2875  0.4088
  261MOL    C7531795   7.338   6.543   7.375 -0.5048 -0.3314  0.4260
  261MOL   Cl7631796   7.243   6.562   7.532 -0.1481 -0.3951  0.1031
  261MOL    H7731797   7.340   6.328   7.386 -0.1312  1.1595  1.5138
  261MOL    H7831798   7.196   6.395   7.313  0.1713  2.3592 -0.1039
  261MOL    H7931799   7.444   6.545   7.403 -0.3577  0.7388 -0.2193
  261MOL    C8031800   7.308   6.662   7.285  0.4716 -0.0752  0.5215
  261MOL    C8131801   7.360   6.795   7.347 -0.0988 -0.4041  0.1795
  261MOL   Cl8231802   7.238   6.914   7.284 -0.2060 -0.4208 -0.1376
  261MOL    H8331803   7.199   6.661   7.288  0.4093  1.0349 -0.8004
  261MOL    H8431804   7.339   6.641   7.183 -1.0842  0.5034 -0.0779
  261MOL    H8531805   7.362   6.785   7.455  0.7121 -0.4424  0.1648
  261MOL    C8631806   7.502   6.827   7.290 -0.1539 -0.2968  0.5965
  261MOL    C8731807   7.568   6.950   7.350  0.6673  0.1673 -0.1509
  261MOL   Cl8831808   7.707   7.002   7.257 -0.1369  0.0531  0.0842
  261MOL    H8931809   7.480   6.860   7.189 -2.7327  1.2420  1.6191
  261MOL    H9031810   7.556   6.732   7.282  1.0356  0.4445 -0.3400
  261MOL    H9131811   7.499   7.034   7.346 -0.0687 -0.4914 -1.6437
  261MOL    C9231812   7.601   6.952   7.499  0.4064 -0.0808  0.5505
  261MOL    C9331813   7.703   6.850   7.548 -0.1097 -0.8767  0.3129
  261MOL   Cl9431814   7.611   6.700   7.574 -0.1658 -0.0235 -0.1747
  261MOL    H9531815   7.508   6.954   7.556  0.9766  0.2925  1.4635
  261MOL    H9631816   7.648   7.049   7.516  1.3642 -0.7790  1.9748
  261MOL    H9731817   7.782   6.832   7.475 -2.8546 -0.0941 -2.9789
  261MOL    C9831818   7.766   6.889   7.684 -0.6009  0.2081  0.0164
  261MOL    C9931819   7.831   6.771   7.767 -0.2293  0.5267 -0.3432
  261MOL  Cl10031820   7.889   6.835   7.915 -0.3600  0.1881  0.2358
  261MOL   H10131821   7.695   6.924   7.759 -1.8864 -3.5097  0.6463
  261MOL   H10231822   7.841   6.963   7.656  1.5248 -0.8230  2.7926
  261MOL   H10331823   7.760   6.698   7.807  0.2780 -0.3604 -1.0379
  261MOL   C10431824   7.951   6.712   7.692  0.3811  0.4062 -0.0969
  261MOL   C10531825   8.016   6.577   7.740  0.4517 -0.4427 -0.3698
  261MOL  Cl10631826   8.143   6.553   7.614 -0.0565 -0.0877  0.0846
  261MOL   H10731827   8.029   6.786   7.676 -0.8513  1.5431 -0.8218
  261MOL   H10831828   7.912   6.689   7.593  1.4367  1.2244 -0.7203
  261MOL   H10931829   8.074   6.596   7.830 -3.1965  1.4858  1.6749
  261MOL   C11031830   7.921   6.460   7.762  0.2383 -0.0276  0.6883
  261MOL   C11131831   7.991   6.324   7.807 -0.0892  0.1855  0.5838
  261MOL  Cl11231832   8.067   6.241   7.669  0.6756 -0.0938  0.1785
  261MOL   H11331833   7.859   6.442   7.674 -0.3398  0.5250  0.9772
  261MOL   H11431834   7.857   6.493   7.844 -1.8937  1.2397 -1.4233
  261MOL   H11531835   8.066   6.357   7.879 -1.5574 -1.0400  2.7323
  261MOL   C11631836   7.900   6.218   7.865  0.0609  0.4961  0.0366
  261MOL   C11731837   7.953   6.106   7.955 -0.0534 -0.7650 -0.2822
  261MOL  Cl11831838   7.826   6.005   8.023  0.0259 -0.0626 -0.1420
  261MOL   H11931839   7.851   6.168   7.782  0.6269  2.1809 -1.3517
  261MOL   H12031840   7.816   6.271   7.908 -0.1149  1.7661 -1.8100
  261MOL   H12131841   8.014   6.042   7.892 -1.8424 -0.9506 -1.8746
  261MOL   H12231842   7.998   6.141   8.048 -1.2320 -0.4897  0.1963
  262MOL     C131843   7.796   1.161   5.525 -0.2069  0.0885  0.0873
  262MOL     C231844   7.734   1.281   5.461  0.6467  0.4383 -0.7815
  262MOL    Cl331845   7.844   1.403   5.504  0.3276 -0.0433 -0.2204
  262MOL     H431846   7.741   1.072   5.493 -1.5347  1.3119 -1.1083
  262MOL     H531847   7.901   1.150   5.502  0.0360 -0.0243  1.2164
  262MOL     H631848   7.725   1.269   5.353  0.9251  0.9040 -0.8589
  262MOL     H731849   7.783   1.160   5.634 -0.1164  0.4500  0.1000
  262MOL     C831850   7.598   1.314   5.527  0.4141  0.5540 -0.0012
  262MOL     C931851   7.515   1.410   5.438 -0.6798 -0.3658  0.2185
  262MOL   Cl1031852   7.564   1.582   5.466 -0.0633 -0.0895 -0.0228
  262MOL    H1131853   7.602   1.361   5.625 -1.1445 -0.8348  0.7567
  262MOL    H1231854   7.545   1.219   5.526  1.5147 -0.0857  1.7780
  262MOL    H1331855   7.535   1.394   5.332  0.3165  1.5705  0.0892
  262MOL    C1431856   7.363   1.408   5.468 -0.5201 -0.0821  0.6188
  262MOL    C1531857   7.298   1.268   5.447  0.2602  0.3996 -0.0073
  262MOL   Cl1631858   7.301   1.215   5.278  0.0113  0.1156 -0.1206
  262MOL    H1731859   7.325   1.473   5.390  0.1239  0.7590  0.9975
  262MOL    H1831860   7.339   1.456   5.563  0.3206 -0.0532  0.8270
  262MOL    H1931861   7.342   1.181   5.496  0.3633  0.5557  0.1759
  262MOL    C2031862   7.148   1.272   5.490 -0.2377 -0.0261  0.4645
  262MOL    C2131863   7.125   1.294   5.644  0.8397 -0.2491 -0.2523
  262MOL   Cl2231864   7.237   1.187   5.739 -0.0963 -0.3229  0.1522
  262MOL    H2331865   7.108   1.177   5.457 -2.2947  1.3389 -1.0652
  262MOL    H2431866   7.103   1.347   5.426 -0.3640 -2.0911 -1.9223
  262MOL    H2531867   7.136   1.396   5.681 -1.9786 -0.7883  2.2887
  262MOL    C2631868   6.975   1.260   5.687 -0.0316 -0.6391  0.0790
  262MOL    C2731869   6.869   1.351   5.627 -0.7515  0.6908  0.3224
  262MOL   Cl2831870   6.893   1.518   5.676 -0.4161 -0.5999 -0.7185
  262MOL    H2931871   6.974   1.263   5.796 -0.7954 -1.4948  0.1006
  262MOL    H3031872   6.954   1.155   5.664  0.7885 -0.0935 -3.4127
  262MOL    H3131873   6.885   1.344   5.519  0.6329  1.6520  0.4520
  262MOL    C3231874   6.717   1.314   5.664  0.4590 -0.7782 -0.0591
  262MOL    C3331875   6.619   1.391   5.567 -0.5708  0.5793  0.0239
  262MOL   Cl3431876   6.475   1.440   5.652 -0.0283 -0.0959 -0.0537
  262MOL    H3531877   6.688   1.351   5.762 -0.5210  1.4981 -1.1481
  262MOL    H3631878   6.704   1.207   5.655  0.8682 -0.8788  0.5819
  262MOL    H3731879   6.667   1.486   5.541  1.3342  0.4072  2.6824
  262MOL    C3831880   6.588   1.301   5.433  0.1721  0.7581 -0.9815
  262MOL    C3931881   6.493   1.357   5.337  0.7877  0.1498 -0.0841
  262MOL   Cl4031882   6.405   1.231   5.256  0.0541  0.0810 -0.1064
  262MOL    H4131883   6.546   1.210   5.475 -0.3556  0.1621 -2.7671
  262MOL    H4231884   6.675   1.257   5.386  1.3690  1.4702  0.5218
  262MOL    H4331885   6.418   1.415   5.391  0.7969 -0.7471  0.9165
  262MOL    C4431886   6.551   1.452   5.232 -0.4874 -0.3396 -0.2696
  262MOL    C4531887   6.445   1.531   5.140  0.8828 -0.3977  0.0385
  262MOL   Cl4631888   6.530   1.598   5.007 -0.0660 -0.6513 -0.5029
  262MOL    H4731889   6.620   1.387   5.177  0.3077 -1.3643  1.9018
  262MOL    H4831890   6.611   1.534   5.271 -3.2721  2.0640 -0.9099
  262MOL    H4931891   6.370   1.463   5.099 -0.7077  1.5476 -0.3656
  262MOL    C5031892   6.378   1.654   5.214 -0.0700 -0.5801  0.1874
  262MOL    C5131893   6.272   1.722   5.123  0.2869  0.7623 -0.3591
  262MOL   Cl5231894   6.207   1.841   5.228 -0.0308 -0.0020 -0.1154
  262MOL    H5331895   6.447   1.731   5.247  0.7022 -0.4958 -1.5759
  262MOL    H5431896   6.325   1.625   5.305  2.6157  2.2791  2.7402
  262MOL    H5531897   6.319   1.778   5.042  1.5464 -0.6005 -0.5836
  262MOL    C5631898   6.153   1.644   5.071  0.0692 -0.2319  0.5342
  262MOL    C5731899   6.072   1.717   4.964  0.5838  0.4567 -0.1739
  262MOL   Cl5831900   5.908   1.642   4.970 -0.3816 -0.1948 -0.0887
  262MOL    H5931901   6.088   1.623   5.156 -4.5580  2.4304 -2.1214
  262MOL    H6031902   6.173   1.543   5.033 -1.6876 -0.5798  0.4872
  262MOL    H6131903   6.056   1.819   4.997  2.2351  0.5955  0.2181
  262MOL    C6231904   6.120   1.715   4.817 -0.3157 -0.2967 -0.4651
  262MOL    C6331905   6.041   1.799   4.724 -0.5884 -0.6811  0.7120
  262MOL   Cl6431906   6.107   1.779   4.558 -0.1997  0.2262 -0.1190
  262MOL    H6531907   6.112   1.611   4.785  0.6035 -0.5908  0.2631
  262MOL    H6631908   6.228   1.722   4.815 -0.4022  1.1671 -0.3787
  262MOL    H6731909   5.939   1.763   4.711  0.1367 -3.0555  1.3849
  262MOL    C6831910   6.025   1.954   4.753  0.3233 -0.0013  0.1264
  262MOL    C6931911   6.161   2.035   4.759  0.0595  0.2709  0.5648
  262MOL   Cl7031912   6.261   1.999   4.893 -0.3774 -0.3862  0.0836
  262MOL    H7131913   5.967   1.963   4.845 -0.1075  1.0230 -0.2369
  262MOL    H7231914   5.973   1.998   4.668 -0.7224 -0.3830  0.5525
  262MOL    H7331915   6.225   2.017   4.673 -1.1677 -1.0266 -0.0838
  262MOL    C7431916   6.129   2.185   4.767 -0.1533 -0.7524  0.2453
  262MOL    C7531917   6.238   2.288   4.736  0.5060 -0.0943 -1.7265
  262MOL   Cl7631918   6.310   2.267   4.573  0.0515 -0.0358  0.1651
  262MOL    H7731919   6.083   2.209   4.863 -1.0296  0.6318 -0.5146
  262MOL    H7831920   6.047   2.208   4.699 -1.5896  0.0221  2.2080
  262MOL    H7931921   6.191   2.387   4.740  0.7001 -0.0886  1.6206
  262MOL    C8031922   6.356   2.289   4.840  0.4471 -0.8846  0.1424
  262MOL    C8131923   6.314   2.323   4.992 -0.3955 -0.5888 -0.1096
  262MOL   Cl8231924   6.233   2.480   4.993  0.2683 -0.3289  0.1413
  262MOL    H8331925   6.428   2.362   4.803 -0.1973 -0.5074 -0.3810
  262MOL    H8431926   6.417   2.199   4.836  2.1600  0.1485  1.8539
  262MOL    H8531927   6.242   2.251   5.032  0.0702 -0.2299  1.4007
  262MOL    C8631928   6.439   2.331   5.085  0.5719  0.7653 -0.0609
  262MOL    C8731929   6.499   2.193   5.133  0.0302 -0.3951  0.4580
  262MOL   Cl8831930   6.390   2.128   5.256  0.3246  0.2807 -0.3781
  262MOL    H8931931   6.405   2.383   5.174 -0.2833  0.7147 -0.3522
  262MOL    H9031932   6.510   2.401   5.040 -0.7479  1.0200 -1.8069
  262MOL    H9131933   6.497   2.115   5.057  0.0212  0.5382 -0.5095
  262MOL    C9231934   6.640   2.206   5.188  0.5827 -0.1314 -0.2276
  262MOL    C9331935   6.727   2.074   5.214 -0.0183 -0.6436 -0.2109
  262MOL   Cl9431936   6.890   2.134   5.238  0.5844 -0.2451 -0.2063
  262MOL    H9531937   6.618   2.255   5.283 -1.4872 -1.6712  0.1176
  262MOL    H9631938   6.694   2.268   5.117 -0.6073  0.3291 -0.7513
  262MOL    H9731939   6.693   2.021   5.303 -0.0652  1.2241  0.9013
  262MOL    C9831940   6.735   1.986   5.086  0.2508  0.5121 -0.1382
  262MOL    C9931941   6.846   1.876   5.084 -0.1088 -0.1063  0.2602
  262MOL  Cl10031942   6.823   1.784   4.931 -0.1687 -0.3596  0.2467
  262MOL   H10131943   6.750   2.058   5.006 -0.7258  0.5182 -0.3277
  262MOL   H10231944   6.642   1.929   5.072  0.5322 -0.3186  1.2984
  262MOL   H10331945   6.947   1.916   5.082 -0.5315  1.2025  2.9437
  262MOL   C10431946   6.852   1.775   5.205  0.3482 -0.3838  0.8102
  262MOL   C10531947   6.938   1.647   5.179  0.0886  0.5393 -0.6175
  262MOL  Cl10631948   6.906   1.531   5.311  0.3396 -0.0981 -0.1979
  262MOL   H10731949   6.750   1.741   5.226 -0.0356  0.0269 -0.3388
  262MOL   H10831950   6.886   1.825   5.296  0.9036  0.7774 -0.0101
  262MOL   H10931951   6.895   1.595   5.092  1.0875  0.5312 -1.1139
  262MOL   C11031952   7.095   1.668   5.173 -0.0703  0.3280 -0.4511
  262MOL   C11131953   7.175   1.538   5.135 -0.2752 -0.0472  0.1964
  262MOL  Cl11231954   7.346   1.576   5.150  0.2461 -0.0467 -0.0173
  262MOL   H11331955   7.118   1.690   5.278  0.1702  0.1203 -0.4567
  262MOL   H11431956   7.137   1.749   5.114  1.5021 -0.6599 -0.7399
  262MOL   H11531957   7.161   1.459   5.208  2.5024 -0.0851  0.7460
  262MOL   C11631958   7.157   1.489   4.991 -0.8866  0.1208 -0.5557
  262MOL   C11731959   7.249   1.372   4.966 -0.1783 -0.7461 -0.2388
  262MOL  Cl11831960   7.201   1.289   4.822 -0.3790 -0.0818 -0.6200
  262MOL   H11931961   7.183   1.571   4.923 -1.1860  2.4011  1.9728
  262MOL   H12031962   7.057   1.451   4.974 -0.4755 -0.9207 -0.6924
  262MOL   H12131963   7.355   1.392   4.953 -0.7913  2.0691 -1.1921
  262MOL   H12231964   7.232   1.289   5.036 -0.8769 -0.3608  0.0554
  263MOL     C131965   0.652   1.387   4.474  0.1997  0.2601 -0.3511
  263MOL     C231966   0.522   1.348   4.541 -0.2911 -0.0475  0.1691
  263MOL    Cl331967   0.545   1.199   4.637  0.3462 -0.0709 -0.2940
  263MOL     H431968   0.684   1.322   4.393  0.2644 -2.2690  1.6437
  263MOL     H531969   0.648   1.482   4.422  3.1564 -0.4912 -2.0759
  263MOL     H631970   0.488   1.423   4.612 -0.1274 -0.0833  0.2856
  263MOL     H731971   0.744   1.389   4.533  1.5299  0.8925 -2.3936
  263MOL     C831972   0.395   1.313   4.446  0.3897  0.2492  0.2601
  263MOL     C931973   0.347   1.431   4.359 -0.0587 -0.2149 -0.0615
  263MOL   Cl1031974   0.270   1.554   4.460 -0.2255  0.1884 -0.4558
  263MOL    H1131975   0.316   1.294   4.518 -0.5669 -1.0277 -1.1173
  263MOL    H1231976   0.411   1.218   4.397  0.0622  1.0677 -1.4802
  263MOL    H1331977   0.433   1.487   4.321 -1.7257  1.3252 -1.6702
  263MOL    C1431978   0.245   1.380   4.255  0.1181  0.1730 -0.5715
  263MOL    C1531979   0.307   1.309   4.131 -0.0842 -0.2680 -0.0553
  263MOL   Cl1631980   0.396   1.429   4.028 -0.3652  0.0103 -0.2686
  263MOL    H1731981   0.189   1.463   4.212 -1.2748 -0.5053 -0.0772
  263MOL    H1831982   0.173   1.322   4.312 -0.0075 -1.5011 -2.3644
  263MOL    H1931983   0.391   1.243   4.152 -0.0574 -0.3149 -0.3112
  263MOL    C2031984   0.200   1.243   4.040 -0.3327 -0.1334  0.3961
  263MOL    C2131985   0.251   1.185   3.906  0.3244  0.4881 -0.4310
  263MOL   Cl2231986   0.129   1.098   3.819 -0.0318  0.0577  0.0523
  263MOL    H2331987   0.112   1.303   4.020 -0.7419 -1.5035 -2.0231
  263MOL    H2431988   0.154   1.170   4.106 -1.0918 -1.4233 -1.5249
  263MOL    H2531989   0.295   1.252   3.832  1.1038 -0.5765 -0.9522
  263MOL    C2631990   0.379   1.091   3.919 -0.2047 -0.1842  0.0645
  263MOL    C2731991   0.373   0.959   4.006 -1.0178 -0.2009  0.6421
  263MOL   Cl2831992   0.375   0.986   4.185  0.3439  0.0474  0.0637
  263MOL    H2931993   0.450   1.153   3.975 -0.8808  2.3728 -1.8459
  263MOL    H3031994   0.408   1.057   3.820  0.9088 -2.4804  1.1375
  263MOL    H3131995   0.289   0.897   3.975 -0.0976 -0.7610 -0.7437
  263MOL    C3231996   0.493   0.874   3.974 -0.0407  0.0665 -0.7144
  263MOL    C3331997   0.504   0.730   4.045  0.0085 -0.3265 -0.3258
  263MOL   Cl3431998   0.661   0.666   4.003  0.0694  0.4175  0.7702
  263MOL    H3531999   0.582   0.932   3.998 -0.7484  0.9446 -0.1801
  263MOL    H3632000   0.499   0.849   3.868 -2.1551 -0.5069 -0.7202
  263MOL    H3732001   0.515   0.745   4.153 -0.5712 -0.4526 -0.2512
  263MOL    C3832002   0.389   0.630   4.024  0.0591  0.4482  0.3453
  263MOL    C3932003   0.269   0.632   4.125  0.1449  0.2044 -0.1730
  263MOL   Cl4032004   0.323   0.552   4.276  0.0241  0.5349  0.3861
  263MOL    H4132005   0.435   0.531   4.026  0.8022  0.7250 -1.7532
  263MOL    H4232006   0.352   0.647   3.923  1.2075 -1.2281 -0.3840
  263MOL    H4332007   0.255   0.736   4.155 -1.3174 -0.6695  2.3153
  263MOL    C4432008   0.144   0.567   4.069 -0.3097  0.0411 -1.2266
  263MOL    C4532009   0.022   0.603   4.158 -0.2231 -0.0376 -0.0552
  263MOL   Cl4632010   0.001   0.473   4.267 -0.0357 -0.0983  0.1906
  263MOL    H4732011   0.160   0.461   4.051  0.7006 -0.0108 -0.0621
  263MOL    H4832012   0.134   0.606   3.968  2.4885  1.5129 -0.9787
  263MOL    H4932013   0.021   0.699   4.209 -1.3686  1.0692 -2.1168
  263MOL    C5032014   8.429   0.606   4.055  0.0657 -0.2576 -0.2135
  263MOL    C5132015   8.291   0.643   4.118  0.2776  0.2813 -0.3223
  263MOL   Cl5232016   8.164   0.646   3.996 -0.0006 -0.1161 -0.1253
  263MOL    H5332017   8.418   0.511   4.002 -0.7967 -0.6206  0.5955
  263MOL    H5432018   8.442   0.676   3.972  2.1192  0.8665  1.0251
  263MOL    H5532019   8.260   0.557   4.176  1.2596  0.3531  0.3178
  263MOL    C5632020   8.279   0.774   4.193 -0.2984 -0.6371 -0.0122
  263MOL    C5732021   8.312   0.900   4.107 -0.6945  0.4497  0.4620
  263MOL   Cl5832022   8.488   0.932   4.106  0.1149  0.0648 -0.4113
  263MOL    H5932023   8.331   0.780   4.288  1.0766 -2.3027 -0.6471
  263MOL    H6032024   8.171   0.785   4.207 -0.5360 -2.9524  0.0336
  263MOL    H6132025   8.289   0.889   4.001  4.5235  1.9078 -0.9608
  263MOL    C6232026   8.239   1.027   4.154  0.5070 -0.3779 -0.4796
  263MOL    C6332027   8.273   1.088   4.292  0.1929 -0.1366  0.2513
  263MOL   Cl6432028   8.215   0.985   4.426  0.0062 -0.3226 -0.0800
  263MOL    H6532029   8.130   1.020   4.155  0.5457 -1.0809 -0.8782
  263MOL    H6632030   8.275   1.100   4.082 -1.3956  0.1827 -0.8908
  263MOL    H6732031   8.382   1.096   4.299  0.5252 -3.9602  0.5849
  263MOL    C6832032   8.220   1.234   4.314 -0.8407  0.0974 -0.4894
  263MOL    C6932033   8.271   1.353   4.215  0.2144  0.6609 -0.1196
  263MOL   Cl7032034   8.448   1.352   4.228  0.0601 -0.1768  0.2583
  263MOL    H7132035   8.254   1.274   4.409  0.2949  0.9345 -1.2234
  263MOL    H7232036   8.111   1.229   4.312 -0.9290  1.9041 -2.2439
  263MOL    H7332037   8.243   1.339   4.111  0.2216  0.1302 -0.0531
  263MOL    C7432038   8.217   1.488   4.259  0.1148  0.4865  0.2903
  263MOL    C7532039   8.064   1.500   4.266 -0.2195 -1.1239  0.6082
  263MOL   Cl7632040   8.002   1.482   4.098 -0.0417  0.0855 -0.3123
  263MOL    H7732041   8.249   1.571   4.195  0.5630 -0.1739 -0.3594
  263MOL    H7832042   8.255   1.493   4.361 -0.5260 -0.7608  0.5970
  263MOL    H7932043   8.015   1.412   4.308 -1.7893 -1.4511 -1.8078
  263MOL    C8032044   8.001   1.633   4.318  0.6106 -0.2956  0.9609
  263MOL    C8132045   8.036   1.669   4.465  0.7654  0.3232 -0.3977
  263MOL   Cl8232046   7.999   1.521   4.570  0.6566 -0.1662 -0.0870
  263MOL    H8332047   7.893   1.617   4.316  0.2874  1.8274  1.0065
  263MOL    H8432048   8.019   1.720   4.255 -0.4636 -1.5288 -1.1024
  263MOL    H8532049   8.142   1.690   4.477  1.0528 -1.4287  0.2500
  263MOL    C8632050   7.959   1.793   4.506  0.1836  0.2200  0.0998
  263MOL    C8732051   8.018   1.931   4.453 -0.2311  0.5723  0.4179
  263MOL   Cl8832052   8.180   1.967   4.520  0.0416 -0.2137 -0.3079
  263MOL    H8932053   7.956   1.806   4.615 -1.8052  1.2578 -0.0416
  263MOL    H9032054   7.852   1.776   4.487  0.0074 -1.2808  2.1904
  263MOL    H9132055   8.023   1.931   4.344  0.7276 -0.0321  0.4603
  263MOL    C9232056   7.929   2.043   4.496 -0.6318 -0.3275  0.0796
  263MOL    C9332057   7.788   2.049   4.435 -0.3007 -0.1316 -0.3430
  263MOL   Cl9432058   7.795   2.084   4.258 -0.3467 -0.1589  0.2644
  263MOL    H9532059   7.976   2.140   4.477 -0.7307  0.2417  2.6674
  263MOL    H9632060   7.924   2.029   4.604  1.2765 -1.2633  0.0711
  263MOL    H9732061   7.732   1.957   4.451  2.2296 -2.3096 -3.2906
  263MOL    C9832062   7.713   2.166   4.508 -0.7365 -0.2128  0.2556
  263MOL    C9932063   7.559   2.156   4.516  0.0842  0.6691 -0.9146
  263MOL  Cl10032064   7.477   2.192   4.359 -0.0499 -0.0967  0.3040
  263MOL   H10132065   7.729   2.262   4.460  0.4229 -1.8479 -2.7894
  263MOL   H10232066   7.744   2.168   4.612  0.6557  0.8388 -0.1734
  263MOL   H10332067   7.538   2.053   4.547  1.4218  0.6439 -0.0511
  263MOL   C10432068   7.505   2.240   4.638  1.1295 -0.5986 -0.2905
  263MOL   C10532069   7.360   2.225   4.673 -0.1544 -0.6510 -0.4568
  263MOL  Cl10632070   7.323   2.350   4.804  0.0368 -0.2566  0.0313
  263MOL   H10732071   7.512   2.346   4.611 -1.9634 -0.1261  0.5397
  263MOL   H10832072   7.563   2.229   4.730 -0.2225  2.2692  0.9746
  263MOL   H10932073   7.299   2.254   4.588  0.6834  1.4847 -0.3571
  263MOL   C11032074   7.314   2.085   4.729 -0.5237  0.0026  0.0696
  263MOL   C11132075   7.169   2.074   4.783  0.6390 -0.5718  0.4391
  263MOL  Cl11232076   7.136   1.911   4.848  0.2245  0.2320 -0.5203
  263MOL   H11332077   7.376   2.054   4.813 -2.0303 -1.2583  0.7317
  263MOL   H11432078   7.343   2.003   4.663 -0.1322  0.6797 -0.6085
  263MOL   H11532079   7.149   2.146   4.862  2.8113  0.9467 -0.3384
  263MOL   C11632080   7.065   2.100   4.669 -0.5227  0.0770  0.1704
  263MOL   C11732081   6.921   2.086   4.721  0.4237 -0.8402 -0.4615
  263MOL  Cl11832082   6.814   2.187   4.615 -0.0540 -0.0825 -0.1979
  263MOL   H11932083   7.083   2.037   4.582 -2.7025  0.1076 -0.3225
  263MOL   H12032084   7.082   2.203   4.641 -2.0707  0.4362  0.5393
  263MOL   H12132085   6.885   1.984   4.718 -1.1855 -0.2696 -0.7372
  263MOL   H12232086   6.911   2.132   4.820 -2.3782  0.6176 -1.3622
  264MOL     C132087   6.050   8.303   6.766  0.6223 -0.4872  0.2019
  264MOL     C232088   6.185   8.238   6.741 -0.7633  0.5006  0.1096
  264MOL    Cl332089   6.253   8.309   6.593 -0.1441  0.1193 -0.3372
  264MOL     H432090   5.977   8.281   6.688  0.2559  0.5698  0.2431
  264MOL     H532091   6.000   8.269   6.857 -0.7811  0.4945 -0.1959
  264MOL     H632092   6.255   8.273   6.817 -1.1469  0.7709  0.3384
  264MOL     H732093   6.057   8.409   6.787  1.1965 -0.4007 -0.4156
  264MOL     C832094   6.172   8.088   6.721  0.1615  0.4704 -0.7925
  264MOL     C932095   6.304   8.006   6.703  0.2427  0.2583 -0.0353
  264MOL   Cl1032096   6.258   7.830   6.698 -0.0594  0.3907 -0.0480
  264MOL    H1132097   6.102   8.075   6.638 -2.4740  0.0935  1.4028
  264MOL    H1232098   6.113   8.038   6.798 -2.3275  1.7971 -1.7539
  264MOL    H1332099   6.340   8.038   6.605 -2.6924  0.2672 -1.1469
  264MOL    C1432100   6.419   8.039   6.798 -0.4595  0.6558 -0.2971
  264MOL    C1532101   6.548   7.955   6.770  0.0146  0.1551  0.5833
  264MOL   Cl1632102   6.536   7.794   6.828  0.2400 -0.3366  0.1363
  264MOL    H1732103   6.387   8.007   6.897  2.2704  2.7020  1.3296
  264MOL    H1832104   6.447   8.144   6.788 -0.2630  0.5253 -1.1479
  264MOL    H1932105   6.565   7.954   6.662 -1.9308 -1.4319  0.2596
  264MOL    C2032106   6.666   8.024   6.841 -0.4322  0.3911  0.1575
  264MOL    C2132107   6.812   7.986   6.823 -0.5588  0.1009 -0.3256
  264MOL   Cl2232108   6.859   7.980   6.650 -0.2302  0.1402  0.1115
  264MOL    H2332109   6.642   8.016   6.947  2.5825 -2.4848  0.7244
  264MOL    H2432110   6.659   8.126   6.805  2.5423  0.4352 -0.4313
  264MOL    H2532111   6.875   8.061   6.872  1.0613 -1.1696 -0.4073
  264MOL    C2632112   6.845   7.841   6.880  0.1477  0.6401 -0.3417
  264MOL    C2732113   6.820   7.822   7.033  0.5331 -0.2029  0.5561
  264MOL   Cl2832114   6.896   7.951   7.120  0.0605  0.6998 -0.5503
  264MOL    H2932115   6.948   7.809   6.861 -0.2632 -0.7864 -0.1858
  264MOL    H3032116   6.783   7.771   6.824 -1.0644 -1.2507  3.2625
  264MOL    H3132117   6.716   7.838   7.060 -0.1146 -0.2647 -1.7530
  264MOL    C3232118   6.853   7.682   7.091 -0.4065 -0.1606 -0.0510
  264MOL    C3332119   6.756   7.564   7.063 -0.3557  1.0606 -0.7327
  264MOL   Cl3432120   6.600   7.584   7.159 -0.3622  0.1157  0.5557
  264MOL    H3532121   6.856   7.677   7.200 -1.5599 -2.7435 -0.1064
  264MOL    H3632122   6.955   7.660   7.060 -1.1778 -2.5300 -0.9964
  264MOL    H3732123   6.741   7.590   6.959  1.1928 -1.5188 -1.6588
  264MOL    C3832124   6.808   7.420   7.084 -0.2318 -0.8208  0.2428
  264MOL    C3932125   6.861   7.380   7.216 -0.2752  0.0635 -0.5862
  264MOL   Cl4032126   7.006   7.472   7.269  0.3087  0.2078  0.5532
  264MOL    H4132127   6.893   7.416   7.016  1.1948 -1.9377  2.0310
  264MOL    H4232128   6.727   7.351   7.061  0.2558 -2.2207  2.4905
  264MOL    H4332129   6.788   7.398   7.295  1.1567 -1.2893  1.0705
  264MOL    C4432130   6.897   7.230   7.231 -0.7303 -0.5264  0.1147
  264MOL    C4532131   6.906   7.162   7.371 -0.0912 -0.5466  0.0375
  264MOL   Cl4632132   7.044   7.221   7.463  0.0853  0.8120 -0.0092
  264MOL    H4732133   6.992   7.214   7.180 -2.4321 -1.5740 -2.7998
  264MOL    H4832134   6.824   7.173   7.174  1.6934 -2.5483 -1.0882
  264MOL    H4932135   6.812   7.196   7.414 -0.7328  0.0835 -1.8250
  264MOL    C5032136   6.910   7.010   7.362 -0.2366  0.3383  0.3785
  264MOL    C5132137   6.933   6.928   7.493  0.6684  0.3262  0.6231
  264MOL   Cl5232138   6.944   6.753   7.444  0.0817  0.0471  0.1795
  264MOL    H5332139   6.970   6.963   7.284 -0.0798 -0.9210  1.2410
  264MOL    H5432140   6.810   6.991   7.322  0.4223  0.4009 -1.3588
  264MOL    H5532141   7.031   6.955   7.531  1.3715 -0.1969 -0.7404
  264MOL    C5632142   6.833   6.948   7.601  0.2809  0.2587 -0.4106
  264MOL    C5732143   6.857   6.895   7.749 -0.0497  0.6224 -0.8019
  264MOL   Cl5832144   6.972   6.996   7.836  0.0547  0.2752  0.1868
  264MOL    H5932145   6.735   6.912   7.568  0.2217  1.1784 -1.3018
  264MOL    H6032146   6.809   7.054   7.610 -1.0490 -0.2781  2.8577
  264MOL    H6132147   6.761   6.921   7.792  0.0112  1.3555 -1.0940
  264MOL    C6232148   6.897   6.744   7.761 -0.3235  0.1800  0.6239
  264MOL    C6332149   6.918   6.691   7.908 -0.3106 -0.4849 -0.4808
  264MOL   Cl6432150   6.950   6.519   7.901  0.0287  0.0846  0.3291
  264MOL    H6532151   6.996   6.728   7.719  0.0289  0.1900  1.4541
  264MOL    H6632152   6.836   6.672   7.706  0.1591  1.8093 -2.0999
  264MOL    H6732153   7.015   6.728   7.942  0.3065 -1.2864 -1.3279
  264MOL    C6832154   6.809   6.728   8.013 -0.4446  0.0172  0.1394
  264MOL    C6932155   6.845   6.683   8.157  0.9702  0.4954 -0.0747
  264MOL   Cl7032156   6.688   6.709   8.254 -0.0994  0.2333 -0.0003
  264MOL    H7132157   6.715   6.691   7.972  0.1567  0.6327 -1.8581
  264MOL    H7232158   6.793   6.836   8.012  1.0872  0.2590 -1.6549
  264MOL    H7332159   6.874   6.578   8.160 -0.3235  0.1708  1.8833
  264MOL    C7432160   6.948   6.770   8.219  0.0486  0.6514 -0.0433
  264MOL    C7532161   7.051   6.697   8.312 -0.3626  0.2021 -0.3610
  264MOL   Cl7632162   7.126   6.567   8.215 -0.1733 -0.0912 -0.3053
  264MOL    H7732163   6.903   6.853   8.273  0.2377 -0.1163  1.3324
  264MOL    H7832164   6.996   6.841   8.152  0.6609  2.4588  2.2254
  264MOL    H7932165   7.126   6.772   8.336 -1.2098  0.7458  0.6164
  264MOL    C8032166   6.982   6.655   8.437 -0.7164 -0.5683  0.4503
  264MOL    C8132167   6.964   6.770   0.013 -0.0469  0.4363  0.3294
  264MOL   Cl8232168   7.130   6.838   0.039 -0.2041 -0.2112  0.1889
  264MOL    H8332169   7.047   6.575   8.472 -0.1094  0.2272  1.1997
  264MOL    H8432170   6.888   6.603   8.419 -0.5714 -0.2905 -1.1809
  264MOL    H8532171   6.911   6.855   8.495  0.2963  0.4252 -0.1132
  264MOL    C8632172   6.896   6.733   0.145 -0.1903  0.1288  0.0288
  264MOL    C8732173   6.744   6.751   0.142 -0.1831  0.8865 -0.0306
  264MOL   Cl8832174   6.703   6.923   0.103  0.3587 -0.1961 -0.3439
  264MOL    H8932175   6.941   6.790   0.226  1.5389  1.1679 -1.6274
  264MOL    H9032176   6.915   6.627   0.159  0.2415  0.0083 -1.4154
  264MOL    H9132177   6.710   6.699   0.053  0.4917 -0.2392  0.3552
  264MOL    C9232178   6.668   6.714   0.272 -0.4173 -0.2751  0.2604
  264MOL    C9332179   6.528   6.647   0.256 -0.3965 -0.0895  0.8416
  264MOL   Cl9432180   6.545   6.522   0.124 -0.2937 -0.0476  0.0438
  264MOL    H9532181   6.658   6.805   0.332  1.2564  1.5073 -2.0845
  264MOL    H9632182   6.723   6.645   0.336  0.5935  0.4471  0.1782
  264MOL    H9732183   6.513   6.587   0.346  1.2893 -1.0631  0.4987
  264MOL    C9832184   6.408   6.743   0.232 -0.0696 -0.2116 -0.1451
  264MOL    C9932185   6.393   6.867   0.312  0.0005  0.0904  0.3000
  264MOL  Cl10032186   6.398   6.830   0.482  0.1130 -0.1346 -0.0564
  264MOL   H10132187   6.312   6.691   0.234  0.0432 -0.4297 -0.4037
  264MOL   H10232188   6.420   6.774   0.129 -0.1783  2.0850  0.5086
  264MOL   H10332189   6.478   6.934   0.296 -1.9538  1.7939 -3.5282
  264MOL   C10432190   6.263   6.956   0.287  0.5488 -0.0743  0.3377
  264MOL   C10532191   6.257   7.010   0.146 -0.1512 -0.3652 -0.2042
  264MOL  Cl10632192   6.409   7.095   0.106  0.2967 -0.3422  0.5687
  264MOL   H10732193   6.267   7.039   0.358 -0.4475  0.5519 -0.3214
  264MOL   H10832194   6.174   6.894   0.299 -2.1341  3.5346 -0.1424
  264MOL   H10932195   6.242   6.920   0.086 -3.1943  1.4947 -2.4360
  264MOL   C11032196   6.134   7.115   0.119 -0.2291  0.1766 -0.5113
  264MOL   C11132197   6.174   7.268   0.126  0.6778  0.6138 -0.0801
  264MOL  Cl11232198   6.064   7.356   0.231  0.0312  0.2231 -0.5486
  264MOL   H11332199   6.055   7.093   0.191  1.0235 -1.0228  0.5030
  264MOL   H11432200   6.076   7.098   0.027 -0.2249  0.5872 -0.5919
  264MOL   H11532201   6.270   7.271   0.178  1.9960 -0.9537 -2.3375
  264MOL   C11632202   6.188   7.334   8.511 -0.0789 -0.5025  0.0504
  264MOL   C11732203   6.071   7.303   8.413 -0.0483  0.3380  0.2549
  264MOL  Cl11832204   6.118   7.392   8.262 -0.0116  0.3789  0.0216
  264MOL   H11932205   6.278   7.298   8.462  0.8024 -0.1638  1.3773
  264MOL   H12032206   6.193   7.441   0.003 -0.6207 -0.8292  2.3912
  264MOL   H12132207   6.054   7.202   8.376 -0.5313  1.3662 -2.4726
  264MOL   H12232208   5.974   7.334   8.450  0.6623 -0.1909  2.6402
  265MOL     C132209   8.519   2.343   5.566 -0.6510  0.5910 -0.3293
  265MOL     C232210   0.099   2.261   5.642 -0.2962  0.8782 -0.2287
  265MOL    Cl332211   0.089   2.298   5.817  0.0403 -0.4437  0.3602
  265MOL     H432212   0.029   2.446   5.572  2.4053 -0.3316 -1.3246
  265MOL     H532213   8.511   2.308   5.463  3.6569 -1.5587 -0.0583
  265MOL     H632214   0.088   2.153   5.633 -1.9033  1.1004 -1.2287
  265MOL     H732215   8.424   2.337   5.618 -2.1136  2.2034 -2.7583
  265MOL     C832216   0.241   2.288   5.586  0.3212  0.1174 -0.1336
  265MOL     C932217   0.253   2.265   5.426 -0.0468 -0.7366  0.2687
  265MOL   Cl1032218   0.207   2.098   5.397 -0.3012 -0.0651 -0.0007
  265MOL    H1132219   0.305   2.217   5.638 -1.8321 -0.9130  1.1935
  265MOL    H1232220   0.273   2.389   5.613  0.6403 -0.5631  2.1183
  265MOL    H1332221   0.177   2.319   5.368 -1.3576 -2.7012  0.1213
  265MOL    C1432222   0.384   2.291   5.352 -0.2646 -0.6925 -0.5700
  265MOL    C1532223   0.433   2.435   5.373 -0.3031 -1.3718 -0.3764
  265MOL   Cl1632224   0.352   2.537   5.240 -0.0773 -0.2193  0.0819
  265MOL    H1732225   0.385   2.266   5.246 -2.3855 -0.0947 -0.7590
  265MOL    H1832226   0.462   2.229   5.396  1.9704  2.4627  0.1330
  265MOL    H1932227   0.407   2.463   5.475  1.3197  0.4394 -0.4301
  265MOL    C2032228   0.587   2.442   5.352  0.6000  0.2380 -0.5385
  265MOL    C2132229   0.663   2.568   5.420 -0.0173  0.5239  0.4979
  265MOL   Cl2232230   0.669   2.723   5.321 -0.4182 -0.0085 -0.2817
  265MOL    H2332231   0.616   2.437   5.247  0.3855 -0.5504 -0.5698
  265MOL    H2432232   0.624   2.352   5.401  1.8351  1.7655  1.3896
  265MOL    H2532233   0.619   2.594   5.517 -1.1642 -0.1295  0.1623
  265MOL    C2632234   0.814   2.539   5.455 -0.9307  0.6742  0.2492
  265MOL    C2732235   0.922   2.519   5.343  0.1139 -0.1184 -0.2368
  265MOL   Cl2832236   0.923   2.354   5.286 -0.0782 -0.1210 -0.1736
  265MOL    H2932237   0.817   2.457   5.527  0.7716 -0.1923 -0.7796
  265MOL    H3032238   0.846   2.634   5.496  0.4325  1.7163 -3.0656
  265MOL    H3132239   0.893   2.590   5.266 -0.0503  2.7869  2.3993
  265MOL    C3232240   1.064   2.551   5.393  0.4114  0.6248 -0.4048
  265MOL    C3332241   1.178   2.530   5.285  0.0486 -0.7182 -0.1825
  265MOL   Cl3432242   1.331   2.573   5.364  0.3203 -0.3585  0.2122
  265MOL    H3532243   1.071   2.479   5.475 -0.6181 -0.4587 -1.2459
  265MOL    H3632244   1.062   2.653   5.431 -0.2114 -0.2641  2.1050
  265MOL    H3732245   1.189   2.428   5.246  2.3275 -0.0937 -1.2892
  265MOL    C3832246   1.172   2.622   5.161 -0.2550 -0.8849  0.2448
  265MOL    C3932247   1.300   2.609   5.068  0.0592 -0.1328 -0.4504
  265MOL   Cl4032248   1.282   2.726   4.936  0.1755 -0.1529  0.0297
  265MOL    H4132249   1.165   2.724   5.198 -2.6531 -0.5183 -1.1415
  265MOL    H4232250   1.087   2.604   5.095 -0.6158  0.1550  0.4147
  265MOL    H4332251   1.390   2.627   5.127  1.0361 -0.6579 -1.7583
  265MOL    C4432252   1.325   2.470   5.005  0.5274  0.1674 -0.3164
  265MOL    C4532253   1.231   2.421   4.888  0.3062  0.1542 -0.0005
  265MOL   Cl4632254   1.070   2.375   4.960 -0.0708  0.4763  0.1993
  265MOL    H4732255   1.310   2.394   5.082  0.7551 -1.1021 -1.4958
  265MOL    H4832256   1.431   2.455   4.984  0.2030 -1.7878 -0.7200
  265MOL    H4932257   1.219   2.491   4.805  2.2803 -0.8142 -1.1298
  265MOL    C5032258   1.275   2.303   4.811 -0.0465 -0.0733  0.0979
  265MOL    C5132259   1.405   2.332   4.727 -0.5084  0.1598  0.3322
  265MOL   Cl5232260   1.353   2.430   4.588 -0.4341  0.0163 -0.4286
  265MOL    H5332261   1.194   2.269   4.746 -1.3982  0.1800  1.6237
  265MOL    H5432262   1.292   2.224   4.884  0.0641 -0.1626 -0.0229
  265MOL    H5532263   1.483   2.393   4.773 -0.9766  0.0765  1.2265
  265MOL    C5632264   1.468   2.197   4.676  0.2909  0.3609  0.6006
  265MOL    C5732265   1.519   2.099   4.778  0.2252  0.1993 -0.1013
  265MOL   Cl5832266   1.628   2.180   4.900 -0.0938  0.0343 -0.5696
  265MOL    H5932267   1.548   2.228   4.610 -1.5074  0.2020 -1.7049
  265MOL    H6032268   1.396   2.136   4.621 -0.3843  1.3772  0.3373
  265MOL    H6132269   1.433   2.056   4.831 -0.1598 -0.8975 -1.5857
  265MOL    C6232270   1.592   1.981   4.718 -0.9391  0.0124 -0.4948
  265MOL    C6332271   1.521   1.897   4.618  0.4189 -1.1965  0.1300
  265MOL   Cl6432272   1.406   1.792   4.706  0.6394  0.2369  0.1282
  265MOL    H6532273   1.621   1.916   4.802 -1.4850  2.2614  1.4841
  265MOL    H6632274   1.681   2.020   4.668 -0.6817  2.6084  1.8877
  265MOL    H6732275   1.454   1.950   4.550  1.8021  1.3812  0.6881
  265MOL    C6832276   1.592   1.796   4.526  0.0328  0.2213 -0.2980
  265MOL    C6932277   1.701   1.862   4.442 -0.1622  0.0003  0.3416
  265MOL   Cl7032278   1.624   1.975   4.324  0.0351 -0.3642  0.0908
  265MOL    H7132279   1.520   1.751   4.458 -0.6077 -0.6015  0.8906
  265MOL    H7232280   1.632   1.717   4.590 -0.7614 -0.3383 -0.4794
  265MOL    H7332281   1.768   1.921   4.504 -1.5963  2.1196 -0.0981
  265MOL    C7432282   1.779   1.755   4.361  0.0484  0.0593  0.6843
  265MOL    C7532283   1.916   1.805   4.308 -0.1037  0.1716 -0.0672
  265MOL   Cl7632284   1.962   1.676   4.198 -0.1749 -0.2007  0.3326
  265MOL    H7732285   1.710   1.738   4.279  1.3177 -1.7546 -0.0535
  265MOL    H7832286   1.784   1.666   4.423 -2.6559 -0.5676  0.0633
  265MOL    H7932287   1.906   1.896   4.248  0.3597  0.3262  0.0907
  265MOL    C8032288   2.026   1.828   4.418 -0.2824 -0.1082 -0.4246
  265MOL    C8132289   2.171   1.846   4.362 -0.2384  0.0757  0.4439
  265MOL   Cl8232290   2.296   1.819   4.484  0.3114 -0.0721 -0.1407
  265MOL    H8332291   2.030   1.735   4.475  1.8129  1.3046  1.8673
  265MOL    H8432292   2.004   1.913   4.482  0.4175 -0.9072  0.8950
  265MOL    H8532293   2.205   1.768   4.294  3.1438 -0.7298  2.9103
  265MOL    C8632294   2.193   1.984   4.290  0.2383  0.3663  0.8320
  265MOL    C8732295   2.176   2.112   4.373  0.3090 -0.3993 -0.2255
  265MOL   Cl8832296   2.003   2.152   4.404 -0.0527  0.0202 -0.6587
  265MOL    H8932297   2.128   1.984   4.202  1.4385 -3.0895 -0.1763
  265MOL    H9032298   2.291   1.987   4.242 -1.1355  2.2507 -1.9779
  265MOL    H9132299   2.230   2.093   4.466  1.4799  1.8327 -0.4274
  265MOL    C9232300   2.232   2.242   4.302 -0.0017  0.0464 -0.3135
  265MOL    C9332301   2.393   2.255   4.295  0.5315  0.1037  0.4654
  265MOL   Cl9432302   2.477   2.222   4.448 -0.1143 -0.4196  0.3039
  265MOL    H9532303   2.198   2.325   4.365  1.0286  0.0705  0.2104
  265MOL    H9632304   2.187   2.254   4.203  0.9228  1.6752 -0.5373
  265MOL    H9732305   2.419   2.182   4.218 -2.4320  0.2522 -0.7567
  265MOL    C9832306   2.436   2.397   4.252  0.6125 -0.2122 -0.3484
  265MOL    C9932307   2.586   2.420   4.227 -0.4029  0.2821  0.6397
  265MOL  Cl10032308   2.624   2.598   4.214 -0.3324 -0.5268  0.1349
  265MOL   H10132309   2.400   2.461   4.333 -1.6887  1.5238 -2.6716
  265MOL   H10232310   2.389   2.416   4.156  1.3774  2.3920 -0.2462
  265MOL   H10332311   2.643   2.380   4.311  1.9681 -0.5213 -1.2875
  265MOL   C10432312   2.631   2.354   4.096  0.4776 -0.0986  0.0272
  265MOL   C10532313   2.785   2.382   4.052  0.3917 -0.0878  0.0291
  265MOL  Cl10632314   2.804   2.323   3.888  0.3551  0.1681  0.1897
  265MOL   H10732315   2.568   2.403   4.022  1.4652  0.8767 -0.1890
  265MOL   H10832316   2.617   2.246   4.090 -1.7741  0.2097 -0.7811
  265MOL   H10932317   2.787   2.490   4.039 -1.6570 -0.4125 -3.7827
  265MOL   C11032318   2.891   2.312   4.144 -0.7663 -0.5502  0.6140
  265MOL   C11132319   2.928   2.380   4.276 -0.0922  0.2602 -0.2175
  265MOL  Cl11232320   3.007   2.529   4.235  0.0368 -0.5375 -0.3347
  265MOL   H11332321   2.985   2.284   4.097 -0.1244 -0.0554  1.5757
  265MOL   H11432322   2.846   2.216   4.168 -0.3719 -1.0518 -0.6422
  265MOL   H11532323   2.844   2.420   4.334  1.0677  0.1283  1.5778
  265MOL   C11632324   3.017   2.293   4.366 -0.1874 -0.0260  0.7186
  265MOL   C11732325   3.065   2.351   4.506  0.4021 -0.8215 -0.5366
  265MOL  Cl11832326   2.934   2.431   4.589  0.2291  0.4507 -0.2224
  265MOL   H11932327   3.103   2.255   4.310 -0.4502  0.8241 -0.2756
  265MOL   H12032328   2.959   2.201   4.380 -2.0639  0.4555 -3.1961
  265MOL   H12132329   3.107   2.285   4.581 -0.1293 -1.1047 -0.4869
  265MOL   H12232330   3.136   2.430   4.481 -0.2384  0.0109  0.2255
  266MOL     C132331   1.862   3.757   5.169  0.6313 -0.6322 -0.0106
  266MOL     C232332   1.990   3.775   5.258 -0.5519  0.0015 -0.4450
  266MOL    Cl332333   1.929   3.792   5.426  0.3724 -0.2149  0.1354
  266MOL     H432334   1.897   3.737   5.068  0.9346  1.2399 -0.2945
  266MOL     H532335   1.815   3.662   5.193 -2.0937  0.8408  0.6533
  266MOL     H632336   2.052   3.686   5.254 -0.1087  0.3820 -2.1288
  266MOL     H732337   1.792   3.841   5.172 -0.3534 -1.4698  0.6567
  266MOL     C832338   2.063   3.904   5.221  0.3210  0.0810 -0.0634
  266MOL     C932339   2.134   3.892   5.082  0.2952  0.1668  0.3869
  266MOL   Cl1032340   2.265   3.773   5.086 -0.1957 -0.1550 -0.5038
  266MOL    H1132341   2.132   3.931   5.300  1.2013 -2.3212  0.0445
  266MOL    H1232342   1.986   3.981   5.216  1.5948  1.3463 -0.4496
  266MOL    H1332343   2.070   3.861   5.000  1.0530  0.0693 -0.1728
  266MOL    C1432344   2.198   4.020   5.040  0.1276 -0.0153 -0.7201
  266MOL    C1532345   2.096   4.134   5.018  0.0933 -0.7614 -0.4387
  266MOL   Cl1632346   1.986   4.087   4.892 -0.1331  0.1276  0.4671
  266MOL    H1732347   2.261   4.003   4.953 -0.1878  0.1152 -0.9726
  266MOL    H1832348   2.260   4.061   5.120 -0.6862  0.0679 -0.1344
  266MOL    H1932349   2.038   4.155   5.108  0.8419 -1.7340  0.2858
  266MOL    C2032350   2.159   4.268   4.984  0.1929  0.1292 -0.6659
  266MOL    C2132351   2.248   4.338   5.096 -0.2383 -0.4710  0.6303
  266MOL   Cl2232352   2.139   4.368   5.233  0.2838  0.0469 -0.0572
  266MOL    H2332353   2.073   4.332   4.962  0.1614 -0.0243 -0.9790
  266MOL    H2432354   2.217   4.252   4.894 -0.0955  3.2625 -1.4778
  266MOL    H2532355   2.320   4.263   5.127  1.4213  1.2059  0.9316
  266MOL    C2632356   2.316   4.464   5.040  0.5619 -0.1776 -0.1751
  266MOL    C2732357   2.419   4.546   5.119  0.0852 -0.6626 -0.2835
  266MOL   Cl2832358   2.527   4.432   5.202 -0.4573 -0.1698 -0.3647
  266MOL    H2932359   2.234   4.531   5.013 -0.2973 -1.3056 -0.4149
  266MOL    H3032360   2.367   4.442   4.946  0.3847  1.0011 -0.5538
  266MOL    H3132361   2.473   4.611   5.050  1.1390  0.8648  1.9400
  266MOL    C3232362   2.353   4.631   5.231  0.1898  0.0355  0.0712
  266MOL    C3332363   2.266   4.747   5.180 -0.1404  0.1655  0.3196
  266MOL   Cl3432364   2.354   4.856   5.065 -0.5957 -0.2848  0.0651
  266MOL    H3532365   2.430   4.686   5.286  1.1798 -0.7519 -0.4886
  266MOL    H3632366   2.310   4.578   5.316  0.9831  1.5122  1.4248
  266MOL    H3732367   2.180   4.708   5.125  1.5492  1.4947 -3.4387
  266MOL    C3832368   2.201   4.837   5.291 -0.1254 -0.4730 -0.4418
  266MOL    C3932369   2.105   4.952   5.239 -0.6255 -0.0084  0.0566
  266MOL   Cl4032370   2.065   5.055   5.376  0.2232  0.2552 -0.0959
  266MOL    H4132371   2.273   4.876   5.364  0.5602 -2.1115 -0.2327
  266MOL    H4232372   2.137   4.776   5.355  0.9419 -0.1573  0.9597
  266MOL    H4332373   2.155   5.021   5.171 -0.8565  0.1732  0.0708
  266MOL    C4432374   1.988   4.907   5.151 -0.9084 -0.1612  0.8824
  266MOL    C4532375   1.884   5.007   5.118 -0.8340  0.3996 -0.4966
  266MOL   Cl4632376   1.738   4.923   5.048 -0.2209  0.0115  0.3772
  266MOL    H4732377   1.947   4.823   5.208 -2.7349  0.1529  0.0763
  266MOL    H4832378   2.030   4.875   5.056  0.4337  2.5571  0.5080
  266MOL    H4932379   1.847   5.049   5.212  0.3508 -1.6011  0.9111
  266MOL    C5032380   1.919   5.126   5.029 -0.1921 -0.1442  0.4244
  266MOL    C5132381   1.821   5.252   5.055 -0.4064  0.3384 -0.1635
  266MOL   Cl5232382   1.844   5.355   4.909  0.1156 -0.1872  0.2891
  266MOL    H5332383   1.916   5.088   4.926 -0.5507  3.5056 -0.9972
  266MOL    H5432384   2.022   5.160   5.034 -0.4794  0.7624  0.3147
  266MOL    H5532385   1.719   5.220   5.075 -1.2130  2.2340 -1.0597
  266MOL    C5632386   1.864   5.339   5.181  0.3194  0.0300  0.1569
  266MOL    C5732387   1.792   5.464   5.216  0.0982 -0.5660  0.3546
  266MOL   Cl5832388   1.892   5.549   5.335 -0.3964  0.0547  0.0595
  266MOL    H5932389   1.971   5.358   5.173  0.4787 -1.2696 -0.9954
  266MOL    H6032390   1.870   5.274   5.269 -1.9857  0.2449  0.5034
  266MOL    H6132391   1.775   5.520   5.124  0.5831 -1.2185 -0.1439
  266MOL    C6232392   1.659   5.433   5.282  0.1475 -0.1742 -0.0567
  266MOL    C6332393   1.568   5.559   5.310  0.3099 -0.2995  0.4959
  266MOL   Cl6432394   1.422   5.504   5.393  0.0723 -0.2512  0.0393
  266MOL    H6532395   1.678   5.376   5.373 -0.6389 -0.4502 -0.0659
  266MOL    H6632396   1.600   5.361   5.226  1.6896 -0.9548 -0.7254
  266MOL    H6732397   1.619   5.625   5.380  0.9520  0.9518 -1.1253
  266MOL    C6832398   1.539   5.637   5.177 -0.3639  0.1639 -0.0946
  266MOL    C6932399   1.469   5.560   5.059 -0.3752  0.3262 -0.3578
  266MOL   Cl7032400   1.443   5.692   4.942  0.2615  0.3171  0.4418
  266MOL    H7132401   1.630   5.685   5.140 -0.2793  0.0005 -0.0966
  266MOL    H7232402   1.472   5.720   5.200  1.0480  0.8386  1.6836
  266MOL    H7332403   1.527   5.480   5.015  0.9869 -0.0004  1.9552
  266MOL    C7432404   1.333   5.492   5.086 -0.0942  0.3787  0.1556
  266MOL    C7532405   1.260   5.429   4.964  0.2285  0.2674 -0.6027
  266MOL   Cl7632406   1.083   5.410   4.993 -0.3621 -0.4387  0.4924
  266MOL    H7732407   1.269   5.568   5.130  0.6815  1.5541 -0.7250
  266MOL    H7832408   1.350   5.412   5.158 -2.7688  0.8163  1.3263
  266MOL    H7932409   1.271   5.496   4.878  0.3591 -2.2838 -2.6405
  266MOL    C8032410   1.325   5.304   4.907  0.2601 -0.2816  0.3443
  266MOL    C8132411   1.317   5.169   4.981 -0.3543 -0.1268 -0.6763
  266MOL   Cl8232412   1.443   5.179   5.109  0.2585  0.2881  0.0416
  266MOL    H8332413   1.429   5.328   4.884  0.4655 -0.8486  0.6709
  266MOL    H8432414   1.274   5.292   4.811 -0.0041 -1.8754  0.6712
  266MOL    H8532415   1.218   5.185   5.025 -0.4822  1.2391 -1.4256
  266MOL    C8632416   1.333   5.053   4.879  0.5878  0.4065 -0.3599
  266MOL    C8732417   1.277   4.923   4.935 -0.5478 -0.6775  0.1064
  266MOL   Cl8832418   1.102   4.948   4.932  0.5981  0.1848 -0.3664
  266MOL    H8932419   1.439   5.030   4.872  0.5396 -0.5190  1.5153
  266MOL    H9032420   1.280   5.091   4.792 -0.8688 -0.1632  0.2616
  266MOL    H9132421   1.292   4.845   4.861  0.7505  0.9446 -1.3574
  266MOL    C9232422   1.331   4.883   5.081 -0.7353  0.2863 -0.3045
  266MOL    C9332423   1.312   4.736   5.117 -0.0137  0.3523  0.3629
  266MOL   Cl9432424   1.146   4.691   5.119  0.2932 -0.2706  0.2165
  266MOL    H9532425   1.287   4.952   5.153  0.7524  1.9921 -0.9701
  266MOL    H9632426   1.436   4.911   5.083 -1.3802  2.8260 -0.0174
  266MOL    H9732427   1.347   4.680   5.030 -0.7825 -0.1564  0.3678
  266MOL    C9832428   1.386   4.698   5.252 -0.7612 -0.2127  0.0587
  266MOL    C9932429   1.416   4.552   5.263 -0.2410  0.4744 -0.3248
  266MOL  Cl10032430   1.434   4.515   5.435  0.2992  0.1673  0.0919
  266MOL   H10132431   1.314   4.719   5.330 -0.1160  2.0338  0.0921
  266MOL   H10232432   1.481   4.749   5.268  0.8552 -1.9807 -3.2974
  266MOL   H10332433   1.328   4.499   5.225 -0.8248 -0.8749  2.7158
  266MOL   C10432434   1.542   4.516   5.178 -0.2655  0.2527  0.5603
  266MOL   C10532435   1.563   4.365   5.157  0.9839  0.7117  0.5095
  266MOL  Cl10632436   1.723   4.326   5.091 -0.4685 -0.1139 -0.3769
  266MOL   H10732437   1.636   4.551   5.222 -0.3405  1.0523  0.0816
  266MOL   H10832438   1.525   4.562   5.081  1.3687 -1.9372 -0.8111
  266MOL   H10932439   1.551   4.310   5.251 -1.0215 -2.5999 -1.5830
  266MOL   C11032440   1.461   4.301   5.064 -0.0783  0.4415 -0.4750
  266MOL   C11132441   1.477   4.153   5.038  0.5504 -0.1012 -0.0502
  266MOL  Cl11232442   1.378   4.115   4.888  0.2595  0.2297  0.1045
  266MOL   H11332443   1.463   4.345   4.964  0.7663  2.6843  0.5082
  266MOL   H11432444   1.357   4.321   5.091 -0.1611  0.2057 -0.6070
  266MOL   H11532445   1.579   4.132   5.004  0.2117 -0.1661 -1.0358
  266MOL   C11632446   1.434   4.056   5.153 -0.0501  0.0279  1.1988
  266MOL   C11732447   1.445   3.906   5.118 -0.3484  0.2003 -0.2097
  266MOL  Cl11832448   1.377   3.802   5.257 -0.0411 -0.3182  0.2402
  266MOL   H11932449   1.330   4.077   5.177 -0.2403 -0.8157  1.1241
  266MOL   H12032450   1.482   4.078   5.249  2.2603  1.2285 -0.1875
  266MOL   H12132451   1.398   3.866   5.028  1.5878  0.1038 -1.1935
  266MOL   H12232452   1.550   3.878   5.117  0.2822  2.1371  2.9461
  267MOL     C132453   5.219   1.964   4.150 -0.4072  0.2924 -0.9036
  267MOL     C232454   5.314   2.028   4.255  0.3913 -0.0965 -0.2011
  267MOL    Cl332455   5.372   2.181   4.177  0.3175 -0.3797 -0.3536
  267MOL     H432456   5.260   1.975   4.049 -0.4736  1.5790 -0.8008
  267MOL     H532457   5.199   1.858   4.162 -0.2516  0.4640  1.0219
  267MOL     H632458   5.243   2.055   4.333  0.6737 -5.3149  2.1048
  267MOL     H732459   5.118   2.004   4.141 -0.1197  1.1197 -0.4708
  267MOL     C832460   5.432   1.942   4.289 -0.3613 -0.3172 -0.5084
  267MOL     C932461   5.508   1.992   4.417  0.2746  0.4931 -0.2461
  267MOL   Cl1032462   5.664   1.909   4.405  0.0457  0.0478 -0.0751
  267MOL    H1132463   5.501   1.951   4.205 -0.2896  0.1616 -0.4016
  267MOL    H1232464   5.418   1.837   4.316  0.8601 -0.4871 -0.5067
  267MOL    H1332465   5.529   2.099   4.423  0.6771  0.2886  2.3538
  267MOL    C1432466   5.450   1.960   4.554 -0.7522 -0.8761  0.4898
  267MOL    C1532467   5.526   2.011   4.674  0.6110 -0.2261 -0.0311
  267MOL   Cl1632468   5.664   1.912   4.723 -0.2482  0.0979 -0.0031
  267MOL    H1732469   5.427   1.854   4.569  0.1193 -0.9986  0.9647
  267MOL    H1832470   5.356   2.015   4.549  1.4145  3.0170  0.7798
  267MOL    H1932471   5.581   2.100   4.644  1.7796 -0.7771  0.4317
  267MOL    C2032472   5.438   2.052   4.802 -0.8322 -0.7052 -0.5951
  267MOL    C2132473   5.515   2.125   4.917 -0.4647 -0.8039  1.6511
  267MOL   Cl2232474   5.387   2.218   5.004  0.1389  0.0451 -0.3180
  267MOL    H2332475   5.402   1.966   4.859  1.3403 -1.3565 -0.1792
  267MOL    H2432476   5.355   2.119   4.779  0.3133  1.3991  1.3353
  267MOL    H2532477   5.570   2.064   4.989  1.9402  1.1453  1.5019
  267MOL    C2632478   5.606   2.231   4.877  0.2916 -0.1968 -0.6758
  267MOL    C2732479   5.697   2.293   4.985  0.3923  0.0679  0.2588
  267MOL   Cl2832480   5.766   2.450   4.916  0.1210  0.1372 -0.1516
  267MOL    H2932481   5.542   2.307   4.834  0.0284  0.8961  1.5727
  267MOL    H3032482   5.683   2.207   4.803  2.3625  1.7611  0.7845
  267MOL    H3132483   5.646   2.316   5.078  0.0682  0.6212 -0.0460
  267MOL    C3232484   5.818   2.202   5.024  0.5183  0.0922  0.5001
  267MOL    C3332485   5.907   2.254   5.132  0.0498 -0.1125 -0.3545
  267MOL   Cl3432486   6.029   2.129   5.170  0.5032  0.0066  0.2082
  267MOL    H3532487   5.872   2.177   4.933  0.1376  0.1154  0.2666
  267MOL    H3632488   5.787   2.102   5.054 -1.4885 -0.1089 -2.0866
  267MOL    H3732489   5.965   2.339   5.098 -1.3775  1.0349  0.0177
  267MOL    C3832490   5.834   2.283   5.262  0.0290  0.1825 -0.5453
  267MOL    C3932491   5.913   2.297   5.396  0.3652  0.1884 -0.3328
  267MOL   Cl4032492   5.791   2.268   5.527 -0.5036  0.1305 -0.1025
  267MOL    H4132493   5.772   2.194   5.270 -0.1579  0.3659  0.0829
  267MOL    H4232494   5.764   2.364   5.243 -1.6049 -0.6898  1.5240
  267MOL    H4332495   5.993   2.227   5.418 -0.6091 -0.0470  2.6740
  267MOL    C4432496   5.954   2.441   5.412  0.4619 -0.4600  0.6013
  267MOL    C4532497   6.087   2.490   5.358  0.6927  0.2519  0.0184
  267MOL   Cl4632498   6.214   2.395   5.425  0.0384  0.5433 -0.3739
  267MOL    H4732499   5.955   2.472   5.516 -1.7173  2.8607 -0.2860
  267MOL    H4832500   5.873   2.505   5.378  1.2062 -0.1594 -0.6530
  267MOL    H4932501   6.097   2.465   5.252  1.0310  0.1116  0.0828
  267MOL    C5032502   6.127   2.640   5.375 -0.6713  0.1113  0.1368
  267MOL    C5132503   6.024   2.744   5.309 -0.4442  0.2524 -0.6668
  267MOL   Cl5232504   5.937   2.671   5.174 -0.0856  0.1637  0.0765
  267MOL    H5332505   6.217   2.647   5.313 -1.7325  0.2877 -1.4112
  267MOL    H5432506   6.154   2.663   5.478 -0.2837  0.2995 -0.0083
  267MOL    H5532507   5.946   2.768   5.382 -1.6395 -0.7232 -1.6004
  267MOL    C5632508   6.076   2.879   5.278 -0.1683  0.4390  0.1331
  267MOL    C5732509   6.200   2.923   5.349  0.0687  0.0973  0.6902
  267MOL   Cl5832510   6.162   2.943   5.519 -0.2858  0.1682  0.1587
  267MOL    H5932511   5.985   2.937   5.287  0.0453  0.9073 -0.6583
  267MOL    H6032512   6.104   2.882   5.172 -0.1610 -0.8030  0.0875
  267MOL    H6132513   6.274   2.844   5.341 -0.6302 -0.3618 -1.5332
  267MOL    C6232514   6.240   3.062   5.285 -0.2227  0.4072 -0.8741
  267MOL    C6332515   6.378   3.128   5.326 -0.1372 -0.5216  0.3288
  267MOL   Cl6432516   6.511   3.006   5.312  0.0473  0.3615 -0.1985
  267MOL    H6532517   6.166   3.140   5.302 -0.8641 -0.6617  1.4212
  267MOL    H6632518   6.253   3.045   5.178  1.2013 -2.0694 -0.3529
  267MOL    H6732519   6.399   3.204   5.251  1.8151 -0.7103  0.6521
  267MOL    C6832520   6.384   3.183   5.471 -0.0602  0.0519 -0.2996
  267MOL    C6932521   6.281   3.293   5.497  0.4249  0.4994  0.6045
  267MOL   Cl7032522   6.280   3.415   5.362  0.4882  0.2091  0.7413
  267MOL    H7132523   6.480   3.231   5.489 -0.0278 -0.3290  0.5944
  267MOL    H7232524   6.395   3.103   5.545 -0.7937  0.1042 -0.1323
  267MOL    H7332525   6.184   3.244   5.500  1.0166 -0.7943 -0.7485
  267MOL    C7432526   6.306   3.367   5.637 -0.1628 -0.6354  0.2313
  267MOL    C7532527   6.296   3.268   5.753 -0.7589 -0.5042 -0.3459
  267MOL   Cl7632528   6.208   3.350   5.896  0.2443 -0.2925  0.6387
  267MOL    H7732529   6.221   3.435   5.646  0.3428  0.0854 -0.3378
  267MOL    H7832530   6.393   3.432   5.633 -1.6294  1.3119 -0.8634
  267MOL    H7932531   6.223   3.192   5.725  0.5351 -1.4759 -1.0872
  267MOL    C8032532   6.433   3.213   5.807 -0.5144 -0.2497  0.4802
  267MOL    C8132533   6.433   3.109   5.927  0.3077 -0.2177 -0.2029
  267MOL   Cl8232534   6.606   3.087   5.976  0.3011  0.3074 -0.2894
  267MOL    H8332535   6.488   3.301   5.842 -1.4953  0.7756 -0.5269
  267MOL    H8432536   6.501   3.175   5.730 -0.6875  0.2517  0.0845
  267MOL    H8532537   6.382   3.157   6.010  0.4065 -1.6000  0.6726
  267MOL    C8632538   6.371   2.976   5.892 -0.2060  0.1134 -1.2337
  267MOL    C8732539   6.283   2.893   5.993  0.0300 -0.6569  0.0370
  267MOL   Cl8832540   6.152   2.994   6.029  0.0327  0.2193 -0.0366
  267MOL    H8932541   6.448   2.913   5.847 -0.5986  0.6142 -2.6089
  267MOL    H9032542   6.306   3.003   5.809  0.0342  0.6362 -1.2492
  267MOL    H9132543   6.248   2.798   5.955  2.5203 -1.4696 -0.2897
  267MOL    C9232544   6.356   2.866   6.125  0.2507  0.3390 -0.7944
  267MOL    C9332545   6.483   2.781   6.118 -0.3752  0.6079  0.3157
  267MOL   Cl9432546   6.448   2.619   6.056 -0.0048 -0.1484  0.0717
  267MOL    H9532547   6.292   2.832   6.206  0.1146  0.2685 -0.9296
  267MOL    H9632548   6.397   2.962   6.155 -0.5258  0.0777  1.1468
  267MOL    H9732549   6.534   2.842   6.044 -1.0855  0.1309 -0.5808
  267MOL    C9832550   6.563   2.763   6.252  0.1331  0.3773  0.2492
  267MOL    C9932551   6.504   2.703   6.375  0.1989  0.1360 -0.0789
  267MOL  Cl10032552   6.395   2.823   6.450  0.1697  0.4987  0.2964
  267MOL   H10132553   6.609   2.861   6.266  0.1486  0.7383 -2.0705
  267MOL   H10232554   6.648   2.700   6.224 -1.0686 -0.8460 -0.7059
  267MOL   H10332555   6.437   2.619   6.354  1.8377 -1.6819  1.6999
  267MOL   C10432556   6.605   2.658   6.488  0.4454  0.2414  0.2915
  267MOL   C10532557   6.673   2.520   6.454 -0.0837  1.0184 -0.3304
  267MOL  Cl10632558   6.545   2.396   6.434  0.1304 -0.2670 -0.0072
  267MOL   H10732559   6.550   2.644   6.580  0.0544  0.7179  0.1300
  267MOL   H10832560   6.676   2.738   6.508  1.8182 -1.1249  1.0100
  267MOL   H10932561   6.726   2.528   6.358 -3.1847  2.5576 -1.9700
  267MOL   C11032562   6.771   2.466   6.562 -0.1007  0.7733  0.4637
  267MOL   C11132563   6.913   2.539   6.586  0.6919  0.5387  0.4939
  267MOL  Cl11232564   7.000   2.544   6.436  0.1733  0.4408 -0.3461
  267MOL   H11332565   6.791   2.361   6.539  0.3496  1.5275 -2.7970
  267MOL   H11432566   6.721   2.466   6.659  0.7112 -2.5370  0.9489
  267MOL   H11532567   6.886   2.644   6.597  0.2326  0.3231  1.4606
  267MOL   C11632568   6.997   2.494   6.708 -0.3072  0.3654  0.4128
  267MOL   C11732569   7.128   2.570   6.711  0.0239  0.2986  0.1968
  267MOL  Cl11832570   7.206   2.505   6.859  0.7273  0.0857 -0.1400
  267MOL   H11932571   7.027   2.389   6.707  0.6101  0.5692  2.5335
  267MOL   H12032572   6.941   2.503   6.802 -1.1429  0.0160 -0.0504
  267MOL   H12132573   7.194   2.563   6.625  2.7400 -0.0626  2.2215
  267MOL   H12232574   7.110   2.676   6.728 -2.1468  0.3921 -2.3376
  268MOL     C132575   4.498   0.779   1.269 -0.1686  0.0588  0.4803
  268MOL     C232576   4.500   0.920   1.212  0.4799  0.3379 -0.0243
  268MOL    Cl332577   4.369   0.919   1.092  0.0820 -0.1096  0.3765
  268MOL     H432578   4.421   0.776   1.346  0.9448 -2.6104  1.5769
  268MOL     H532579   4.462   0.694   1.210 -4.4811  1.8153  0.4085
  268MOL     H632580   4.467   0.979   1.298 -0.9653 -1.3816  0.6121
  268MOL     H732581   4.588   0.745   1.320 -1.0223 -2.5469  0.3364
  268MOL     C832582   4.633   0.955   1.158 -0.7985  0.1167 -0.1338
  268MOL     C932583   4.649   1.101   1.116 -0.3633  0.2463  0.0623
  268MOL   Cl1032584   4.820   1.100   1.078 -0.0853  0.0539  0.0753
  268MOL    H1132585   4.656   0.888   1.075  0.5494 -0.8698  1.0202
  268MOL    H1232586   4.704   0.929   1.235 -1.6293  0.7746  0.8673
  268MOL    H1332587   4.594   1.129   1.026  3.4612  2.4065 -1.7129
  268MOL    C1432588   4.625   1.201   1.241 -0.1196 -0.0610  0.1885
  268MOL    C1532589   4.701   1.333   1.217  0.2504  0.0338 -0.0647
  268MOL   Cl1632590   4.703   1.408   1.376 -0.3010  0.3087  0.0232
  268MOL    H1732591   4.647   1.150   1.335  1.1982 -0.9830 -0.5932
  268MOL    H1832592   4.520   1.215   1.265 -0.2631  1.1796 -1.0872
  268MOL    H1932593   4.808   1.314   1.204  0.6707  2.3999 -0.2946
  268MOL    C2032594   4.654   1.437   1.113 -0.2197 -0.1568 -0.0443
  268MOL    C2132595   4.739   1.563   1.103 -0.5660  0.1159 -0.4150
  268MOL   Cl2232596   4.699   1.653   0.955  0.0060  0.1796  0.1348
  268MOL    H2332597   4.552   1.464   1.142 -0.3194 -1.1888  0.5659
  268MOL    H2432598   4.651   1.398   1.012  1.7790  0.6738 -0.4451
  268MOL    H2532599   4.711   1.633   1.181 -0.8809  0.7614 -1.0943
  268MOL    C2632600   4.892   1.550   1.108 -0.4955 -0.6046 -0.1563
  268MOL    C2732601   4.953   1.676   1.154 -0.3334  0.2634  0.2210
  268MOL   Cl2832602   5.127   1.664   1.106 -0.0132 -0.0556 -0.0748
  268MOL    H2932603   4.926   1.529   1.006  1.2575 -0.7188  0.4407
  268MOL    H3032604   4.928   1.467   1.169 -0.6222  0.1289  0.9165
  268MOL    H3132605   4.915   1.758   1.092  1.3093  0.8811  0.0063
  268MOL    C3232606   4.945   1.717   1.303 -0.0338  0.0759  0.3065
  268MOL    C3332607   4.998   1.858   1.351 -0.1641 -0.5293  1.0814
  268MOL   Cl3432608   4.957   1.872   1.521 -0.1395  0.1281 -0.0609
  268MOL    H3532609   4.987   1.642   1.370 -1.1871 -1.0700 -0.2132
  268MOL    H3632610   4.842   1.707   1.337  0.1968  0.6613  1.1829
  268MOL    H3732611   5.106   1.868   1.349 -0.0639 -1.7698 -0.2543
  268MOL    C3832612   4.929   1.969   1.270 -0.9778 -0.5554  0.2188
  268MOL    C3932613   5.009   2.034   1.156  0.5600 -0.5995 -0.4668
  268MOL   Cl4032614   5.126   2.149   1.223  0.4374 -0.0815  0.4370
  268MOL    H4132615   4.887   2.046   1.335 -0.5811 -1.3927  1.4814
  268MOL    H4232616   4.841   1.928   1.219  0.2811 -1.7603 -1.0085
  268MOL    H4332617   5.077   1.971   1.099  0.6950 -1.7079  0.8672
  268MOL    C4432618   4.923   2.102   1.042  0.1434 -1.1463 -0.1436
  268MOL    C4532619   4.807   2.197   1.088  0.6523 -0.5116 -0.5701
  268MOL   Cl4632620   4.735   2.260   0.941 -0.2873 -0.2546 -0.0670
  268MOL    H4732621   4.877   2.034   0.970 -0.8096 -1.2437  0.5487
  268MOL    H4832622   4.990   2.152   0.972 -1.6795  2.8045  0.8161
  268MOL    H4932623   4.731   2.130   1.129 -0.3668 -0.5446 -2.4522
  268MOL    C5032624   4.845   2.317   1.176 -0.5971  0.4354 -0.1578
  268MOL    C5132625   4.727   2.406   1.206  0.4449 -0.0643 -0.3776
  268MOL   Cl5232626   4.800   2.548   1.300 -0.2568 -0.2668 -0.1011
  268MOL    H5332627   4.921   2.381   1.132  1.3234 -0.9577  1.0335
  268MOL    H5432628   4.880   2.270   1.268  0.0334 -1.5885 -1.4000
  268MOL    H5532629   4.689   2.455   1.116  0.3672  0.1672 -0.2190
  268MOL    C5632630   4.604   2.348   1.275 -0.2441  0.5360  0.3998
  268MOL    C5732631   4.636   2.283   1.415  0.1646 -0.6926  0.2511
  268MOL   Cl5832632   4.627   2.102   1.398  0.0944  0.1741  0.2177
  268MOL    H5932633   4.552   2.278   1.210  1.0919 -0.7156  0.6325
  268MOL    H6032634   4.535   2.432   1.286  0.9829  1.8085 -1.3670
  268MOL    H6132635   4.741   2.294   1.443  0.1566 -0.0354  0.0290
  268MOL    C6232636   4.542   2.340   1.527  0.2223 -0.0713 -0.6863
  268MOL    C6332637   4.567   2.479   1.578 -0.1704  0.3559  0.4792
  268MOL   Cl6432638   4.714   2.471   1.685 -0.2982  0.0294  0.1844
  268MOL    H6532639   4.535   2.277   1.616  3.5113 -0.0058 -0.2999
  268MOL    H6632640   4.441   2.344   1.487 -0.0613 -1.8593 -0.2277
  268MOL    H6732641   4.608   2.552   1.508  0.0201 -1.7402 -1.6568
  268MOL    C6832642   4.451   2.527   1.664  0.1379  0.4990 -0.2944
  268MOL    C6932643   4.405   2.675   1.630  0.5984 -0.1307  0.7898
  268MOL   Cl7032644   4.327   2.659   1.475 -0.4069 -0.1318  0.0304
  268MOL    H7132645   4.489   2.526   1.766 -0.6210  2.2748  0.0095
  268MOL    H7232646   4.357   2.473   1.655  0.6394 -0.5297  0.4485
  268MOL    H7332647   4.327   2.698   1.702 -1.0881 -0.6551 -0.8235
  268MOL    C7432648   4.517   2.786   1.622  0.2963 -0.4300 -0.0940
  268MOL    C7532649   4.583   2.807   1.767  0.3878 -0.0866 -0.0465
  268MOL   Cl7632650   4.462   2.850   1.888 -0.1283  0.0477 -0.3459
  268MOL    H7732651   4.468   2.877   1.586  0.8428  0.6615  1.8520
  268MOL    H7832652   4.580   2.752   1.540 -0.2705 -0.7233 -0.4167
  268MOL    H7932653   4.612   2.710   1.809 -1.3721 -0.2395  0.8479
  268MOL    C8032654   4.696   2.906   1.781 -0.6041  0.6522  0.0339
  268MOL    C8132655   4.836   2.865   1.720  0.1783  0.1234  0.5341
  268MOL   Cl8232656   4.900   2.739   1.820  0.0657  0.4402  0.0299
  268MOL    H8332657   4.700   2.922   1.889 -1.8650  1.6556 -0.0616
  268MOL    H8432658   4.659   2.994   1.728 -0.1437 -0.7755 -2.7160
  268MOL    H8532659   4.826   2.822   1.621  0.8278 -0.6701  0.8124
  268MOL    C8632660   4.930   2.988   1.717 -0.1555 -0.0858  0.1405
  268MOL    C8732661   4.894   3.101   1.618 -0.0758  0.5745 -0.1550
  268MOL   Cl8832662   4.907   3.053   1.446  0.0976  0.2771  0.2384
  268MOL    H8932663   5.033   2.959   1.696  0.0129  0.4081  0.2610
  268MOL    H9032664   4.922   3.028   1.818 -1.4044 -2.1228  0.8763
  268MOL    H9132665   4.792   3.135   1.639 -0.1808  1.9225 -2.7171
  268MOL    C9232666   4.991   3.221   1.644  0.1961  0.5597  0.2026
  268MOL    C9332667   4.939   3.351   1.591  0.2055  0.0379  0.0734
  268MOL   Cl9432668   4.789   3.409   1.675  0.0918  0.1523  0.1338
  268MOL    H9532669   5.090   3.191   1.610  0.1883 -1.2458  1.6729
  268MOL    H9632670   5.003   3.239   1.750  0.7324  1.0482  0.0612
  268MOL    H9732671   5.013   3.429   1.609  0.5516 -0.0153 -1.0332
  268MOL    C9832672   4.914   3.361   1.436  0.0956  0.6937 -0.2809
  268MOL    C9932673   4.852   3.492   1.389  0.7036 -0.5172 -0.2535
  268MOL  Cl10032674   4.823   3.471   1.220 -0.4412  0.0388 -0.0041
  268MOL   H10132675   4.829   3.298   1.412 -0.4415  1.2881  0.0604
  268MOL   H10232676   5.003   3.333   1.380  0.1966  1.0990 -0.3273
  268MOL   H10332677   4.750   3.498   1.427 -0.5208  0.8335 -3.5441
  268MOL   C10432678   4.938   3.616   1.424 -0.0322 -0.3648  0.0313
  268MOL   C10532679   5.050   3.663   1.332 -0.2128  0.0970  0.7693
  268MOL  Cl10632680   5.192   3.554   1.336  0.3962  0.2794 -0.0074
  268MOL   H10732681   4.978   3.614   1.525  1.4145 -2.6430 -0.5420
  268MOL   H10832682   4.865   3.695   1.441 -0.0387 -0.7592  1.8596
  268MOL   H10932683   5.014   3.659   1.229 -0.1887 -1.1837  0.8070
  268MOL   C11032684   5.085   3.814   1.357  0.5356  0.1338 -0.3536
  268MOL   C11132685   5.127   3.902   1.233  1.2734  0.1573  0.6718
  268MOL  Cl11232686   5.282   3.853   1.178  0.0629 -0.6435  0.2832
  268MOL   H11332687   5.161   3.812   1.436 -0.8755 -0.7473  1.0296
  268MOL   H11432688   5.005   3.858   1.417 -0.2987  0.3282 -1.5953
  268MOL   H11532689   5.056   3.877   1.154  0.6089 -0.2512  1.3971
  268MOL   C11632690   5.116   4.053   1.267 -0.5612 -0.0279 -0.4232
  268MOL   C11732691   5.123   4.154   1.146  0.4615  1.0295  0.0079
  268MOL  Cl11832692   5.274   4.164   1.054 -0.2977 -0.1517 -0.0413
  268MOL   H11932693   5.196   4.070   1.338 -1.0471  1.4943 -0.2303
  268MOL   H12032694   5.022   4.068   1.320  0.2077  3.4126  0.0596
  268MOL   H12132695   5.047   4.129   1.073 -0.2051 -2.4407  1.7669
  268MOL   H12232696   5.087   4.256   1.159 -1.6227  0.4467 -1.0799
  269MOL     C132697   7.312   2.654   7.171  0.0095 -0.5034 -0.6647
  269MOL     C232698   7.359   2.654   7.320  0.4809 -0.7451  0.4220
  269MOL    Cl332699   7.287   2.804   7.384  0.1215 -0.2135 -0.8271
  269MOL     H432700   7.346   2.569   7.112 -0.9945 -2.0587  0.9607
  269MOL     H532701   7.203   2.654   7.173  0.0200 -0.3823  0.0579
  269MOL     H632702   7.307   2.571   7.368 -0.7839 -1.3134 -1.8406
  269MOL     H732703   7.332   2.746   7.116 -3.4777  0.5194 -0.3656
  269MOL     C832704   7.509   2.656   7.331 -0.4297 -0.1889  0.1256
  269MOL     C932705   7.573   2.612   7.462  0.4316 -0.2619 -0.1268
  269MOL   Cl1032706   7.493   2.470   7.531 -0.4794  0.5715 -0.1547
  269MOL    H1132707   7.545   2.749   7.287 -0.1327  0.3939  1.5683
  269MOL    H1232708   7.547   2.580   7.263  1.0274 -0.5909  1.3671
  269MOL    H1332709   7.674   2.577   7.440 -0.0312 -1.7561  0.1405
  269MOL    C1432710   7.572   2.720   7.566  0.1283 -0.7995 -0.3678
  269MOL    C1532711   7.629   2.856   7.521 -0.5212 -0.1023  0.1839
  269MOL   Cl1632712   7.791   2.834   7.453  0.0494  0.3680 -0.3427
  269MOL    H1732713   7.635   2.693   7.650  1.9616  3.2165 -0.3175
  269MOL    H1832714   7.466   2.718   7.593  0.5028  0.3702  1.1972
  269MOL    H1932715   7.571   2.902   7.441 -0.6991 -1.3516 -0.4171
  269MOL    C2032716   7.639   2.964   7.629 -0.4844  0.1196  0.6015
  269MOL    C2132717   7.506   3.006   7.694 -0.2131 -0.6133 -0.0311
  269MOL   Cl2232718   7.525   3.175   7.762 -0.2418  0.2056  0.1549
  269MOL    H2332719   7.679   3.051   7.576 -1.2866  0.2264  0.1759
  269MOL    H2432720   7.714   2.930   7.700 -0.4171  2.0736  1.5038
  269MOL    H2532721   7.419   3.010   7.629 -0.7225  2.8772  0.7922
  269MOL    C2632722   7.475   2.911   7.814  0.4448 -0.6444 -0.3486
  269MOL    C2732723   7.357   2.961   7.911  0.4557 -0.0635  0.7929
  269MOL   Cl2832724   7.374   2.847   8.043 -0.1759 -0.0935 -0.3156
  269MOL    H2932725   7.566   2.902   7.873  0.3504 -1.8632 -0.3714
  269MOL    H3032726   7.480   2.805   7.787  2.0884 -1.0166  1.2982
  269MOL    H3132727   7.378   3.051   7.968 -1.4639  0.5906  0.4843
  269MOL    C3232728   7.216   2.950   7.845 -0.3589 -0.6316  0.1243
  269MOL    C3332729   7.113   3.028   7.939 -0.0533  0.2135  0.1041
  269MOL   Cl3432730   6.946   2.971   7.913 -0.3576 -0.5748  0.0828
  269MOL    H3532731   7.198   2.844   7.829 -1.1507 -0.3951 -0.6314
  269MOL    H3632732   7.229   2.999   7.749  1.1061 -2.3327 -0.5516
  269MOL    H3732733   7.136   2.994   8.040 -2.3973 -1.9448 -0.0240
  269MOL    C3832734   7.119   3.185   7.921  0.4699  0.1927  0.2889
  269MOL    C3932735   7.030   3.259   8.021 -0.0519  0.3841 -0.0723
  269MOL   Cl4032736   7.038   3.427   7.970 -0.5181 -0.2362 -0.1333
  269MOL    H4132737   7.102   3.213   7.817  1.5007  1.6680  0.5042
  269MOL    H4232738   7.226   3.205   7.932  0.6832  0.3054 -1.8615
  269MOL    H4332739   6.924   3.235   8.013  0.3290 -0.7820 -2.1105
  269MOL    C4432740   7.078   3.239   8.169 -0.5374 -0.4722 -0.0044
  269MOL    C4532741   7.006   3.323   8.279 -1.1512 -0.0188  0.1993
  269MOL   Cl4632742   7.111   3.312   8.419  0.3842 -0.1015  0.0360
  269MOL    H4732743   7.179   3.282   8.167 -1.2705  1.2436 -2.8095
  269MOL    H4832744   7.088   3.135   8.199  1.2407 -0.3458 -0.0541
  269MOL    H4932745   7.001   3.428   8.250 -1.7265 -0.0243  0.2858
  269MOL    C5032746   6.870   3.271   8.321 -0.7682 -0.0553  0.6100
  269MOL    C5132747   6.796   3.347   8.437 -0.0067  0.1476  0.0650
  269MOL   Cl5232748   6.622   3.297   8.447  0.2712 -0.0710  0.3014
  269MOL    H5332749   6.859   3.163   8.333  0.5881 -0.4896 -1.7389
  269MOL    H5432750   6.807   3.282   8.232  0.2507  2.4578  0.1589
  269MOL    H5532751   6.838   3.308   0.005 -2.0400  0.9163  1.3306
  269MOL    C5632752   6.808   3.500   8.447  0.0457 -0.1668 -0.6665
  269MOL    C5732753   6.711   3.582   8.360 -0.1639  0.8157 -0.1390
  269MOL   Cl5832754   6.753   3.560   8.192  0.3337  0.1449  0.1198
  269MOL    H5932755   6.907   3.543   8.429  0.2519  0.5080  1.8369
  269MOL    H6032756   6.779   3.529   0.023 -0.4326  0.1952 -0.9053
  269MOL    H6132757   6.610   3.542   8.358 -0.4896  1.7078 -2.4118
  269MOL    C6232758   6.697   3.731   8.404  0.0630  0.4634 -0.6538
  269MOL    C6332759   6.603   3.824   8.306  0.2174 -0.0707  0.0713
  269MOL   Cl6432760   6.618   3.990   8.364 -0.4625  0.3087 -0.2675
  269MOL    H6532761   6.794   3.780   8.414 -0.2364  0.6123  1.8223
  269MOL    H6632762   6.647   3.734   8.501 -2.3890 -0.0083 -1.8725
  269MOL    H6732763   6.641   3.818   8.204  2.5049  0.6821  0.8529
  269MOL    C6832764   6.452   3.786   8.302  0.0696  0.1671 -0.7287
  269MOL    C6932765   6.367   3.869   8.205 -0.7199  0.6831  0.7309
  269MOL   Cl7032766   6.204   3.804   8.246 -0.0934 -0.1247  0.0301
  269MOL    H7132767   6.416   3.797   8.405 -1.1706  1.2135 -1.2560
  269MOL    H7232768   6.442   3.681   8.275  1.7930 -0.9197  2.5763
  269MOL    H7332769   6.375   3.973   8.234  0.6103  1.6202 -2.7505
  269MOL    C7432770   6.405   3.862   8.052  0.0185  0.2253 -1.3261
  269MOL    C7532771   6.289   3.866   7.956 -0.2414 -0.2241  0.6912
  269MOL   Cl7632772   6.339   3.810   7.797 -0.3517 -0.2814 -0.3228
  269MOL    H7732773   6.450   3.764   8.036 -0.6729 -0.5060  0.9248
  269MOL    H7832774   6.472   3.943   8.024  1.1115  0.2915  1.2745
  269MOL    H7932775   6.217   3.794   7.995  1.7931 -1.3069  2.5718
  269MOL    C8032776   6.206   4.006   7.954  0.1579 -0.2096 -0.5224
  269MOL    C8132777   6.262   4.109   7.852  0.1490  0.6103  0.5855
  269MOL   Cl8232778   6.388   4.209   7.931 -0.0029 -0.5404  0.0108
  269MOL    H8332779   6.213   4.052   8.053 -0.6338 -2.0670  0.4169
  269MOL    H8432780   6.103   3.983   7.929  0.1743 -1.0134  0.1345
  269MOL    H8532781   6.315   4.061   7.770 -1.4996  1.0517 -0.7577
  269MOL    C8632782   6.168   4.210   7.789  0.1649  0.1543 -0.8651
  269MOL    C8732783   6.097   4.140   7.672 -0.2520 -0.0380  0.7506
  269MOL   Cl8832784   6.212   4.110   7.536  0.0277  0.4756  0.2279
  269MOL    H8932785   6.221   4.298   7.753  1.3735 -1.0212 -2.0128
  269MOL    H9032786   6.108   4.256   7.868  1.7022  1.3613 -0.3756
  269MOL    H9132787   6.066   4.041   7.706 -0.9555 -0.1151 -0.0905
  269MOL    C9232788   5.971   4.215   7.612  0.1653  0.4637  0.0930
  269MOL    C9332789   5.887   4.137   7.507 -0.5226  0.8187 -0.3539
  269MOL   Cl9432790   5.962   4.119   7.347  0.3574  0.1240  0.2040
  269MOL    H9532791   6.012   4.312   7.584  1.4344 -0.0205  0.2601
  269MOL    H9632792   5.894   4.242   7.684  1.1412  2.4726  0.4201
  269MOL    H9732793   5.874   4.034   7.539 -0.8378  0.6647 -0.9681
  269MOL    C9832794   5.763   4.214   7.470 -0.2649 -0.6733  0.4987
  269MOL    C9932795   5.649   4.154   7.371  0.3769 -0.0270  0.6778
  269MOL  Cl10032796   5.551   4.288   7.313 -0.1085  0.1807 -0.0762
  269MOL   H10132797   5.798   4.309   7.428  0.5731 -0.9288  0.6131
  269MOL   H10232798   5.715   4.237   7.565 -2.1980  0.6528 -0.7732
  269MOL   H10332799   5.707   4.119   7.285 -0.1295 -0.7373  0.6248
  269MOL   C10432800   5.554   4.063   7.445  0.0223 -0.3200  0.3417
  269MOL   C10532801   5.435   4.007   7.362 -0.6070  0.1238 -0.2143
  269MOL  Cl10632802   5.287   3.997   7.465  0.1886 -0.3736  0.0852
  269MOL   H10732803   5.530   4.111   7.540  3.3450  0.5249  0.8123
  269MOL   H10832804   5.615   3.980   7.481 -1.9241 -1.3240  1.4371
  269MOL   H10932805   5.409   4.070   7.277 -1.2836  0.8461  0.5157
  269MOL   C11032806   5.462   3.855   7.318  0.1728 -0.6810 -0.0033
  269MOL   C11132807   5.362   3.789   7.224  0.2715  0.1024  0.2592
  269MOL  Cl11232808   5.369   3.609   7.232 -0.2506 -0.8321 -0.2399
  269MOL   H11332809   5.458   3.799   7.412  0.2668 -1.6208 -0.5535
  269MOL   H11432810   5.558   3.845   7.268  0.0443  2.6546 -1.0325
  269MOL   H11532811   5.262   3.810   7.263 -0.1428  1.3903 -1.4233
  269MOL   C11632812   5.384   3.837   7.082 -0.2927  0.0999  1.2800
  269MOL   C11732813   5.294   3.769   6.981  0.3240 -0.3338 -0.1768
  269MOL  Cl11832814   5.128   3.800   7.033 -0.0055 -0.1093  0.5562
  269MOL   H11932815   5.483   3.796   7.062 -1.3364 -1.2785 -1.1856
  269MOL   H12032816   5.383   3.944   7.063  0.0409 -0.0349  0.4770
  269MOL   H12132817   5.303   3.821   6.885  0.7768 -0.2116 -0.0717
  269MOL   H12232818   5.314   3.663   6.970 -0.5160 -0.4926 -0.1979
  270MOL     C132819   6.621   6.540   6.248  0.0940 -0.0970 -0.0357
  270MOL     C232820   6.678   6.404   6.277  0.1438 -0.1745 -0.0081
  270MOL    Cl332821   6.546   6.295   6.299 -0.2493 -0.3173  0.1763
  270MOL     H432822   6.547   6.524   6.170 -0.7367  1.5369  0.3855
  270MOL     H532823   6.564   6.585   6.329 -2.2321  0.7225 -2.0434
  270MOL     H632824   6.737   6.377   6.190  1.1863  1.1352  0.2740
  270MOL     H732825   6.690   6.613   6.205  0.5176  0.4824  1.6164
  270MOL     C832826   6.770   6.411   6.400  0.0346  0.1344 -0.4883
  270MOL     C932827   6.815   6.282   6.461  0.2775 -0.7439  0.3456
  270MOL   Cl1032828   6.915   6.296   6.613 -0.1451  0.2133 -0.1207
  270MOL    H1132829   6.713   6.449   6.485  2.1258  1.4570  0.3793
  270MOL    H1232830   6.845   6.484   6.368  1.2692 -0.5562  0.8266
  270MOL    H1332831   6.732   6.220   6.493 -0.7879 -0.1126 -1.1532
  270MOL    C1432832   6.915   6.210   6.368  0.1987  0.1991 -0.2109
  270MOL    C1532833   6.910   6.060   6.391 -0.2368 -0.0357  0.1280
  270MOL   Cl1632834   7.038   5.980   6.294 -0.1358  0.4721 -0.0481
  270MOL    H1732835   7.010   6.262   6.377 -0.9376  2.1794  0.5133
  270MOL    H1832836   6.887   6.226   6.264  0.8147  2.6729 -0.0175
  270MOL    H1932837   6.935   6.040   6.496  1.4180  0.0631 -0.2362
  270MOL    C2032838   6.782   5.986   6.344 -0.0615  0.7946 -0.4234
  270MOL    C2132839   6.786   5.836   6.375  0.0320 -0.8954 -0.0322
  270MOL   Cl2232840   6.670   5.757   6.262 -0.3283 -0.0799 -0.5688
  270MOL    H2332841   6.779   6.004   6.236  1.9220 -3.2542 -1.2461
  270MOL    H2432842   6.694   6.025   6.395 -0.1058 -1.7973  1.5724
  270MOL    H2532843   6.879   5.783   6.355  0.9625  1.0311 -1.0396
  270MOL    C2632844   6.757   5.794   6.524  0.1785  0.1907  0.0161
  270MOL    C2732845   6.768   5.647   6.562 -0.5024  0.0599  0.2408
  270MOL   Cl2832846   6.704   5.617   6.733 -0.2455  0.1725  0.1909
  270MOL    H2932847   6.661   5.834   6.557  0.9657  0.4719  2.0125
  270MOL    H3032848   6.828   5.855   6.579 -0.7934 -1.1414  2.8298
  270MOL    H3132849   6.709   5.589   6.492  0.1091 -0.2689 -0.0018
  270MOL    C3232850   6.908   5.583   6.554  0.1877 -0.5846  0.2751
  270MOL    C3332851   6.931   5.435   6.595 -0.3052  0.6685 -0.2155
  270MOL   Cl3432852   7.104   5.410   6.569 -0.1625  0.2706 -0.0921
  270MOL    H3532853   6.977   5.642   6.615 -0.1347  0.9119 -0.7853
  270MOL    H3632854   6.953   5.593   6.455 -1.3676  1.1263 -0.2709
  270MOL    H3732855   6.921   5.435   6.704 -1.0902  0.8932 -0.2863
  270MOL    C3832856   6.853   5.328   6.528 -0.1028 -0.0582  0.1527
  270MOL    C3932857   6.890   5.186   6.568  0.8255  0.9169  0.0247
  270MOL   Cl4032858   6.800   5.080   6.452  0.0721  0.0661  0.0874
  270MOL    H4132859   6.879   5.346   6.423  1.1289 -1.4627  0.2041
  270MOL    H4232860   6.745   5.331   6.539  0.1028  0.5673  2.1051
  270MOL    H4332861   6.996   5.169   6.546  0.6649 -0.7876  0.4514
  270MOL    C4432862   6.854   5.138   6.706  0.7065 -0.9187  0.2808
  270MOL    C4532863   6.917   5.004   6.752 -1.2363  0.4945  0.1807
  270MOL   Cl4632864   6.797   4.897   6.838  0.3919  0.3778  0.0462
  270MOL    H4732865   6.750   5.106   6.695  0.6620 -0.6280 -0.1206
  270MOL    H4832866   6.848   5.215   6.783  1.4713  0.3363 -0.9136
  270MOL    H4932867   6.942   4.944   6.665  0.3632  0.7567  0.4499
  270MOL    C5032868   7.047   5.016   6.832  0.2663  0.3060 -0.3642
  270MOL    C5132869   7.168   5.101   6.775 -0.0907  0.4916  0.3878
  270MOL   Cl5232870   7.253   5.015   6.646  0.0449  0.1002  0.0695
  270MOL    H5332871   7.071   4.915   6.864  1.0562  0.5835 -0.0789
  270MOL    H5432872   7.000   5.064   6.918  1.8723  0.4833  0.4298
  270MOL    H5532873   7.130   5.196   6.739  1.8932  1.0240 -0.3819
  270MOL    C5632874   7.269   5.136   6.890 -0.1289  0.2144  0.2059
  270MOL    C5732875   7.213   5.217   7.007  0.1265 -0.2049 -0.0780
  270MOL   Cl5832876   7.114   5.356   6.955 -0.0742 -0.0655  0.0346
  270MOL    H5932877   7.351   5.195   6.850 -0.0581 -0.4534 -0.6716
  270MOL    H6032878   7.329   5.053   6.925 -0.9256  0.1930  1.5283
  270MOL    H6132879   7.148   5.152   7.067  1.8471 -2.2296 -0.3482
  270MOL    C6232880   7.324   5.263   7.109  0.3063  0.6804 -0.3925
  270MOL    C6332881   7.391   5.142   7.183  0.6519 -0.0014  0.1299
  270MOL   Cl6432882   7.269   5.037   7.262 -0.0169 -0.2011 -0.0358
  270MOL    H6532883   7.266   5.320   7.182 -2.5554 -1.7527 -0.6505
  270MOL    H6632884   7.394   5.326   7.055 -1.1658  2.0337 -0.7458
  270MOL    H6732885   7.435   5.072   7.112  2.8544  1.3405  0.1553
  270MOL    C6832886   7.498   5.180   7.288 -0.3699 -0.3626  0.4583
  270MOL    C6932887   7.624   5.247   7.225 -0.2484 -0.4765 -0.7012
  270MOL   Cl7032888   7.690   5.139   7.108 -0.2770  0.3859  0.2848
  270MOL    H7132889   7.532   5.093   7.344  0.6243  0.4867  1.2143
  270MOL    H7232890   7.443   5.249   7.352 -0.8454  1.1999 -1.5976
  270MOL    H7332891   7.592   5.339   7.177  1.3430  0.4353 -0.0700
  270MOL    C7432892   7.745   5.282   7.321  0.5524  0.1289 -0.2652
  270MOL    C7532893   7.736   5.377   7.440  0.5036  0.0657  0.6452
  270MOL   Cl7632894   7.672   5.533   7.377  0.1717  0.1303  0.1274
  270MOL    H7732895   7.824   5.328   7.262  0.5454  0.6403  0.1219
  270MOL    H7832896   7.798   5.190   7.344 -0.7110 -0.1756  1.5244
  270MOL    H7932897   7.662   5.333   7.507 -0.5322 -0.5002 -0.8551
  270MOL    C8032898   7.874   5.390   7.507 -0.2416 -0.6068  0.1659
  270MOL    C8132899   7.870   5.499   7.617  0.1879  0.0347 -0.0893
  270MOL   Cl8232900   8.034   5.499   7.698  0.1994  0.0139 -0.1430
  270MOL    H8332901   7.939   5.416   7.423  1.4130 -1.2083  1.2367
  270MOL    H8432902   7.921   5.299   7.544  2.1118  0.3783 -0.2826
  270MOL    H8532903   7.857   5.595   7.568 -0.8738  0.1802  0.4756
  270MOL    C8632904   7.760   5.499   7.725 -0.6361  0.3086 -0.1420
  270MOL    C8732905   7.772   5.601   7.838  0.1061  0.0768 -0.1474
  270MOL   Cl8832906   7.778   5.491   7.992 -0.0392 -0.2362  0.1082
  270MOL    H8932907   7.766   5.400   7.771  4.3363  0.4184 -0.2472
  270MOL    H9032908   7.659   5.511   7.685 -1.0321  0.9452  1.0248
  270MOL    H9132909   7.871   5.647   7.836  0.1850 -0.0167  1.3812
  270MOL    C9232910   7.646   5.694   7.851  0.4971  0.1041  0.3595
  270MOL    C9332911   7.621   5.792   7.736  0.3030 -0.8812  0.1114
  270MOL   Cl9432912   7.782   5.864   7.693  0.0557 -0.0185 -0.3074
  270MOL    H9532913   7.684   5.748   7.938 -1.9973  2.1190  0.2386
  270MOL    H9632914   7.558   5.638   7.881  2.8388 -4.0035 -0.0539
  270MOL    H9732915   7.580   5.739   7.649 -0.1420 -0.5789  0.1323
  270MOL    C9832916   7.513   5.898   7.763 -0.5229 -0.0014 -0.2151
  270MOL    C9932917   7.489   5.979   7.635 -0.0963  0.7044  0.0548
  270MOL  Cl10032918   7.598   6.126   7.629  0.3412 -0.0578  0.0896
  270MOL   H10132919   7.526   5.960   7.852 -1.0500  0.4426 -0.4473
  270MOL   H10232920   7.423   5.845   7.795  0.4762 -0.9670  1.0798
  270MOL   H10332921   7.508   5.918   7.547  0.1923 -0.0399  0.6192
  270MOL   C10432922   7.344   6.035   7.612 -0.1666 -0.1626  0.2405
  270MOL   C10532923   7.228   5.940   7.610 -0.1036  0.0952  0.0331
  270MOL  Cl10632924   7.264   5.799   7.514  0.4533  0.6099  0.2017
  270MOL   H10732925   7.349   6.080   7.513  0.0940 -1.3743 -0.3045
  270MOL   H10832926   7.330   6.121   7.678  0.5075 -0.4433  0.7607
  270MOL   H10932927   7.211   5.905   7.712  2.2619 -0.0364  0.4145
  270MOL   C11032928   7.095   6.009   7.552  0.1389 -0.0092 -0.5148
  270MOL   C11132929   7.025   6.111   7.636  0.8426  0.4728 -0.8836
  270MOL  Cl11232930   6.954   6.031   7.786  0.5575 -0.0745  0.5364
  270MOL   H11332931   7.026   5.926   7.534  1.1370 -0.2556 -3.5025
  270MOL   H11432932   7.125   6.046   7.454  0.6848  0.1684 -0.2863
  270MOL   H11532933   7.093   6.190   7.669  0.5804 -0.4438  1.9615
  270MOL   C11632934   6.906   6.179   7.555  0.1173 -1.0487 -0.2421
  270MOL   C11732935   6.863   6.309   7.624  0.4299 -0.3467  0.1930
  270MOL  Cl11832936   6.747   6.402   7.521 -0.3836  0.1163 -0.0742
  270MOL   H11932937   6.816   6.121   7.537 -1.1503  0.5031  0.9901
  270MOL   H12032938   6.946   6.216   7.461 -1.1844  2.2209  0.4095
  270MOL   H12132939   6.816   6.295   7.721 -5.2411  0.6269 -2.1653
  270MOL   H12232940   6.944   6.378   7.645 -0.2217  0.1655  1.0433
  271MOL     C132941   3.466   2.462   2.799  0.0803  0.4759 -0.4841
  271MOL     C232942   3.314   2.424   2.780  0.6094 -0.2067 -0.1191
  271MOL    Cl332943   3.307   2.270   2.690  0.1621  0.1964 -0.0622
  271MOL     H432944   3.488   2.552   2.855 -0.0199 -0.7926  1.6449
  271MOL     H532945   3.518   2.391   2.862  0.4362  0.5696 -0.6729
  271MOL     H632946   3.283   2.401   2.882 -0.3725  1.4476 -0.0263
  271MOL     H732947   3.527   2.471   2.709 -0.0726 -2.1567 -0.8893
  271MOL     C832948   3.236   2.533   2.714  0.0893  0.1353 -0.3197
  271MOL     C932949   3.161   2.618   2.816 -0.1688 -0.1795  0.5025
  271MOL   Cl1032950   3.026   2.539   2.899  0.2551  0.1477  0.0305
  271MOL    H1132951   3.154   2.488   2.657  0.3337  1.0415 -1.4077
  271MOL    H1232952   3.303   2.605   2.668  0.2406 -0.4558 -1.0396
  271MOL    H1332953   3.241   2.647   2.884 -0.2967  1.8384 -0.1859
  271MOL    C1432954   3.109   2.754   2.762  0.5300  0.1530 -0.8397
  271MOL    C1532955   2.992   2.748   2.661 -0.0764 -0.0147  0.1804
  271MOL   Cl1632956   3.036   2.665   2.512 -0.0537 -0.2553  0.0673
  271MOL    H1732957   3.193   2.817   2.731 -0.0517  1.2935 -0.1464
  271MOL    H1832958   3.079   2.798   2.858  0.6938 -2.4102  0.4193
  271MOL    H1932959   2.906   2.689   2.691 -0.2154 -0.0688 -0.3194
  271MOL    C2032960   2.942   2.882   2.609  0.3123  0.0123  0.4305
  271MOL    C2132961   2.889   2.981   2.720  0.1612 -0.2519  0.3864
  271MOL   Cl2232962   3.027   3.051   2.818 -0.0133  0.3149  0.2178
  271MOL    H2332963   2.857   2.860   2.544  0.2969  0.7967  0.1804
  271MOL    H2432964   3.015   2.931   2.545  2.0400 -0.9429  1.6380
  271MOL    H2532965   2.855   3.070   2.666 -1.0401 -0.9599 -0.0428
  271MOL    C2632966   2.782   2.923   2.812  0.1115 -0.5960  0.1864
  271MOL    C2732967   2.660   2.868   2.726  0.1534 -0.2976  0.0786
  271MOL   Cl2832968   2.605   2.995   2.616 -0.0276  0.4557  0.0269
  271MOL    H2932969   2.754   2.996   2.887  2.4645 -1.2483  1.7277
  271MOL    H3032970   2.835   2.859   2.882  0.9227 -2.0700 -1.7247
  271MOL    H3132971   2.693   2.786   2.662  1.8152  1.0669 -0.8128
  271MOL    C3232972   2.539   2.811   2.814  0.4081  0.5856 -0.6023
  271MOL    C3332973   2.558   2.680   2.899  0.2610  0.4203  1.1079
  271MOL   Cl3432974   2.618   2.559   2.787 -0.0953  0.1785  0.0376
  271MOL    H3532975   2.457   2.793   2.744  0.4792 -0.0182 -0.5327
  271MOL    H3632976   2.511   2.893   2.880  2.3774  1.2366 -0.5572
  271MOL    H3732977   2.627   2.719   2.974  1.9991 -0.4448  0.0103
  271MOL    C3832978   2.432   2.623   2.979 -0.3235 -0.8459  0.7204
  271MOL    C3932979   2.370   2.713   3.087  0.1356  0.5805 -0.3131
  271MOL   Cl4032980   2.496   2.774   3.208 -0.2540  0.0713  0.1762
  271MOL    H4132981   2.458   2.536   3.040 -0.3039  0.4964  2.6634
  271MOL    H4232982   2.355   2.593   2.907  1.6297 -3.2373 -0.4844
  271MOL    H4332983   2.321   2.798   3.038  0.6997  1.5872  0.8380
  271MOL    C4432984   2.266   2.637   3.169 -0.1632 -0.1423 -0.1306
  271MOL    C4532985   2.181   2.733   3.263  0.5433 -0.3328 -0.5590
  271MOL   Cl4632986   2.144   2.647   3.417 -0.1713 -0.0880  0.5284
  271MOL    H4732987   2.313   2.567   3.238 -0.8092  1.0862  1.6007
  271MOL    H4832988   2.200   2.582   3.102 -0.4846 -0.3159  0.3250
  271MOL    H4932989   2.245   2.814   3.298 -0.8442 -0.1863  1.7902
  271MOL    C5032990   2.032   2.777   3.221 -0.7215 -0.2185 -0.0041
  271MOL    C5132991   2.035   2.835   3.082 -0.0226 -0.4995 -0.0694
  271MOL   Cl5232992   2.143   2.979   3.073  0.0110 -0.1818 -0.2793
  271MOL    H5332993   1.984   2.845   3.292  0.6637  0.5291  0.2322
  271MOL    H5432994   1.968   2.691   3.207 -0.9487 -0.4875  2.4153
  271MOL    H5532995   2.076   2.759   3.015 -0.6343 -3.1788  2.4629
  271MOL    C5632996   1.896   2.871   3.020 -0.8153  0.7169 -0.0033
  271MOL    C5732997   1.817   2.745   2.966  0.1903  0.7256  0.0269
  271MOL   Cl5832998   1.893   2.667   2.827 -0.1437  0.1940  0.0183
  271MOL    H5932999   1.892   2.954   2.949 -1.5365  0.3785 -0.3575
  271MOL    H6033000   1.835   2.916   3.098 -0.8338 -0.3975  0.6344
  271MOL    H6133001   1.818   2.671   3.046 -1.0344  1.0143  0.3276
  271MOL    C6233002   1.666   2.774   2.939  0.1395 -0.2813  0.7792
  271MOL    C6333003   1.574   2.646   2.969 -0.8643  0.6104  0.6271
  271MOL   Cl6433004   1.578   2.615   3.148 -0.5251 -0.0950 -0.2231
  271MOL    H6533005   1.636   2.817   2.843  1.2135  1.9941  1.4370
  271MOL    H6633006   1.631   2.848   3.011 -1.5208  0.7445 -1.0359
  271MOL    H6733007   1.475   2.691   2.954 -0.4855  1.3459  0.2899
  271MOL    C6833008   1.594   2.525   2.881  0.4060 -0.5995  0.8714
  271MOL    C6933009   1.562   2.546   2.735 -0.4919 -0.9173 -0.0899
  271MOL   Cl7033010   1.385   2.547   2.729  0.2528 -0.0236 -0.0284
  271MOL    H7133011   1.539   2.447   2.934 -1.1932  0.5762  0.9681
  271MOL    H7233012   1.695   2.488   2.898  1.2883  1.9930  1.4041
  271MOL    H7333013   1.590   2.644   2.696 -2.5234 -0.2576  0.0678
  271MOL    C7433014   1.619   2.453   2.634 -0.1656 -0.1671  0.4169
  271MOL    C7533015   1.599   2.485   2.486 -0.0541 -0.3339  0.9659
  271MOL   Cl7633016   1.661   2.349   2.399 -0.1154 -0.2318  0.0058
  271MOL    H7733017   1.582   2.354   2.661 -0.5469 -0.2826 -0.5081
  271MOL    H7833018   1.727   2.450   2.646  0.1665  1.8349 -1.6603
  271MOL    H7933019   1.493   2.489   2.459  0.3704  0.0906 -0.6924
  271MOL    C8033020   1.666   2.609   2.428 -0.4939  0.0659  1.0167
  271MOL    C8133021   1.627   2.647   2.284  0.4951 -0.8828  0.0654
  271MOL   Cl8233022   1.774   2.699   2.193  0.1593 -0.7029  0.0917
  271MOL    H8333023   1.771   2.598   2.453 -0.5786  1.4242  2.0470
  271MOL    H8433024   1.642   2.695   2.492  1.0394  1.0912  0.2509
  271MOL    H8533025   1.592   2.563   2.224 -0.0680  0.0516 -0.9579
  271MOL    C8633026   1.519   2.752   2.264  0.5634 -0.4559 -0.1715
  271MOL    C8733027   1.382   2.703   2.319  0.6743 -0.5748  0.1450
  271MOL   Cl8833028   1.325   2.553   2.232  0.1133  0.0188  0.1990
  271MOL    H8933029   1.515   2.784   2.160  0.0643  2.4578  0.6801
  271MOL    H9033030   1.541   2.852   2.302  2.9180  0.0509 -2.6873
  271MOL    H9133031   1.388   2.675   2.424 -0.2834 -0.7899  0.1440
  271MOL    C9233032   1.267   2.817   2.319  0.4944 -0.7545  0.5735
  271MOL    C9333033   1.128   2.783   2.377 -0.2423 -0.1643 -0.4194
  271MOL   Cl9433034   1.034   2.931   2.360 -0.0614  0.1111 -0.0235
  271MOL    H9533035   1.259   2.838   2.212  0.3069  0.9365  0.9015
  271MOL    H9633036   1.311   2.911   2.353 -1.5245  0.4666 -0.0837
  271MOL    H9733037   1.079   2.715   2.308  1.1577 -1.9351  0.2830
  271MOL    C9833038   1.119   2.731   2.523 -0.3349  0.1900 -0.1616
  271MOL    C9933039   1.158   2.828   2.642 -0.1934 -0.0452 -0.1807
  271MOL  Cl10033040   1.337   2.867   2.626  0.1109  0.1473  0.2216
  271MOL   H10133041   1.160   2.630   2.531  0.6799  0.4423 -1.9196
  271MOL   H10233042   1.012   2.711   2.527  0.0599 -1.8619  0.9308
  271MOL   H10333043   1.106   2.922   2.626  0.3192  0.9954  3.7609
  271MOL   C10433044   1.117   2.767   2.779  0.6162 -0.0848  0.3544
  271MOL   C10533045   0.968   2.767   2.811 -0.2124  0.1251  0.0022
  271MOL  Cl10633046   0.896   2.927   2.801  0.0201  0.0739 -0.2838
  271MOL   H10733047   1.163   2.825   2.858  0.4858  1.1911 -0.4968
  271MOL   H10833048   1.151   2.663   2.777 -0.7016 -0.5143  0.0008
  271MOL   H10933049   0.906   2.705   2.747 -0.2475 -0.8000  0.9284
  271MOL   C11033050   0.937   2.730   2.960 -0.7798 -0.0088  0.1126
  271MOL   C11133051   0.945   2.583   2.994 -0.1858 -0.1334 -0.1784
  271MOL  Cl11233052   0.814   2.489   2.921  0.3897 -0.0737 -0.0145
  271MOL   H11333053   0.834   2.765   2.968 -0.8717  0.0335 -1.1727
  271MOL   H11433054   1.003   2.793   3.020 -0.3795 -0.3725  0.0572
  271MOL   H11533055   1.037   2.545   2.949 -0.9980 -1.4092 -0.7994
  271MOL   C11633056   0.944   2.542   3.137  0.3826 -0.1325 -0.0376
  271MOL   C11733057   1.087   2.559   3.196 -0.6101 -0.1931  0.0041
  271MOL  Cl11833058   1.205   2.452   3.120 -0.4299 -0.0144  0.0580
  271MOL   H11933059   0.910   2.439   3.152 -3.1370  0.9370 -0.2776
  271MOL   H12033060   0.873   2.606   3.190  3.4264  1.4983  2.2285
  271MOL   H12133061   1.111   2.663   3.173  1.4296 -0.9499 -1.4828
  271MOL   H12233062   1.078   2.530   3.300 -1.0080 -0.3103 -0.0594
  272MOL     C133063   3.847   2.544   2.425 -0.1338  0.8867  0.4154
  272MOL     C233064   3.853   2.649   2.535  0.1582 -0.1878  0.6597
  272MOL    Cl333065   3.691   2.709   2.556 -0.0459 -0.0773  0.6966
  272MOL     H433066   3.773   2.469   2.453 -1.8894  3.0040  1.5894
  272MOL     H533067   3.811   2.586   2.331  0.4589 -1.3579 -0.8494
  272MOL     H633068   3.889   2.609   2.630  0.7679  0.6904  0.7993
  272MOL     H733069   3.942   2.492   2.412 -0.9769 -0.3196 -1.0331
  272MOL     C833070   3.943   2.771   2.501  0.0173 -0.2792  0.3606
  272MOL     C933071   4.084   2.735   2.474 -0.0810 -0.2068 -0.7175
  272MOL   Cl1033072   4.160   2.673   2.618 -0.5801 -0.6995 -0.5320
  272MOL    H1133073   3.928   2.852   2.573 -0.5371  0.0987 -0.1819
  272MOL    H1233074   3.908   2.815   2.408  1.0487 -0.8553 -0.3113
  272MOL    H1333075   4.092   2.657   2.398  1.0312 -0.0835 -0.7257
  272MOL    C1433076   4.160   2.861   2.433 -0.2760 -0.7185  0.5941
  272MOL    C1533077   4.310   2.850   2.402  0.0104  0.2698  1.2402
  272MOL   Cl1633078   4.377   3.017   2.380 -0.0982  0.2952  0.0314
  272MOL    H1733079   4.157   2.928   2.519  2.9349  2.0615 -1.3409
  272MOL    H1833080   4.105   2.920   2.359  1.1651  1.1360  0.9689
  272MOL    H1933081   4.363   2.812   2.489  1.1801 -0.8358  0.0665
  272MOL    C2033082   4.345   2.758   2.278 -0.5213  0.2759  0.1820
  272MOL    C2133083   4.491   2.701   2.280 -1.1074 -0.0473  0.1272
  272MOL   Cl2233084   4.616   2.830   2.281  0.0332  0.0439  0.3054
  272MOL    H2333085   4.312   2.795   2.181 -1.1595  1.2342  0.7555
  272MOL    H2433086   4.287   2.666   2.290  0.9261 -0.5724  0.7388
  272MOL    H2533087   4.503   2.649   2.375  0.5345  1.3842  0.7195
  272MOL    C2633088   4.515   2.601   2.170  0.5952 -0.3181 -0.1442
  272MOL    C2733089   4.630   2.504   2.177  0.0254  0.3054 -0.2883
  272MOL   Cl2833090   4.621   2.409   2.029  0.0999 -0.3182 -0.0557
  272MOL    H2933091   4.520   2.659   2.078  1.4138 -0.4725 -0.1947
  272MOL    H3033092   4.423   2.548   2.144  1.1002 -0.2547 -2.0999
  272MOL    H3133093   4.723   2.557   2.160 -0.1127  0.1036 -1.7498
  272MOL    C3233094   4.636   2.406   2.301 -0.5994 -0.1270  0.5740
  272MOL    C3333095   4.524   2.291   2.305  0.0302 -1.0734  0.3082
  272MOL   Cl3433096   4.366   2.371   2.346  0.3430 -0.0036 -0.0842
  272MOL    H3533097   4.633   2.467   2.392 -2.1508  0.5730  0.0713
  272MOL    H3633098   4.734   2.359   2.309 -0.1893  0.3174 -1.6175
  272MOL    H3733099   4.524   2.225   2.218 -4.0416 -1.1608  0.2517
  272MOL    C3833100   4.551   2.196   2.425 -0.3049  0.6446 -0.3185
  272MOL    C3933101   4.456   2.085   2.452 -0.1331 -0.9918  0.0479
  272MOL   Cl4033102   4.487   2.007   2.609  0.1343 -0.0465  0.1212
  272MOL    H4133103   4.554   2.250   2.519  0.1480 -0.6615  0.4408
  272MOL    H4233104   4.653   2.157   2.423 -0.1467  0.9596  1.2781
  272MOL    H4333105   4.358   2.132   2.457 -0.2645 -1.1904 -0.6041
  272MOL    C4433106   4.455   1.977   2.342 -0.1395 -0.0074 -0.0653
  272MOL    C4533107   4.337   1.880   2.333  0.1214 -0.5188  0.0895
  272MOL   Cl4633108   4.383   1.751   2.441  0.4250 -0.1934 -0.0683
  272MOL    H4733109   4.553   1.930   2.347 -0.1071 -0.1792 -2.1251
  272MOL    H4833110   4.447   2.040   2.253 -2.7910  1.1639  0.9482
  272MOL    H4933111   4.247   1.932   2.369  0.6520  0.3689  0.1509
  272MOL    C5033112   4.327   1.822   2.193  0.2848 -0.0192  0.4315
  272MOL    C5133113   4.236   1.709   2.151  0.2075  0.4719  0.0738
  272MOL   Cl5233114   4.260   1.688   1.972 -0.0741 -0.0196  0.1730
  272MOL    H5333115   4.429   1.796   2.165  0.3638  2.2755 -1.5300
  272MOL    H5433116   4.310   1.910   2.131 -0.1936 -1.3212 -1.3268
  272MOL    H5533117   4.275   1.617   2.195 -0.2425  0.3648  0.2498
  272MOL    C5633118   4.089   1.738   2.186 -1.3780 -0.6880  0.3034
  272MOL    C5733119   3.996   1.612   2.188 -0.0608  0.0126  0.5259
  272MOL   Cl5833120   3.831   1.654   2.147 -0.0155 -0.1060 -0.0008
  272MOL    H5933121   4.059   1.808   2.107 -1.2053 -1.6183 -0.6038
  272MOL    H6033122   4.089   1.784   2.285 -0.0181  2.4088 -1.0595
  272MOL    H6133123   4.028   1.542   2.111  0.6440  1.5457 -0.6054
  272MOL    C6233124   4.005   1.536   2.324  0.2185  0.3298  0.1123
  272MOL    C6333125   4.008   1.375   2.313  0.2931 -0.2371 -0.0771
  272MOL   Cl6433126   4.152   1.326   2.233 -0.2562  0.1298  0.3023
  272MOL    H6533127   3.913   1.557   2.378  1.2667 -1.8791  2.9067
  272MOL    H6633128   4.082   1.568   2.394  2.2587  0.6629 -2.2224
  272MOL    H6733129   4.018   1.354   2.419  0.0467  3.2837  0.7167
  272MOL    C6833130   3.882   1.312   2.245  0.3005 -0.0020 -0.1649
  272MOL    C6933131   3.843   1.175   2.312 -0.2523  0.0197  0.2773
  272MOL   Cl7033132   3.807   1.214   2.483  0.0759 -0.5602  0.1866
  272MOL    H7133133   3.892   1.313   2.137  1.8020 -4.0188 -0.1178
  272MOL    H7233134   3.798   1.378   2.264  0.5131 -0.1908  1.5156
  272MOL    H7333135   3.751   1.140   2.264  0.9436 -0.1018 -1.9806
  272MOL    C7433136   3.946   1.063   2.304  0.1539  0.7289  0.1290
  272MOL    C7533137   3.915   0.935   2.378  0.4949 -0.1001  0.6928
  272MOL   Cl7633138   4.052   0.826   2.378  0.1576  0.7195  0.0523
  272MOL    H7733139   4.044   1.106   2.327 -0.7645  2.4096  1.0145
  272MOL    H7833140   3.946   1.033   2.199  0.9217  1.2541 -0.0218
  272MOL    H7933141   3.902   0.964   2.482 -1.3082  0.4258  0.3334
  272MOL    C8033142   3.777   0.869   2.350  0.0715 -0.0134 -0.1258
  272MOL    C8133143   3.738   0.772   2.460  0.2765 -0.3905 -1.3353
  272MOL   Cl8233144   3.590   0.678   2.414  0.0247  0.4252 -0.2658
  272MOL    H8333145   3.786   0.824   2.251 -0.5411 -0.4601  0.0220
  272MOL    H8433146   3.695   0.939   2.330 -1.7061 -3.0668 -4.4841
  272MOL    H8533147   3.813   0.694   2.471 -2.1868 -2.5739  0.7569
  272MOL    C8633148   3.707   0.836   2.599  0.0592 -0.0514  0.3100
  272MOL    C8733149   3.697   0.738   2.712 -0.4899 -0.9327 -0.0284
  272MOL   Cl8833150   3.614   0.804   2.850  0.2324 -0.2081 -0.3227
  272MOL    H8933151   3.612   0.887   2.583  1.1437  1.5254 -1.3377
  272MOL    H9033152   3.771   0.919   2.632  1.4300 -1.4106  1.1436
  272MOL    H9133153   3.651   0.644   2.681 -0.9051 -0.6575 -0.2533
  272MOL    C9233154   3.845   0.699   2.751 -0.1071  0.2815 -0.5974
  272MOL    C9333155   3.874   0.640   2.893 -0.7107 -0.2471 -0.9597
  272MOL   Cl9433156   4.051   0.615   2.914  0.3845  0.3543  0.4556
  272MOL    H9533157   3.918   0.777   2.728  1.7865 -0.7861  1.4813
  272MOL    H9633158   3.878   0.619   2.684 -1.4841 -1.8590  1.2103
  272MOL    H9733159   3.854   0.725   2.959 -0.5206 -1.3141  0.4961
  272MOL    C9833160   3.785   0.529   2.959  0.3592  0.2260  0.3159
  272MOL    C9933161   3.773   0.392   2.883  0.5089  0.3576  0.0321
  272MOL  Cl10033162   3.713   0.391   2.719 -0.0905 -0.1188 -0.2650
  272MOL   H10133163   3.693   0.586   2.972 -0.4389 -1.2334  1.0561
  272MOL   H10233164   3.817   0.511   3.061 -1.3743 -2.2092  0.4692
  272MOL   H10333165   3.875   0.355   2.881  0.0549 -0.8712 -0.6520
  272MOL   C10433166   3.682   0.296   2.965 -0.2852  0.0682  0.7322
  272MOL   C10533167   3.529   0.340   2.981  0.9209 -0.0141  0.0319
  272MOL  Cl10633168   3.503   0.412   3.151 -0.3771  0.0947 -0.1274
  272MOL   H10733169   3.725   0.285   3.065  2.5650  3.2685 -0.0405
  272MOL   H10833170   3.691   0.199   2.916 -0.7174  1.2044 -1.6602
  272MOL   H10933171   3.508   0.417   2.907  1.5172  1.4652  1.3603
  272MOL   C11033172   3.440   0.214   2.966  0.0102  0.2268 -0.2563
  272MOL   C11133173   3.429   0.166   2.816 -0.0254  0.2145  0.2006
  272MOL  Cl11233174   3.368   0.294   2.705  0.0069 -0.0620  0.5193
  272MOL   H11333175   3.337   0.231   2.998  0.1830  2.1705 -0.6433
  272MOL   H11433176   3.486   0.134   3.023  1.4299  0.0690 -1.5827
  272MOL   H11533177   3.526   0.136   2.778 -0.5717 -0.0551 -1.0079
  272MOL   C11633178   3.330   0.047   2.798  0.3993 -0.5188 -0.6406
  272MOL   C11733179   3.330   8.505   2.658 -0.5801  0.1721  0.0581
  272MOL  Cl11833180   3.491   8.427   2.606  0.3768 -0.2268  0.2041
  272MOL   H11933181   3.228   0.081   2.817 -0.0038 -1.2967 -1.4066
  272MOL   H12033182   3.329   8.506   2.885  0.3916  2.2858  1.5848
  272MOL   H12133183   3.250   8.431   2.666 -0.5118  0.1006  0.0750
  272MOL   H12233184   3.300   0.046   2.577 -1.4403 -0.7944 -0.4230
  273MOL     C133185   5.474   6.608   6.969  0.4401  0.0184 -0.3163
  273MOL     C233186   5.372   6.661   6.865 -0.5354  0.4019  0.0049
  273MOL    Cl333187   5.227   6.558   6.903 -0.1115 -0.4723  0.3606
  273MOL     H433188   5.435   6.622   7.070 -1.4324 -0.3026 -0.9658
  273MOL     H533189   5.488   6.500   6.962  0.4520 -0.2894  3.4812
  273MOL     H633190   5.345   6.766   6.878 -1.4487  0.1681 -0.0025
  273MOL     H733191   5.569   6.661   6.973  0.4228 -0.0632  1.6508
  273MOL     C833192   5.434   6.645   6.722  0.1603 -0.6310  1.0160
  273MOL     C933193   5.553   6.735   6.688  0.1476  0.6072  1.3158
  273MOL   Cl1033194   5.498   6.905   6.705 -0.5310  0.2744 -0.1594
  273MOL    H1133195   5.358   6.653   6.644  2.7031  0.0076 -1.4972
  273MOL    H1233196   5.466   6.541   6.712  1.1809 -0.1481 -1.0433
  273MOL    H1333197   5.635   6.738   6.760  1.9690  1.2389 -0.7488
  273MOL    C1433198   5.622   6.709   6.550  0.7923  0.4378  0.0909
  273MOL    C1533199   5.765   6.759   6.534 -0.5303  0.1619 -0.0476
  273MOL   Cl1633200   5.750   6.939   6.537 -0.5347 -0.0367  0.1369
  273MOL    H1733201   5.559   6.735   6.465 -0.3476  0.4208  0.9137
  273MOL    H1833202   5.646   6.603   6.550  2.2592  0.7471 -1.0768
  273MOL    H1933203   5.827   6.736   6.620 -0.1201  1.2443 -0.0389
  273MOL    C2033204   5.839   6.720   6.411  0.3129  0.0722 -0.9217
  273MOL    C2133205   5.863   6.569   6.392  0.0085 -0.2202 -0.0018
  273MOL   Cl2233206   5.909   6.480   6.542  0.5112 -0.1496 -0.0144
  273MOL    H2333207   5.934   6.771   6.399  0.2687  0.2871 -0.3635
  273MOL    H2433208   5.779   6.757   6.327 -0.7650  0.9485  0.2224
  273MOL    H2533209   5.769   6.516   6.376  0.0974  0.0533 -1.4641
  273MOL    C2633210   5.952   6.539   6.267  0.2917 -0.6183 -0.2005
  273MOL    C2733211   5.958   6.386   6.232 -0.4320  0.2115  0.2088
  273MOL   Cl2833212   5.798   6.310   6.230  0.1442 -0.2855 -0.4499
  273MOL    H2933213   6.051   6.586   6.270  0.8536 -1.8744  2.0055
  273MOL    H3033214   5.914   6.588   6.178 -0.5505  2.2528  1.6568
  273MOL    H3133215   5.992   6.378   6.129  1.1402  1.0121  0.6575
  273MOL    C3233216   6.049   6.298   6.326 -0.3396  0.0021  0.6403
  273MOL    C3333217   6.133   6.197   6.252 -0.3752 -0.3354 -0.6607
  273MOL   Cl3433218   6.022   6.089   6.162 -0.0359 -0.2500  0.1961
  273MOL    H3533219   5.994   6.251   6.408 -2.2027 -1.6037 -1.4675
  273MOL    H3633220   6.118   6.363   6.381 -0.8093 -0.8615  2.2923
  273MOL    H3733221   6.197   6.237   6.173  1.1224  0.9685  1.1632
  273MOL    C3833222   6.215   6.117   6.348 -0.7956  0.0189  0.1748
  273MOL    C3933223   6.281   5.985   6.306 -0.4776  0.3187  0.2016
  273MOL   Cl4033224   6.353   5.904   6.449 -0.0753  0.1647 -0.4071
  273MOL    H4133225   6.166   6.123   6.445 -1.3757  4.4386 -0.2571
  273MOL    H4233226   6.305   6.176   6.366 -1.1165  1.2960 -2.1288
  273MOL    H4333227   6.197   5.920   6.279 -0.3588 -0.7606  2.3485
  273MOL    C4433228   6.381   5.988   6.189  0.9002  0.0399 -0.3613
  273MOL    C4533229   6.388   5.857   6.113 -0.3999  0.5345  0.0450
  273MOL   Cl4633230   6.519   5.879   5.991  0.1489 -0.5066  0.0594
  273MOL    H4733231   6.481   5.996   6.231  1.0383  2.4867 -1.0847
  273MOL    H4833232   6.379   6.073   6.121  0.0286  0.2596 -0.0691
  273MOL    H4933233   6.428   5.776   6.173 -1.5380  0.1416  0.2862
  273MOL    C5033234   6.262   5.810   6.030  0.1482 -0.2022  0.1149
  273MOL    C5133235   6.277   5.671   5.963  0.6061 -0.3415 -0.1907
  273MOL   Cl5233236   6.120   5.627   5.898 -0.0887  0.1146  0.1122
  273MOL    H5333237   6.242   5.892   5.961 -0.1475 -0.8700 -0.5997
  273MOL    H5433238   6.173   5.803   6.093 -1.1674 -0.1589 -1.7127
  273MOL    H5533239   6.341   5.670   5.874  1.6467  1.0657  0.5266
  273MOL    C5633240   6.331   5.545   6.035  0.1495 -0.6345 -0.2567
  273MOL    C5733241   6.375   5.419   5.962  0.3163 -1.1620 -0.9455
  273MOL   Cl5833242   6.431   5.302   6.080  0.0994 -0.0263 -0.3912
  273MOL    H5933243   6.254   5.520   6.107 -0.7408 -0.9673 -1.3049
  273MOL    H6033244   6.412   5.587   6.094 -0.3205 -0.3581  0.1960
  273MOL    H6133245   6.281   5.387   5.916 -0.3588 -1.5818  0.6998
  273MOL    C6233246   6.482   5.437   5.857  0.2275  0.3111 -0.3338
  273MOL    C6333247   6.513   5.317   5.770 -0.0810  0.4517  0.6576
  273MOL   Cl6433248   6.653   5.371   5.664  0.1122  0.1890  0.1294
  273MOL    H6533249   6.576   5.468   5.902  0.5066 -2.3856  1.0201
  273MOL    H6633250   6.459   5.520   5.790  0.4587 -0.4596 -1.3881
  273MOL    H6733251   6.560   5.244   5.835 -1.0677 -0.9989 -0.2166
  273MOL    C6833252   6.403   5.249   5.680  0.1165  0.1944  0.7832
  273MOL    C6933253   6.446   5.114   5.616  0.5921  0.1075 -0.4051
  273MOL   Cl7033254   6.343   5.082   5.474  0.0784  0.0303 -0.0169
  273MOL    H7133255   6.379   5.319   5.600  1.3080 -0.4209 -0.1308
  273MOL    H7233256   6.312   5.239   5.739 -0.3289  0.6864  0.1858
  273MOL    H7333257   6.546   5.126   5.573  1.2427  0.5566  1.2187
  273MOL    C7433258   6.451   4.993   5.714 -0.5401 -0.7141  0.3733
  273MOL    C7533259   6.533   4.868   5.669 -0.2437 -0.5312  0.1252
  273MOL   Cl7633260   6.442   4.725   5.716 -0.0477  0.3200 -0.4811
  273MOL    H7733261   6.355   4.947   5.738 -0.1707 -2.3249 -1.1603
  273MOL    H7833262   6.466   5.026   5.817 -1.9902 -0.9217  0.6539
  273MOL    H7933263   6.547   4.867   5.561 -0.2574 -2.3660  0.1333
  273MOL    C8033264   6.675   4.860   5.741  0.4335 -0.0748 -0.5843
  273MOL    C8133265   6.775   4.745   5.715 -0.2287 -0.9696 -0.1483
  273MOL   Cl8233266   6.930   4.801   5.792  0.6205  0.3732 -0.0782
  273MOL    H8333267   6.662   4.868   5.849 -1.7043  0.9470 -0.8925
  273MOL    H8433268   6.727   4.952   5.714 -1.2168  1.5116  1.5500
  273MOL    H8533269   6.737   4.665   5.778  1.6374 -0.0667  2.1931
  273MOL    C8633270   6.806   4.717   5.568  0.2401  0.2520 -0.5712
  273MOL    C8733271   6.842   4.834   5.481 -0.5683 -0.2943  0.2289
  273MOL   Cl8833272   6.712   4.851   5.355  0.1983 -0.0541 -0.4164
  273MOL    H8933273   6.720   4.673   5.519  1.4776 -2.1519 -0.6538
  273MOL    H9033274   6.886   4.643   5.559  1.2725  1.4445 -1.4319
  273MOL    H9133275   6.847   4.921   5.546  0.3245 -0.9921  1.1039
  273MOL    C9233276   6.975   4.812   5.403  0.2213  0.1787  0.2205
  273MOL    C9333277   7.102   4.811   5.487 -0.0719  0.8605 -0.3370
  273MOL   Cl9433278   7.143   4.967   5.557  0.2485  0.0494 -0.0619
  273MOL    H9533279   6.974   4.904   5.346  0.0150  0.2901  0.4022
  273MOL    H9633280   6.974   4.727   5.335 -1.5098  0.4218 -0.0780
  273MOL    H9733281   7.081   4.748   5.574 -0.0872 -0.9328 -1.6246
  273MOL    C9833282   7.215   4.754   5.395 -0.0544 -0.5166  0.2859
  273MOL    C9933283   7.198   4.607   5.353 -0.2101 -0.4409 -0.4616
  273MOL  Cl10033284   7.166   4.520   5.498  0.6652  0.4370 -0.0940
  273MOL   H10133285   7.310   4.770   5.446  0.6888  1.0853 -1.5384
  273MOL   H10233286   7.222   4.817   5.306 -1.4160 -1.4612 -0.5151
  273MOL   H10333287   7.108   4.591   5.295 -1.9808  0.6653  1.8986
  273MOL   C10433288   7.320   4.552   5.267  0.3845  0.2337  0.8717
  273MOL   C10533289   7.297   4.402   5.232 -0.1984 -0.2076 -0.6853
  273MOL  Cl10633290   7.459   4.332   5.209  0.4411  0.0186 -0.0358
  273MOL   H10733291   7.409   4.574   5.327  1.0551  2.3695 -0.8425
  273MOL   H10833292   7.329   4.615   5.179  0.6999 -2.0835 -0.7929
  273MOL   H10933293   7.257   4.348   5.317 -0.6641  1.1361 -0.0369
  273MOL   C11033294   7.216   4.390   5.104  0.0430  0.1682  0.3460
  273MOL   C11133295   7.210   4.255   5.036 -0.7576  0.0487 -0.3740
  273MOL  Cl11233296   7.128   4.260   4.878 -0.3416 -0.4481  0.1718
  273MOL   H11333297   7.248   4.452   5.020 -0.2246  0.1927  0.2603
  273MOL   H11433298   7.116   4.421   5.136 -0.2227 -0.3842  0.0440
  273MOL   H11533299   7.310   4.227   5.004 -0.6012  0.8837 -0.6444
  273MOL   C11633300   7.143   4.150   5.133 -0.1800 -0.1887 -0.0431
  273MOL   C11733301   7.174   3.999   5.094  0.5786 -0.6812  0.7227
  273MOL  Cl11833302   7.337   3.954   5.147 -0.2080 -0.3615 -0.2473
  273MOL   H11933303   7.035   4.162   5.122 -0.4365 -1.8295  0.5294
  273MOL   H12033304   7.162   4.157   5.240 -0.3590 -0.9723  0.0429
  273MOL   H12133305   7.100   3.944   5.151 -2.2728  1.0396 -1.1746
  273MOL   H12233306   7.163   3.980   4.987 -1.1793  2.7220  0.2287
  274MOL     C133307   2.148   4.902   3.599 -0.4236 -0.6960 -0.3250
  274MOL     C233308   2.275   4.943   3.668 -0.1973 -0.1430 -0.0894
  274MOL    Cl333309   2.254   4.945   3.845 -0.2359  0.0831  0.2882
  274MOL     H433310   2.086   4.836   3.659 -0.1037 -0.7816 -0.0861
  274MOL     H533311   2.092   4.991   3.570 -0.5957 -0.7308 -0.0984
  274MOL     H633312   2.345   4.861   3.656 -2.1873 -1.7074 -1.2317
  274MOL     H733313   2.171   4.864   3.499  0.4882 -1.4654  0.1701
  274MOL     C833314   2.332   5.079   3.615 -0.7756  0.1687 -1.1354
  274MOL     C933315   2.372   5.070   3.467 -1.1241  0.2531 -0.2513
  274MOL   Cl1033316   2.491   4.935   3.430 -0.2028 -0.2261  0.0399
  274MOL    H1133317   2.414   5.110   3.680 -3.0792  0.8425  1.5032
  274MOL    H1233318   2.257   5.156   3.630 -1.0578 -0.3375  0.1564
  274MOL    H1333319   2.281   5.059   3.409 -1.9808  1.1632  0.9091
  274MOL    C1433320   2.434   5.205   3.430 -0.4241  0.0548 -0.3405
  274MOL    C1533321   2.332   5.312   3.389  0.5616 -0.1958  0.0529
  274MOL   Cl1633322   2.247   5.271   3.240 -0.6747 -0.1826  0.1495
  274MOL    H1733323   2.492   5.184   3.341 -0.0756 -0.9882  0.1325
  274MOL    H1833324   2.506   5.237   3.505 -2.3705 -0.9146  2.0435
  274MOL    H1933325   2.256   5.326   3.465  0.4868 -1.1338  0.1540
  274MOL    C2033326   2.401   5.445   3.369  0.3482 -0.6885  0.3649
  274MOL    C2133327   2.445   5.528   3.496 -0.2961  0.3707  0.8583
  274MOL   Cl2233328   2.302   5.543   3.600  0.0210 -0.2328 -0.2243
  274MOL    H2333329   2.330   5.508   3.314 -0.3278  0.8658  2.9100
  274MOL    H2433330   2.486   5.417   3.307  1.0035 -0.4549  1.1503
  274MOL    H2533331   2.517   5.470   3.553  0.7217 -1.0604 -1.8284
  274MOL    C2633332   2.505   5.662   3.453  0.1001 -0.3187  0.6477
  274MOL    C2733333   2.637   5.657   3.390  0.3713 -0.6516 -1.5330
  274MOL   Cl2833334   2.750   5.662   3.523 -0.3148 -0.0341 -0.1815
  274MOL    H2933335   2.513   5.732   3.537 -3.3939 -0.3336  1.0615
  274MOL    H3033336   2.428   5.714   3.397  1.3500  0.3045 -0.5155
  274MOL    H3133337   2.661   5.558   3.351  0.7456 -1.8077  1.4990
  274MOL    C3233338   2.674   5.771   3.288  0.3634  0.0021 -0.0087
  274MOL    C3333339   2.597   5.758   3.155 -0.2553 -0.2099 -0.2932
  274MOL   Cl3433340   2.544   5.594   3.104  0.1319 -0.1709 -0.2093
  274MOL    H3533341   2.778   5.754   3.261  1.0173  1.5115  1.4585
  274MOL    H3633342   2.657   5.863   3.343  0.2026 -0.8317  1.3658
  274MOL    H3733343   2.500   5.808   3.154  1.3958  3.1363 -0.6842
  274MOL    C3833344   2.686   5.818   3.039  0.8357 -0.3581  0.1662
  274MOL    C3933345   2.612   5.815   2.905 -0.1798  0.0625 -0.4326
  274MOL   Cl4033346   2.724   5.904   2.798 -0.3699 -0.2136  0.2595
  274MOL    H4133347   2.781   5.765   3.038  0.6556 -0.6977  0.6602
  274MOL    H4233348   2.704   5.924   3.056 -0.4776 -0.0969 -0.0274
  274MOL    H4333349   2.616   5.711   2.873 -1.0997 -0.0298 -0.2638
  274MOL    C4433350   2.477   5.884   2.897  0.6530  0.4977 -0.5689
  274MOL    C4533351   2.389   5.866   2.768  0.1684 -1.0219 -0.2743
  274MOL   Cl4633352   2.262   5.990   2.750  0.1896 -0.2381  0.2073
  274MOL    H4733353   2.490   5.993   2.900 -3.4797  1.0059  2.1911
  274MOL    H4833354   2.418   5.868   2.987  2.6107  2.3749  1.1166
  274MOL    H4933355   2.453   5.875   2.680  0.6969  1.9549  0.3622
  274MOL    C5033356   2.325   5.735   2.768  0.0027  0.3520 -0.0194
  274MOL    C5133357   2.285   5.688   2.628  0.2206 -0.3702  0.1191
  274MOL   Cl5233358   2.139   5.582   2.637 -0.1095 -0.0304 -0.3370
  274MOL    H5333359   2.233   5.742   2.828 -0.7262  0.0886 -1.0951
  274MOL    H5433360   2.386   5.661   2.820 -0.3902  1.0496  1.4891
  274MOL    H5533361   2.253   5.777   2.573  1.2435  0.1893  0.4313
  274MOL    C5633362   2.398   5.631   2.551 -0.5386  0.1311  0.7515
  274MOL    C5733363   2.349   5.586   2.408  0.1531  0.2162 -0.4550
  274MOL   Cl5833364   2.466   5.469   2.333  0.3480 -0.3450  0.0199
  274MOL    H5933365   2.446   5.545   2.597  0.7636  2.2003  3.4532
  274MOL    H6033366   2.485   5.696   2.548 -0.8233  0.5025  0.4442
  274MOL    H6133367   2.254   5.533   2.410  0.1273  0.2943  0.5842
  274MOL    C6233368   2.333   5.707   2.312 -0.0211  0.2497  0.0294
  274MOL    C6333369   2.270   5.675   2.176 -0.1544  0.5213  0.7624
  274MOL   Cl6433370   2.292   5.808   2.062  0.1288  0.1944 -0.3563
  274MOL    H6533371   2.430   5.754   2.297  0.7740 -1.5250 -0.4487
  274MOL    H6633372   2.274   5.785   2.360 -1.5233  0.7833 -2.5958
  274MOL    H6733373   2.318   5.585   2.138 -1.5164  1.1719 -2.7033
  274MOL    C6833374   2.111   5.642   2.172 -0.6118  0.1334  0.8570
  274MOL    C6933375   2.056   5.603   2.034 -0.2774 -0.2821 -0.1898
  274MOL   Cl7033376   1.996   5.748   1.949 -0.1642  0.0563 -0.4224
  274MOL    H7133377   2.063   5.735   2.203 -0.7827  0.2091  0.3719
  274MOL    H7233378   2.070   5.570   2.243 -0.2706 -1.7277 -0.7702
  274MOL    H7333379   2.136   5.567   1.969 -1.3457  2.6847 -3.3185
  274MOL    C7433380   1.941   5.497   2.050 -0.8342  0.3153 -0.6474
  274MOL    C7533381   1.875   5.446   1.921  1.0174  0.0433  0.6818
  274MOL   Cl7633382   1.758   5.327   1.985  0.3527 -0.2835  0.2746
  274MOL    H7733383   1.866   5.533   2.121 -1.7739 -0.3599 -1.2900
  274MOL    H7833384   1.977   5.411   2.107 -1.7957 -0.2383 -0.8651
  274MOL    H7933385   1.812   5.520   1.873 -0.2175 -2.7519 -2.1992
  274MOL    C8033386   1.969   5.372   1.822  0.0894  0.1085  0.2067
  274MOL    C8133387   1.903   5.305   1.706  0.3638  0.1020 -0.2429
  274MOL   Cl8233388   2.022   5.201   1.621 -0.1555  0.0538  0.0491
  274MOL    H8333389   2.028   5.296   1.871  0.7333  0.7245  0.3972
  274MOL    H8433390   2.047   5.441   1.789 -0.9737  0.1008 -2.5003
  274MOL    H8533391   1.825   5.234   1.729  1.6067 -1.4381 -0.6870
  274MOL    C8633392   1.844   5.401   1.596 -0.1755 -0.2881  0.2189
  274MOL    C8733393   1.787   5.353   1.467 -0.5034  0.3314 -0.5113
  274MOL   Cl8833394   1.758   5.491   1.360 -0.0315  0.3708 -0.3310
  274MOL    H8933395   1.917   5.478   1.571  2.1677 -2.5860 -0.2656
  274MOL    H9033396   1.762   5.457   1.640  1.2620  2.1027 -0.0234
  274MOL    H9133397   1.866   5.291   1.424  0.5618  1.2166  0.1511
  274MOL    C9233398   1.655   5.279   1.497 -0.0001 -0.2887  0.6356
  274MOL    C9333399   1.589   5.200   1.386  0.6596  0.1044 -1.0371
  274MOL   Cl9433400   1.708   5.091   1.309  0.2151 -0.1326 -0.4834
  274MOL    H9533401   1.587   5.350   1.544 -0.5952 -0.0949 -0.4838
  274MOL    H9633402   1.683   5.208   1.574  3.6744  0.9623  0.5452
  274MOL    H9733403   1.516   5.132   1.428 -0.1259  0.5857 -1.6205
  274MOL    C9833404   1.515   5.282   1.275 -0.3115  1.1450  0.0274
  274MOL    C9933405   1.412   5.393   1.314  0.0600  0.2306  0.0577
  274MOL  Cl10033406   1.298   5.321   1.428  0.2125  0.2365  0.0596
  274MOL   H10133407   1.461   5.220   1.204  0.1816  0.3199  0.3631
  274MOL   H10233408   1.595   5.328   1.217 -1.0637  1.6564 -0.6151
  274MOL   H10333409   1.452   5.478   1.368 -0.9818  1.5167 -1.1643
  274MOL   C10433410   1.348   5.460   1.186  0.7331 -0.1091 -0.3769
  274MOL   C10533411   1.441   5.520   1.071  0.2095 -0.1074 -0.3206
  274MOL  Cl10633412   1.511   5.666   1.140 -0.3731  0.1199 -0.2420
  274MOL   H10733413   1.275   5.531   1.225  1.6044  1.2249 -1.1326
  274MOL   H10833414   1.290   5.380   1.140  0.4549  0.6609 -1.3928
  274MOL   H10933415   1.522   5.459   1.033  0.9957 -1.0554  2.7217
  274MOL   C11033416   1.371   5.580   0.951 -0.0461  0.7320 -0.4921
  274MOL   C11133417   1.297   5.474   0.857  0.0142  0.3829  0.2968
  274MOL  Cl11233418   1.420   5.360   0.796  0.0514 -0.4716  0.2861
  274MOL   H11333419   1.457   5.622   0.899  0.7957 -0.2650  0.0839
  274MOL   H11433420   1.296   5.654   0.978 -1.9877 -1.9005  1.5867
  274MOL   H11533421   1.211   5.429   0.906  0.2523 -0.8425 -0.3857
  274MOL   C11633422   1.227   5.554   0.743 -0.2357 -0.1146 -0.4097
  274MOL   C11733423   1.150   5.461   0.638 -0.9014 -0.1113 -0.1094
  274MOL  Cl11833424   1.062   5.574   0.541  0.7090 -0.0161 -0.1709
  274MOL   H11933425   1.306   5.606   0.687 -1.2663  0.4545 -1.3456
  274MOL   H12033426   1.176   5.637   0.792  0.0028  0.7033 -1.5243
  274MOL   H12133427   1.213   5.404   0.570 -0.4192 -0.2509  0.4460
  274MOL   H12233428   1.076   5.392   0.680  1.3737 -1.0517  2.5006
  275MOL     C133429   1.719   6.219   7.572  0.3994  0.1455  0.1063
  275MOL     C233430   1.822   6.292   7.489 -0.1820  0.0303  0.2984
  275MOL    Cl333431   1.824   6.463   7.535  0.0723 -0.1489  0.0502
  275MOL     H433432   1.758   6.179   7.666  0.3380 -0.5062 -0.1378
  275MOL     H533433   1.630   6.280   7.585 -0.6975 -0.9236 -2.0994
  275MOL     H633434   1.920   6.257   7.520 -0.6526 -0.8886  0.7774
  275MOL     H733435   1.684   6.125   7.528  2.0393 -0.4086 -0.0770
  275MOL     C833436   1.801   6.261   7.340  0.5883 -0.1013  0.0014
  275MOL     C933437   1.892   6.321   7.235  0.2037  0.4842  0.7272
  275MOL   Cl1033438   1.808   6.303   7.078 -0.3391 -0.2338 -0.1256
  275MOL    H1133439   1.701   6.285   7.303  0.9021  1.1401 -0.0483
  275MOL    H1233440   1.808   6.152   7.332  1.7642 -0.0616  0.4542
  275MOL    H1333441   1.892   6.426   7.261 -1.0213  0.6819 -0.0318
  275MOL    C1433442   2.037   6.262   7.221  0.3605  0.2371  1.3067
  275MOL    C1533443   2.136   6.370   7.176 -0.2933  0.0351  0.5084
  275MOL   Cl1633444   2.143   6.495   7.306  0.6171  0.2280  0.1724
  275MOL    H1733445   2.037   6.182   7.146 -1.1047  0.9027  0.5779
  275MOL    H1833446   2.056   6.212   7.316  1.4923 -0.6666  0.6194
  275MOL    H1933447   2.232   6.319   7.187 -0.5240 -0.5113  0.0163
  275MOL    C2033448   2.113   6.441   7.031 -0.2649 -0.1669 -0.9245
  275MOL    C2133449   2.152   6.354   6.918 -0.5847  0.0982 -0.1709
  275MOL   Cl2233450   2.332   6.346   6.904 -0.1630 -0.3851 -0.3872
  275MOL    H2333451   2.163   6.538   7.023  1.6097 -1.2403 -2.7654
  275MOL    H2433452   2.006   6.456   7.021 -0.8643 -3.9177 -0.8966
  275MOL    H2533453   2.127   6.249   6.928  2.6148 -0.5602  1.3801
  275MOL    C2633454   2.104   6.417   6.782  0.2239  0.5453 -0.2403
  275MOL    C2733455   1.957   6.403   6.752  0.1093  0.6796 -0.7407
  275MOL   Cl2833456   1.912   6.235   6.725 -0.1559 -0.5481 -0.2759
  275MOL    H2933457   2.160   6.375   6.698 -2.4264 -0.5362 -1.5509
  275MOL    H3033458   2.118   6.525   6.784  2.8258  0.2572 -0.9369
  275MOL    H3133459   1.904   6.429   6.844  1.3278 -1.3595  0.5808
  275MOL    C3233460   1.912   6.480   6.627  0.4820  0.4063  0.1313
  275MOL    C3333461   1.758   6.490   6.608 -0.0898  0.3500  0.7305
  275MOL   Cl3433462   1.736   6.602   6.464 -0.1620 -0.0018 -0.0531
  275MOL    H3533463   1.951   6.434   6.536 -0.5841 -1.0620  0.3988
  275MOL    H3633464   1.954   6.581   6.628  0.0091  0.6063 -0.1650
  275MOL    H3733465   1.728   6.395   6.564  0.6792  0.6194 -0.4233
  275MOL    C3833466   1.668   6.537   6.728 -0.5758  1.1269 -0.6281
  275MOL    C3933467   1.690   6.673   6.796  0.5021  0.0918 -0.4071
  275MOL   Cl4033468   1.799   6.654   6.939  0.3632  0.2949 -0.4606
  275MOL    H4133469   1.655   6.452   6.795 -0.9909  2.5582  1.1428
  275MOL    H4233470   1.563   6.526   6.702 -1.5023 -2.7493  3.8756
  275MOL    H4333471   1.742   6.726   6.716  0.2081 -0.7947 -1.2085
  275MOL    C4433472   1.563   6.754   6.844  0.2544  0.4665 -0.2595
  275MOL    C4533473   1.492   6.831   6.731 -0.3178  0.2905 -0.3935
  275MOL   Cl4633474   1.596   6.962   6.662 -0.7636 -0.1756 -0.0224
  275MOL    H4733475   1.587   6.819   6.928 -1.9247  1.0421 -0.0749
  275MOL    H4833476   1.493   6.687   6.892 -2.0082  2.0286 -1.2887
  275MOL    H4933477   1.470   6.763   6.649 -1.0067  2.1008 -1.7418
  275MOL    C5033478   1.359   6.894   6.772 -0.4178 -0.9589  0.1182
  275MOL    C5133479   1.244   6.793   6.800 -0.1215 -0.4828  0.0287
  275MOL   Cl5233480   1.204   6.730   6.632  0.4479 -0.2167 -0.0409
  275MOL    H5333481   1.322   6.958   6.692 -0.5978 -1.5214 -0.2498
  275MOL    H5433482   1.376   6.964   6.854 -0.5516 -1.7590  0.8397
  275MOL    H5533483   1.276   6.711   6.865 -0.6308 -0.4276  0.3537
  275MOL    C5633484   1.127   6.877   6.857 -0.4861  0.1242  0.2650
  275MOL    C5733485   1.001   6.802   6.884 -0.5307  0.5656  0.1227
  275MOL   Cl5833486   0.874   6.923   6.923 -0.1359  0.0497 -0.0627
  275MOL    H5933487   1.108   6.944   6.773 -3.1385 -0.8756  0.0072
  275MOL    H6033488   1.157   6.936   6.943  1.5770  1.6142 -1.4267
  275MOL    H6133489   0.967   6.745   6.797 -0.3237  0.9843 -0.2317
  275MOL    C6233490   1.012   6.702   7.008 -0.1937  0.1512  0.4067
  275MOL    C6333491   1.080   6.760   7.136 -0.1010  0.2962 -0.0174
  275MOL   Cl6433492   1.248   6.706   7.139  0.1963  0.1164  0.0141
  275MOL    H6533493   1.070   6.615   6.975  0.7362  1.4926 -1.5964
  275MOL    H6633494   0.912   6.672   7.038 -0.3585 -1.2455 -1.4301
  275MOL    H6733495   1.074   6.868   7.122  1.8736  0.4118 -0.0819
  275MOL    C6833496   1.012   6.733   7.278  0.5821 -0.5599  0.2118
  275MOL    C6933497   0.876   6.798   7.302  0.0839  0.1069 -0.1801
  275MOL   Cl7033498   0.879   6.976   7.281 -0.3342  0.2711 -0.0170
  275MOL    H7133499   1.082   6.778   7.348  0.8552  0.2164 -0.5424
  275MOL    H7233500   1.022   6.627   7.297  1.1766 -0.9201 -1.9566
  275MOL    H7333501   0.822   6.765   7.213  1.0317  0.8648 -1.0537
  275MOL    C7433502   0.802   6.764   7.434 -0.4247 -0.1647  0.0629
  275MOL    C7533503   0.658   6.807   7.431  0.0162 -0.0807  0.5241
  275MOL   Cl7633504   0.604   6.841   7.594 -0.0622 -0.1799 -0.1164
  275MOL    H7733505   0.854   6.822   7.511 -0.5218  0.8300 -0.6105
  275MOL    H7833506   0.807   6.657   7.455  0.0828 -0.2324 -0.3977
  275MOL    H7933507   0.657   6.905   7.383 -0.1935 -0.0981  0.4930
  275MOL    C8033508   0.566   6.719   7.343 -0.2512 -0.9394  0.0034
  275MOL    C8133509   0.554   6.571   7.386  0.2229  0.1981 -0.8148
  275MOL   Cl8233510   0.441   6.487   7.269 -0.3650  0.2867 -0.1426
  275MOL    H8333511   0.587   6.741   7.239  0.8377 -0.9484  0.2208
  275MOL    H8433512   0.464   6.758   7.349 -0.3578 -0.8899 -2.0162
  275MOL    H8533513   0.648   6.519   7.370  0.1464  0.1850 -1.2189
  275MOL    C8633514   0.501   6.539   7.524  0.3160 -0.7311  0.8338
  275MOL    C8733515   0.500   6.388   7.565 -0.2324  0.3391 -0.1876
  275MOL   Cl8833516   0.410   6.367   7.716  0.1050 -0.0665 -0.0559
  275MOL    H8933517   0.399   6.578   7.524  0.2045 -0.6605 -4.5497
  275MOL    H9033518   0.555   6.591   7.604 -0.7339 -0.4381  1.3643
  275MOL    H9133519   0.458   6.327   7.485 -0.6394  0.8711 -0.3841
  275MOL    C9233520   0.645   6.346   7.588  0.2403  0.1738  0.7000
  275MOL    C9333521   0.681   6.206   7.535  0.2600  0.5462  0.1760
  275MOL   Cl9433522   0.641   6.202   7.361  0.0381  0.0384  0.1348
  275MOL    H9533523   0.674   6.353   7.693  0.2771 -1.5693  0.8226
  275MOL    H9633524   0.715   6.413   7.540 -1.5840  0.4192 -1.7215
  275MOL    H9733525   0.788   6.196   7.554  0.0998 -0.8427  0.3807
  275MOL    C9833526   0.609   6.090   7.618 -0.2842  0.2631 -0.7399
  275MOL    C9933527   0.648   6.086   7.771  0.9854 -0.0316 -0.2693
  275MOL  Cl10033528   0.817   6.044   7.784  0.0911  0.4502 -0.5809
  275MOL   H10133529   0.634   5.991   7.580 -0.1232  0.2008 -0.4680
  275MOL   H10233530   0.501   6.104   7.604 -0.4533 -1.3484 -1.1394
  275MOL   H10333531   0.644   6.175   7.834  2.0228 -0.8301  0.9662
  275MOL   C10433532   0.567   5.981   7.851  0.0550 -0.4718 -0.3018
  275MOL   C10533533   0.439   6.038   7.905  0.4604  0.1980 -0.0848
  275MOL  Cl10633534   0.475   6.153   8.039 -0.5686 -0.1072  0.0463
  275MOL   H10733535   0.619   5.943   7.939 -1.1451 -1.3528  0.0404
  275MOL   H10833536   0.563   5.888   7.794  1.5542 -0.2249 -0.8201
  275MOL   H10933537   0.402   6.095   7.821  1.6121  0.6638 -0.2870
  275MOL   C11033538   0.342   5.931   7.945 -1.0515  0.3117 -0.1641
  275MOL   C11133539   0.188   5.973   7.929  0.2900 -0.0746 -0.8449
  275MOL  Cl11233540   0.087   5.857   8.028 -0.1918  0.0248 -0.1220
  275MOL   H11333541   0.371   5.901   8.045  0.3705 -2.0674 -1.2542
  275MOL   H11433542   0.353   5.844   7.881 -1.0536  0.1832  0.0129
  275MOL   H11533543   0.181   6.075   7.967 -0.7363 -0.0499 -1.0924
  275MOL   C11633544   0.148   5.967   7.782  0.1235 -0.4827  0.4099
  275MOL   C11733545   8.523   5.971   7.760  0.0097 -0.0382 -0.0043
  275MOL  Cl11833546   8.448   6.110   7.841 -0.3075 -0.0364 -0.1005
  275MOL   H11933547   0.192   5.883   7.728  2.0867  1.8278 -1.7551
  275MOL   H12033548   0.186   6.046   7.717 -0.7873 -0.8405 -0.5750
  275MOL   H12133549   8.496   5.982   7.655 -1.8321  1.5149  0.5818
  275MOL   H12233550   8.485   5.874   7.790  0.0892  0.2185  0.9535
  276MOL     C133551   3.365   2.371   2.341 -0.1512 -0.1323  0.5667
  276MOL     C233552   3.358   2.509   2.272  1.1494 -0.6549 -0.1960
  276MOL    Cl333553   3.379   2.640   2.391  0.0510 -0.1142 -0.2158
  276MOL     H433554   3.373   2.294   2.264 -1.3301  0.5547 -0.2672
  276MOL     H533555   3.451   2.361   2.407 -0.1677 -2.4410  0.2886
  276MOL     H633556   3.434   2.523   2.195  1.5553  1.3012  0.5384
  276MOL     H733557   3.274   2.354   2.399 -0.4169  2.4064  0.9704
  276MOL     C833558   3.224   2.525   2.210 -0.3786  0.3246 -0.3792
  276MOL     C933559   3.205   2.454   2.075 -0.5562  0.1103  0.2394
  276MOL   Cl1033560   3.296   2.531   1.942 -0.3498 -0.1248  0.0991
  276MOL    H1133561   3.201   2.631   2.198 -2.5122 -0.2425 -1.5997
  276MOL    H1233562   3.147   2.496   2.282 -1.1291 -0.0342 -1.3265
  276MOL    H1333563   3.246   2.354   2.077 -1.7489 -0.3742  1.3343
  276MOL    C1433564   3.058   2.438   2.023  0.0743  0.4364 -0.6596
  276MOL    C1533565   2.989   2.573   1.991 -0.5755  0.5573 -0.2558
  276MOL   Cl1633566   2.926   2.644   2.141  0.1190 -0.2114 -0.1160
  276MOL    H1733567   2.981   2.385   2.079 -0.3520 -0.0688 -1.6995
  276MOL    H1833568   3.063   2.380   1.930 -0.1373  1.4813 -1.3219
  276MOL    H1933569   3.042   2.653   1.939  2.1267 -1.8236 -1.3311
  276MOL    C2033570   2.859   2.548   1.901  1.0591  0.2419  0.3975
  276MOL    C2133571   2.870   2.490   1.762  0.1266 -0.0842 -0.4709
  276MOL   Cl2233572   3.006   2.582   1.676  0.3172  0.0666 -0.0865
  276MOL    H2333573   2.807   2.643   1.888 -1.0276 -1.0440 -0.8643
  276MOL    H2433574   2.799   2.483   1.964  1.5874 -0.0274  0.6348
  276MOL    H2533575   2.913   2.392   1.780 -1.0909 -0.4439  0.5421
  276MOL    C2633576   2.744   2.489   1.674 -0.0263 -0.7464 -0.8131
  276MOL    C2733577   2.645   2.370   1.722  0.5518 -1.0878 -0.2475
  276MOL   Cl2833578   2.738   2.223   1.726  0.0375  0.0870 -0.0704
  276MOL    H2933579   2.766   2.476   1.568 -0.3740 -0.2382 -0.9461
  276MOL    H3033580   2.699   2.588   1.681  0.3573 -0.5473 -1.1352
  276MOL    H3133581   2.618   2.395   1.824  1.1162 -2.0107  0.1286
  276MOL    C3233582   2.520   2.346   1.629  0.6138 -0.6943 -0.4110
  276MOL    C3333583   2.432   2.473   1.605 -0.2173 -0.4423  0.2942
  276MOL   Cl3433584   2.331   2.490   1.759 -0.0823  0.4101 -0.2565
  276MOL    H3533585   2.449   2.267   1.655  0.1329 -0.8214 -2.0647
  276MOL    H3633586   2.567   2.312   1.537  0.5766  1.5905 -1.2933
  276MOL    H3733587   2.492   2.563   1.594 -1.5493  0.6371  1.6272
  276MOL    C3833588   2.341   2.470   1.480  0.3372  0.3080  0.9025
  276MOL    C3933589   2.399   2.406   1.350 -0.0301 -0.4771  0.9053
  276MOL   Cl4033590   2.562   2.485   1.305 -0.2114  0.4675  0.4980
  276MOL    H4133591   2.305   2.570   1.454 -1.0928 -0.6381 -0.8421
  276MOL    H4233592   2.251   2.413   1.501  0.7027 -0.6418 -0.0589
  276MOL    H4333593   2.429   2.308   1.385  1.2617  0.5481  2.7826
  276MOL    C4433594   2.309   2.393   1.227 -0.4029  0.4142  0.1999
  276MOL    C4533595   2.171   2.329   1.240 -0.9533 -0.1375 -0.3627
  276MOL   Cl4633596   2.057   2.432   1.324  0.2180  0.1450 -0.0954
  276MOL    H4733597   2.354   2.340   1.144 -0.2301 -1.3739  1.4028
  276MOL    H4833598   2.295   2.488   1.174 -1.7793 -1.0785 -2.1898
  276MOL    H4933599   2.140   2.326   1.136  2.9915  2.2438 -1.6927
  276MOL    C5033600   2.186   2.186   1.313 -0.1326 -0.2973  1.1145
  276MOL    C5133601   2.276   2.073   1.250  0.1562  0.5182 -0.0042
  276MOL   Cl5233602   2.226   2.055   1.087 -0.2829  0.2972 -0.6494
  276MOL    H5333603   2.086   2.149   1.333  0.3055 -1.0814  1.8838
  276MOL    H5433604   2.220   2.208   1.414  3.4511  1.2187 -0.2868
  276MOL    H5533605   2.379   2.108   1.257 -0.6069  2.9716 -0.4046
  276MOL    C5633606   2.269   1.939   1.326 -0.0527 -0.2517  0.6164
  276MOL    C5733607   2.334   1.948   1.462  0.4319 -0.0767 -0.2988
  276MOL   Cl5833608   2.512   1.955   1.457  0.1572  0.1121 -0.5277
  276MOL    H5933609   2.314   1.860   1.265 -2.5503  0.3038 -2.0871
  276MOL    H6033610   2.166   1.903   1.334 -0.1397 -0.1434 -0.0018
  276MOL    H6133611   2.297   2.036   1.514 -0.0354 -1.3465  1.5815
  276MOL    C6233612   2.295   1.833   1.548 -0.3902  0.1153 -0.4559
  276MOL    C6333613   2.143   1.834   1.594  0.0883 -0.7125 -0.8041
  276MOL   Cl6433614   2.100   1.983   1.683  0.6605 -0.1395 -0.1099
  276MOL    H6533615   2.362   1.845   1.634  0.6155 -0.4909 -1.1530
  276MOL    H6633616   2.338   1.740   1.512  0.5423 -0.5772  2.3352
  276MOL    H6733617   2.070   1.832   1.513 -1.0810  2.0212  0.1379
  276MOL    C6833618   2.108   1.705   1.675 -0.3323 -0.1795  0.0837
  276MOL    C6933619   1.956   1.668   1.675 -0.0838  0.6422 -0.5980
  276MOL   Cl7033620   1.902   1.617   1.516  0.0209  0.6018  0.0315
  276MOL    H7133621   2.145   1.716   1.777  2.0541 -1.6698 -0.5722
  276MOL    H7233622   2.172   1.622   1.644  0.7773  1.5810 -2.5078
  276MOL    H7333623   1.955   1.574   1.730 -0.9147 -0.9078 -3.1435
  276MOL    C7433624   1.861   1.773   1.729  0.3315 -0.2257  0.2884
  276MOL    C7533625   1.876   1.799   1.882 -0.8994 -0.0160  0.1940
  276MOL   Cl7633626   1.831   1.658   1.982 -0.0912  0.1092 -0.2262
  276MOL    H7733627   1.757   1.742   1.733 -0.9490  3.8259  0.1191
  276MOL    H7833628   1.861   1.858   1.661 -0.5071 -0.9457 -0.6230
  276MOL    H7933629   1.979   1.821   1.908  0.3513 -1.5704 -3.1920
  276MOL    C8033630   1.790   1.917   1.929 -0.5635 -0.0469 -0.1958
  276MOL    C8133631   1.865   2.015   2.018 -0.3721 -0.3273  0.0954
  276MOL   Cl8233632   1.904   1.938   2.170  0.0851  0.1575  0.0329
  276MOL    H8333633   1.702   1.876   1.978 -1.1798 -0.7496 -1.8486
  276MOL    H8433634   1.742   1.962   1.842 -2.7435 -0.9051  0.5257
  276MOL    H8533635   1.965   2.034   1.978 -0.5518  1.7336  0.5541
  276MOL    C8633636   1.794   2.151   2.034  0.3981 -0.2249  0.4280
  276MOL    C8733637   1.792   2.234   1.904  0.7129  0.0223  0.5831
  276MOL   Cl8833638   1.958   2.260   1.847 -0.3534 -0.2142  0.4174
  276MOL    H8933639   1.852   2.213   2.102  1.6395  1.2276 -1.8935
  276MOL    H9033640   1.689   2.143   2.062 -0.8258 -0.4171 -3.7766
  276MOL    H9133641   1.744   2.194   1.815  1.5001  0.2192  0.0609
  276MOL    C9233642   1.728   2.366   1.950 -0.6271  0.3491 -0.0127
  276MOL    C9333643   1.713   2.467   1.832  0.0620 -0.1274 -0.2598
  276MOL   Cl9433644   1.643   2.401   1.684 -0.0040  0.3155 -0.3202
  276MOL    H9533645   1.779   2.413   2.034  1.5252 -1.7733 -0.0672
  276MOL    H9633646   1.623   2.350   1.972 -0.1174 -2.7750  0.4434
  276MOL    H9733647   1.637   2.532   1.875 -1.0171 -1.0478 -0.7682
  276MOL    C9833648   1.836   2.555   1.788  0.0079 -0.1855  0.0202
  276MOL    C9933649   1.808   2.666   1.692 -0.0217  0.7706 -0.1854
  276MOL  Cl10033650   1.863   2.609   1.537 -0.1410  0.2406  0.2401
  276MOL   H10133651   1.925   2.505   1.750 -0.0301 -2.0068  2.1717
  276MOL   H10233652   1.884   2.596   1.877 -0.2938  1.1464 -0.4235
  276MOL   H10333653   1.700   2.678   1.694 -0.1359  0.1788 -1.8478
  276MOL   C10433654   1.884   2.792   1.718  1.1108 -0.1741 -0.0640
  276MOL   C10533655   1.817   2.889   1.812  0.0538 -1.0834  0.4186
  276MOL  Cl10633656   1.661   2.939   1.746 -0.1764 -0.0888  0.0344
  276MOL   H10733657   1.913   2.846   1.627  0.5897  1.6001  0.8169
  276MOL   H10833658   1.980   2.754   1.755  0.9242 -0.1423  0.4477
  276MOL   H10933659   1.787   2.848   1.909  1.5121 -0.7475  1.0171
  276MOL   C11033660   1.906   3.014   1.849  0.5639  0.1662 -0.0107
  276MOL   C11133661   2.021   2.980   1.941 -0.0622 -0.5240 -0.1609
  276MOL  Cl11233662   2.039   3.112   2.061  0.3072 -0.4032  0.5545
  276MOL   H11333663   1.849   3.088   1.904  1.7041  0.6292  0.5658
  276MOL   H11433664   1.952   3.059   1.761  1.2409 -1.4914 -0.5326
  276MOL   H11533665   1.986   2.907   2.013  0.0738 -0.7611 -0.3331
  276MOL   C11633666   2.154   2.930   1.879  0.7226  0.6730  0.3530
  276MOL   C11733667   2.208   3.014   1.764 -0.9452  0.2410  0.5863
  276MOL  Cl11833668   2.135   2.972   1.601  0.2788  0.1612  0.3608
  276MOL   H11933669   2.155   2.826   1.847 -0.5245  0.6163  0.4933
  276MOL   H12033670   2.223   2.912   1.962 -0.9210 -1.6075  1.2877
  276MOL   H12133671   2.194   3.120   1.786 -2.7359  0.3106 -0.8232
  276MOL   H12233672   2.314   3.000   1.743 -0.9992  1.2441 -0.3768
  277MOL     C133673   1.825   0.557   1.222  0.6207 -0.2860 -0.0854
  277MOL     C233674   1.706   0.478   1.156 -0.7276 -0.4876  0.2660
  277MOL    Cl333675   1.751   0.309   1.140  0.0089  0.0514  0.1236
  277MOL     H433676   1.861   0.505   1.311 -0.4051 -0.1091  0.4341
  277MOL     H533677   1.908   0.574   1.154 -0.2203  1.7187 -0.6568
  277MOL     H633678   1.632   0.484   1.236 -0.6814 -2.4548  0.4856
  277MOL     H733679   1.786   0.657   1.242  2.5564  0.6801 -0.9550
  277MOL     C833680   1.662   0.546   1.033 -0.6757 -0.0905  0.5856
  277MOL     C933681   1.525   0.516   0.975 -0.2867 -0.1590 -0.0241
  277MOL   Cl1033682   1.402   0.560   1.083  0.0371 -0.1903 -0.0286
  277MOL    H1133683   1.744   0.537   0.962 -1.2024  0.4964 -0.1079
  277MOL    H1233684   1.663   0.654   1.044 -1.1903 -0.1349  1.0763
  277MOL    H1333685   1.516   0.585   0.891 -2.6975 -0.2899  0.0943
  277MOL    C1433686   1.515   0.365   0.930  0.3199 -0.6671  0.0814
  277MOL    C1533687   1.624   0.311   0.834 -0.5637  0.8630  0.0624
  277MOL   Cl1633688   1.619   0.428   0.693 -0.1345  0.0721 -0.3991
  277MOL    H1733689   1.418   0.354   0.881  0.3643  1.8327 -0.6200
  277MOL    H1833690   1.517   0.308   1.023  0.0985 -3.7879 -1.7645
  277MOL    H1933691   1.722   0.311   0.882  0.4596  0.1204 -2.0008
  277MOL    C2033692   1.589   0.172   0.782 -0.4555 -0.6485 -0.5686
  277MOL    C2133693   1.701   0.116   0.683  1.4542  0.2539 -0.0613
  277MOL   Cl2233694   1.654   8.479   0.627  0.0376 -0.1797  0.2130
  277MOL    H2333695   1.491   0.177   0.734 -0.5984  0.0075 -0.2212
  277MOL    H2433696   1.586   0.101   0.864  2.2751 -1.3908 -1.0576
  277MOL    H2533697   1.707   0.171   0.589  2.1371 -1.5006 -1.0849
  277MOL    C2633698   1.846   0.103   0.738  0.3284 -0.0989 -0.8514
  277MOL    C2733699   1.942   0.087   0.625  0.1037  0.1386 -0.0298
  277MOL   Cl2833700   2.072   8.492   0.669  0.0391  0.3560  0.2280
  277MOL    H2933701   1.852   0.018   0.806 -1.1667 -1.1620 -2.0286
  277MOL    H3033702   1.879   0.194   0.788 -0.7072 -0.3768  0.3470
  277MOL    H3133703   1.901   0.041   0.535  0.2237  0.6145 -0.3294
  277MOL    C3233704   2.001   0.227   0.581  0.8533  0.4509 -0.2094
  277MOL    C3333705   2.096   0.221   0.458  0.3295 -0.0186 -0.1060
  277MOL   Cl3433706   2.190   0.370   0.474  0.0337 -0.0895  0.2915
  277MOL    H3533707   2.064   0.265   0.661 -0.2087  4.2346 -1.0842
  277MOL    H3633708   1.916   0.293   0.568  0.9722  0.5452 -0.5268
  277MOL    H3733709   2.164   0.137   0.473 -0.2055  0.0218  2.7860
  277MOL    C3833710   2.022   0.224   0.322 -0.5320  0.3840 -0.1106
  277MOL    C3933711   2.031   0.088   0.248  0.4126 -0.4973  0.4097
  277MOL   Cl4033712   2.192   0.083   0.171 -0.0736 -0.2604 -0.1133
  277MOL    H4133713   2.064   0.302   0.259  0.4587  0.1960  0.3033
  277MOL    H4233714   1.919   0.249   0.348 -0.3566  1.4986 -0.4632
  277MOL    H4333715   2.019   0.004   0.316 -1.1240 -1.0497 -0.5161
  277MOL    C4433716   1.921   0.080   0.139  0.2424 -0.1348 -0.5234
  277MOL    C4533717   1.785   0.027   0.197 -0.3636 -0.8878 -0.3355
  277MOL   Cl4633718   1.790   8.382   0.229 -0.2795 -0.4385  0.4125
  277MOL    H4733719   1.942   0.013   0.055  1.5640  0.4897 -0.7014
  277MOL    H4833720   1.909   0.177   0.091 -1.6025  0.8765  1.8607
  277MOL    H4933721   1.779   0.082   0.291  1.0082 -1.8970  0.3627
  277MOL    C5033722   1.664   0.071   0.112  0.2805 -0.0302 -0.0097
  277MOL    C5133723   1.530   0.087   0.184  0.4999  0.6304 -0.0082
  277MOL   Cl5233724   1.548   0.195   0.322  0.2734  0.3019  0.0213
  277MOL    H5333725   1.659   0.021   0.015  0.9759  0.9269 -0.5472
  277MOL    H5433726   1.690   0.166   0.066  0.0811  0.3914  0.7335
  277MOL    H5533727   1.451   0.131   0.123 -2.8010 -2.4839  1.7501
  277MOL    C5633728   1.470   8.475   0.239  0.4398 -0.6180  0.0654
  277MOL    C5733729   1.425   8.383   0.119  0.0302 -1.0288  0.2796
  277MOL   Cl5833730   1.254   8.421   0.085 -0.3626  0.3594  0.2694
  277MOL    H5933731   1.391   8.488   0.313  1.5936 -1.0915  1.3915
  277MOL    H6033732   1.552   8.437   0.299  1.3991 -0.2877 -1.0142
  277MOL    H6133733   1.477   8.411   0.027 -0.4047 -1.1178  0.0060
  277MOL    C6233734   1.446   8.230   0.148  0.0308 -0.0280  0.6635
  277MOL    C6333735   1.396   8.136   0.036 -0.4459 -0.3990  0.5466
  277MOL   Cl6433736   1.421   7.963   0.064 -0.1667  0.0840  0.1858
  277MOL    H6533737   1.403   8.213   0.247 -1.1516  2.0231  0.5263
  277MOL    H6633738   1.554   8.219   0.158 -0.2876 -1.6338  2.9656
  277MOL    H6733739   1.288   8.146   0.039 -0.7000 -2.7936  0.0067
  277MOL    C6833740   1.428   8.165   8.410 -0.4242 -0.4114 -0.1033
  277MOL    C6933741   1.569   8.133   8.362  0.4294 -0.4322 -0.7118
  277MOL   Cl7033742   1.684   8.264   8.411 -0.0412 -0.1621 -0.5846
  277MOL    H7133743   1.393   8.265   8.387 -0.9784 -0.7320 -0.6532
  277MOL    H7233744   1.359   8.099   8.357 -0.1963  1.0107 -2.2087
  277MOL    H7333745   1.589   8.043   8.421 -1.2382  0.5751  1.4719
  277MOL    C7433746   1.573   8.115   8.212 -0.5756 -0.1821 -0.1541
  277MOL    C7533747   1.505   7.990   8.161  0.5348 -0.1362 -0.2604
  277MOL   Cl7633748   1.598   7.843   8.201 -0.2006  0.0026 -0.1001
  277MOL    H7733749   1.677   8.114   8.179 -0.6354 -1.0945 -0.3419
  277MOL    H7833750   1.523   8.202   8.170  0.3799  0.7111  0.5442
  277MOL    H7933751   1.408   7.971   8.207  1.0519  0.1110  0.9392
  277MOL    C8033752   1.478   7.996   8.005  0.7110 -0.6121  0.5988
  277MOL    C8133753   1.399   8.120   7.959  0.7186  0.1885  0.6486
  277MOL   Cl8233754   1.237   8.129   8.038 -0.0618  0.2411  0.1136
  277MOL    H8333755   1.411   7.913   7.983  0.0280  0.1567 -0.2563
  277MOL    H8433756   1.567   7.988   7.942  1.4510 -1.2835  1.6988
  277MOL    H8533757   1.445   8.218   7.968  1.1471 -0.0646  1.3051
  277MOL    C8633758   1.375   8.130   7.806 -0.3402 -0.1626  0.0370
  277MOL    C8733759   1.289   8.247   7.762 -0.6399 -0.6136  0.3046
  277MOL   Cl8833760   1.238   8.206   7.601 -0.1559 -0.1028  0.3785
  277MOL    H8933761   1.333   8.035   7.772  1.4420 -0.2021 -2.1504
  277MOL    H9033762   1.470   8.134   7.753 -0.0125 -1.2024  0.5244
  277MOL    H9133763   1.201   8.245   7.825 -0.8930  1.1120  0.0327
  277MOL    C9233764   1.370   8.383   7.761  0.5147  0.2275  0.8550
  277MOL    C9333765   1.282   8.493   7.699 -0.1907  0.4154  0.2328
  277MOL   Cl9433766   1.379   0.121   7.718 -0.4534  0.0981  0.0968
  277MOL    H9533767   1.466   8.380   7.708 -0.8057  0.1068 -1.5858
  277MOL    H9633768   1.393   8.404   7.866  1.5921  2.0300  0.2724
  277MOL    H9733769   1.274   8.478   7.592  2.1542  4.7024 -0.6299
  277MOL    C9833770   1.148   8.520   7.758  0.1850  0.6698  0.0668
  277MOL    C9933771   1.153   0.021   7.914 -0.5089 -0.7842  0.6243
  277MOL  Cl10033772   1.050   8.436   7.988 -0.0974  0.4089 -0.4015
  277MOL   H10133773   1.085   8.435   7.734  0.3229  0.6838 -0.3508
  277MOL   H10233774   1.102   0.079   7.706 -0.7154 -0.2585 -0.6621
  277MOL   H10333775   1.252   8.521   7.954 -0.4558  0.2676  1.1721
  277MOL   C10433776   1.121   0.168   7.952  0.3053  0.1025 -0.2534
  277MOL   C10533777   1.159   0.217   8.087  0.6483 -0.1101 -0.7253
  277MOL  Cl10633778   1.072   0.368   8.112  0.0960  0.3184  0.1451
  277MOL   H10733779   1.015   0.188   7.936  0.0122  0.2131  1.6640
  277MOL   H10833780   1.169   0.237   7.883  0.5669 -0.1743 -0.3477
  277MOL   H10933781   1.125   0.150   8.166  0.0174 -0.5030 -1.3264
  277MOL   C11033782   1.313   0.245   8.102  0.2154  0.2909  0.3699
  277MOL   C11133783   1.378   0.195   8.235 -0.4833  0.2837 -0.0002
  277MOL  Cl11233784   1.312   0.288   8.372  0.2281 -0.0410  0.0001
  277MOL   H11333785   1.343   0.350   8.095 -0.3640  0.3525 -1.3388
  277MOL   H11433786   1.355   0.185   8.022  2.0892  0.8707  0.8855
  277MOL   H11533787   1.359   0.090   8.254  0.5490 -0.2421 -1.8103
  277MOL   C11633788   1.539   0.204   8.236 -0.1910  0.0453  0.3187
  277MOL   C11733789   1.614   0.130   8.113 -0.0154 -0.8914  0.5630
  277MOL  Cl11833790   1.545   8.485   8.083  0.0292 -0.0565  0.2331
  277MOL   H11933791   1.580   0.169   8.331  1.7332 -1.3379 -0.9838
  277MOL   H12033792   1.556   0.312   8.243 -1.7365  0.1570  3.4946
  277MOL   H12133793   1.591   0.187   8.023  1.3726  1.1024  1.4304
  277MOL   H12233794   1.720   0.123   8.136 -0.3726 -0.2484  2.4816
  278MOL     C133795   4.076   3.554   0.425  0.1972  0.1969 -0.4206
  278MOL     C233796   4.079   3.687   0.501  1.1560 -0.3745 -0.4557
  278MOL    Cl333797   4.157   3.805   0.401 -0.1059 -0.1162 -0.3145
  278MOL     H433798   4.030   3.474   0.482  1.8672 -0.6116 -0.1926
  278MOL     H533799   4.031   3.548   0.326 -0.3603  2.2414 -0.3293
  278MOL     H633800   3.978   3.720   0.524  0.9817 -2.1610  1.5533
  278MOL     H733801   4.183   3.532   0.417  0.6290  1.1161  2.4130
  278MOL     C833802   4.155   3.673   0.635  0.4536 -0.1684 -0.1447
  278MOL     C933803   4.143   3.766   0.758 -0.0572  0.0434  0.3812
  278MOL   Cl1033804   3.984   3.739   0.840 -0.0804  0.1800 -0.0357
  278MOL    H1133805   4.263   3.665   0.618  0.3352 -1.1416 -0.5119
  278MOL    H1233806   4.137   3.570   0.668 -1.3962  0.6154  1.3402
  278MOL    H1333807   4.219   3.733   0.829 -0.3193  0.1584  0.7164
  278MOL    C1433808   4.163   3.915   0.705 -0.2463 -0.3365 -0.0807
  278MOL    C1533809   4.172   4.027   0.809 -0.1241 -0.0952 -0.0670
  278MOL   Cl1633810   4.149   4.186   0.728 -0.1168 -0.2773  0.2048
  278MOL    H1733811   4.089   3.945   0.632 -1.8864 -1.5761  1.0457
  278MOL    H1833812   4.256   3.920   0.649 -0.5025  1.9401 -0.3498
  278MOL    H1933813   4.087   4.009   0.874 -2.4168 -0.5653 -3.1018
  278MOL    C2033814   4.290   4.014   0.895  0.5321 -0.7894  0.3406
  278MOL    C2133815   4.427   4.031   0.820 -0.1827  0.9932 -0.3273
  278MOL   Cl2233816   4.500   3.869   0.804 -0.0407 -0.4626 -0.0538
  278MOL    H2333817   4.296   3.919   0.947 -1.0818 -1.0421  0.0997
  278MOL    H2433818   4.282   4.094   0.968  0.0757 -1.4817  1.0551
  278MOL    H2533819   4.416   4.058   0.715 -1.1533  2.0327  0.0323
  278MOL    C2633820   4.519   4.128   0.896 -0.2971 -0.0178 -0.4977
  278MOL    C2733821   4.653   4.159   0.819 -0.0285 -0.4664  0.2850
  278MOL   Cl2833822   4.772   4.206   0.943 -0.1777  0.2462  0.1748
  278MOL    H2933823   4.537   4.107   1.002 -1.6074  1.8579  0.1193
  278MOL    H3033824   4.461   4.220   0.906 -1.5699 -0.7462 -1.0509
  278MOL    H3133825   4.696   4.073   0.767  0.4287  0.1070 -0.2880
  278MOL    C3233826   4.621   4.275   0.724 -0.0354 -0.7998 -0.1888
  278MOL    C3333827   4.742   4.313   0.633  0.4633 -0.5665 -0.0437
  278MOL   Cl3433828   4.681   4.455   0.535 -0.1651 -0.3319  0.4101
  278MOL    H3533829   4.579   4.362   0.774  1.7520 -1.2317  2.1949
  278MOL    H3633830   4.551   4.237   0.650  0.5344 -1.0962 -0.5793
  278MOL    H3733831   4.822   4.346   0.698  2.1108  0.2670 -2.4247
  278MOL    C3833832   4.791   4.211   0.536  0.0489  0.6665 -0.2205
  278MOL    C3933833   4.934   4.210   0.496  0.2823 -0.0851  0.4566
  278MOL   Cl4033834   5.046   4.203   0.632 -0.0764  0.0153  0.1979
  278MOL    H4133835   4.736   4.202   0.443 -1.5522 -0.7239  0.8210
  278MOL    H4233836   4.770   4.117   0.588 -2.8137  2.2158  1.5689
  278MOL    H4333837   4.946   4.121   0.435 -0.9202  0.4807 -0.6118
  278MOL    C4433838   4.972   4.334   0.410  0.4008  0.2818 -0.2534
  278MOL    C4533839   5.107   4.317   0.333  0.8920  0.6310  0.1140
  278MOL   Cl4633840   5.163   4.479   0.288  0.7626  0.1344  0.0037
  278MOL    H4733841   4.979   4.424   0.472 -0.0401 -0.5380  1.0119
  278MOL    H4833842   4.894   4.356   0.337 -0.0598 -0.1835  0.0970
  278MOL    H4933843   5.180   4.262   0.391  1.7083  0.7220 -0.8172
  278MOL    C5033844   5.095   4.239   0.205 -0.0232  0.5488  0.4625
  278MOL    C5133845   5.223   4.188   0.134  0.3954 -0.0738  0.2226
  278MOL   Cl5233846   5.345   4.120   0.245 -0.0225  0.0897 -0.2980
  278MOL    H5333847   5.046   4.307   0.135 -0.7804  0.6939  1.1334
  278MOL    H5433848   5.034   4.152   0.229  2.8806 -1.0142  2.4620
  278MOL    H5533849   5.197   4.102   0.072  2.7266  0.0867 -1.0205
  278MOL    C5633850   5.306   4.295   0.054  0.8810 -0.7021  0.1173
  278MOL    C5733851   5.229   4.352   8.459  0.0916 -0.5553 -0.2952
  278MOL   Cl5833852   5.189   4.223   8.341 -0.4487 -0.2409  0.1577
  278MOL    H5933853   5.398   4.255   0.011  1.2013 -0.1763  0.3155
  278MOL    H6033854   5.340   4.366   0.129  0.9277  3.5072 -3.7020
  278MOL    H6133855   5.144   4.412   8.492  0.5965 -0.9463  1.8041
  278MOL    C6233856   5.313   4.465   8.387 -0.1868  0.0342  0.1365
  278MOL    C6333857   5.244   4.523   8.262 -0.0747  0.1008  0.0173
  278MOL   Cl6433858   5.367   4.620   8.185  0.0755  0.0472  0.4186
  278MOL    H6533859   5.408   4.426   8.351  0.6034  1.1756  0.9291
  278MOL    H6633860   5.339   4.541   8.461  1.0790 -0.6564  0.4189
  278MOL    H6733861   5.209   4.447   8.192  0.6411  0.5484 -0.8237
  278MOL    C6833862   5.118   4.615   8.285  0.2972  0.0019 -0.0259
  278MOL    C6933863   5.142   4.751   8.353  0.4348  0.1155 -0.2099
  278MOL   Cl7033864   5.185   4.733   0.002 -0.0403 -0.4238  0.0726
  278MOL    H7133865   5.041   4.557   8.336  1.4143 -1.1291  0.3719
  278MOL    H7233866   5.085   4.634   8.183 -0.6038 -1.1995  0.0256
  278MOL    H7333867   5.229   4.796   8.306  0.2468  0.6443 -0.0624
  278MOL    C7433868   5.007   4.837   8.354  0.1124 -0.1488 -0.8829
  278MOL    C7533869   5.003   4.991   8.382 -0.1634  0.0886  0.5601
  278MOL   Cl7633870   4.829   5.042   8.404  0.1127  0.2868 -0.2751
  278MOL    H7733871   4.949   4.791   8.434  0.5471  0.8387  0.0196
  278MOL    H7833872   4.951   4.824   8.262 -1.9097 -1.8834  0.5351
  278MOL    H7933873   5.060   4.999   8.475  2.3078  2.5103 -1.0597
  278MOL    C8033874   5.058   5.081   8.272  0.2511 -0.4501 -0.0872
  278MOL    C8133875   5.216   5.098   8.270  0.2069  0.0599  0.0995
  278MOL   Cl8233876   5.276   5.125   8.433  0.2175  0.1595  0.1280
  278MOL    H8333877   5.013   5.177   8.293 -1.1967 -0.9692 -0.8099
  278MOL    H8433878   5.014   5.057   8.175  0.1257  0.3382 -0.2247
  278MOL    H8533879   5.264   5.005   8.242 -0.9181 -0.7888  0.9274
  278MOL    C8633880   5.265   5.218   8.182  0.5319  0.4099  0.2404
  278MOL    C8733881   5.258   5.193   8.032  0.3505 -0.9927 -0.5691
  278MOL   Cl8833882   5.352   5.051   8.005  0.1791  0.1335 -0.2014
  278MOL    H8933883   5.368   5.247   8.207  1.3503 -2.0460 -0.1083
  278MOL    H9033884   5.214   5.312   8.203  1.6891  0.5466  2.6682
  278MOL    H9133885   5.162   5.185   7.983 -0.0678  0.1233  0.0428
  278MOL    C9233886   5.333   5.306   7.960  0.2468 -0.1307 -0.4889
  278MOL    C9333887   5.260   5.443   7.954 -0.0241  0.2074  0.4913
  278MOL   Cl9433888   5.159   5.452   7.804 -0.2604  0.3338  0.1977
  278MOL    H9533889   5.388   5.276   7.871 -0.4941  1.6857 -1.5921
  278MOL    H9633890   5.419   5.322   8.024  1.7546  0.1945 -2.5343
  278MOL    H9733891   5.199   5.460   8.042 -0.5463 -0.1007  0.1917
  278MOL    C9833892   5.365   5.555   7.936 -0.1146 -0.3993  0.6674
  278MOL    C9933893   5.334   5.690   8.002 -0.0045  0.0622 -0.2251
  278MOL  Cl10033894   5.320   5.662   8.179 -0.3724 -0.2200 -0.3110
  278MOL   H10133895   5.370   5.580   7.830 -0.2595 -1.6136  0.3695
  278MOL   H10233896   5.461   5.526   7.978 -0.8670 -3.8842  0.1697
  278MOL   H10333897   5.427   5.747   7.988  0.8587 -1.2066  0.2434
  278MOL   C10433898   5.212   5.765   7.951 -0.0096  0.0782 -0.2042
  278MOL   C10533899   5.221   5.819   7.805 -0.3721 -0.1864  0.6337
  278MOL  Cl10633900   5.349   5.939   7.791  0.1845  0.3120 -0.3351
  278MOL   H10733901   5.178   5.852   8.008 -1.2304 -0.7208  0.2953
  278MOL   H10833902   5.128   5.696   7.961 -0.7374  0.2677 -4.2646
  278MOL   H10933903   5.261   5.744   7.736  0.0418 -0.1735  0.8555
  278MOL   C11033904   5.090   5.890   7.760  0.0115 -0.0682  0.6607
  278MOL   C11133905   4.967   5.798   7.728 -0.3688  0.1386 -0.8337
  278MOL  Cl11233906   4.980   5.731   7.567 -0.4956 -0.1938  0.0750
  278MOL   H11333907   5.120   5.942   7.669  0.7936 -0.8428  0.4716
  278MOL   H11433908   5.067   5.972   7.828  0.5955  1.9872 -1.5603
  278MOL   H11533909   4.971   5.705   7.785  0.8131  1.0105  0.5255
  278MOL   C11633910   4.830   5.859   7.750  0.4474 -0.1076 -0.6870
  278MOL   C11733911   4.702   5.769   7.769 -0.0545 -0.6021  0.7166
  278MOL  Cl11833912   4.558   5.879   7.763  0.1301 -0.1887  0.2324
  278MOL   H11933913   4.819   5.932   7.669 -0.3289 -1.2133 -1.5916
  278MOL   H12033914   4.825   5.919   7.841  1.2359 -1.7914  0.4795
  278MOL   H12133915   4.685   5.708   7.680 -2.3094  1.1033 -0.0749
  278MOL   H12233916   4.713   5.715   7.863  0.6459 -0.2759  0.8248
  279MOL     C133917   4.236   8.407   2.169  0.2235  1.1288 -0.9818
  279MOL     C233918   4.123   8.484   2.244  0.3540  0.4959  0.3823
  279MOL    Cl333919   3.988   8.504   2.126 -0.1315 -0.2206 -0.2040
  279MOL     H433920   4.311   8.375   2.242 -3.2045 -1.3797  1.5678
  279MOL     H533921   4.201   8.319   2.115  0.1189  1.3706 -1.3066
  279MOL     H633922   4.072   8.418   2.314 -1.3764 -0.5869 -1.8377
  279MOL     H733923   4.286   8.465   2.091  1.9731 -0.4549 -1.0765
  279MOL     C833924   4.165   0.090   2.315 -0.3303 -0.0794  0.0176
  279MOL     C933925   4.069   0.209   2.352 -0.8650 -0.5557 -0.4074
  279MOL   Cl1033926   4.161   0.361   2.325  0.2610  0.2454 -0.1516
  279MOL    H1133927   4.233   0.141   2.247 -0.2856 -0.9661 -0.6224
  279MOL    H1233928   4.221   0.068   2.406 -1.2294  0.6978  0.7666
  279MOL    H1333929   3.988   0.216   2.279  2.1763 -0.3709 -3.9358
  279MOL    C1433930   4.030   0.217   2.500  0.3887  0.1591 -0.1923
  279MOL    C1533931   3.981   0.086   2.567 -0.3216  0.1835 -0.5263
  279MOL   Cl1633932   3.802   0.075   2.551 -0.0246  0.1782 -0.0027
  279MOL    H1733933   3.952   0.292   2.511  0.5588  0.2710  0.2608
  279MOL    H1833934   4.118   0.259   2.548 -1.2852  2.8375  0.6596
  279MOL    H1933935   4.014   8.518   2.521 -3.1551 -1.0235 -0.2411
  279MOL    C2033936   4.011   0.077   2.720 -0.6942  0.3229  0.0986
  279MOL    C2133937   4.158   0.051   2.753  0.0311  0.3846  0.0789
  279MOL   Cl2233938   4.196   8.416   2.686  0.5809  0.1918  0.3739
  279MOL    H2333939   3.948   8.522   2.760 -1.1102 -0.6215 -2.3377
  279MOL    H2433940   4.001   0.176   2.763  0.9780  0.0409  1.2003
  279MOL    H2533941   4.223   0.124   2.705 -0.2784  0.1611 -0.6949
  279MOL    C2633942   4.179   0.039   2.907  0.0491  0.1149 -0.5631
  279MOL    C2733943   4.189   0.180   2.974 -0.0024  0.4330 -0.6252
  279MOL   Cl2833944   4.339   0.254   2.908  0.1255 -0.0001 -0.1806
  279MOL    H2933945   4.271   8.511   2.928  0.4478  1.2375  0.6257
  279MOL    H3033946   4.112   8.491   2.953  2.0805 -1.7530 -0.5396
  279MOL    H3133947   4.103   0.233   2.934 -1.2930  0.0317  1.5245
  279MOL    C3233948   4.188   0.165   3.123 -0.3845 -0.0207 -0.5536
  279MOL    C3333949   4.165   0.291   3.198 -0.1351 -0.4862 -0.1567
  279MOL   Cl3433950   3.995   0.353   3.160  0.0857 -0.0553  0.4984
  279MOL    H3533951   4.280   0.117   3.157  0.9372  2.1686 -0.9242
  279MOL    H3633952   4.104   0.099   3.145  0.2854  0.4876  3.9209
  279MOL    H3733953   4.155   0.266   3.304  2.4681 -2.8059 -0.4103
  279MOL    C3833954   4.268   0.406   3.172 -0.1671 -0.2708 -0.2571
  279MOL    C3933955   4.310   0.494   3.295 -0.2551 -0.4497  0.4430
  279MOL   Cl4033956   4.382   0.385   3.417  0.1449  0.0447 -0.1931
  279MOL    H4133957   4.250   0.463   3.081 -0.7562 -0.6894 -0.4047
  279MOL    H4233958   4.358   0.347   3.153 -0.0675 -0.7606  1.6096
  279MOL    H4333959   4.392   0.557   3.260 -1.0974  2.1130  2.8984
  279MOL    C4433960   4.193   0.571   3.359 -0.0592  0.5201 -0.0818
  279MOL    C4533961   4.123   0.673   3.265 -0.4705 -0.1558  0.0929
  279MOL   Cl4633962   4.240   0.770   3.167 -0.0366 -0.0459 -0.2611
  279MOL    H4733963   4.244   0.628   3.437  2.3590  0.9073 -1.8837
  279MOL    H4833964   4.122   0.512   3.416  1.6137 -1.0562  0.4167
  279MOL    H4933965   4.055   0.618   3.200 -0.9096 -1.2079  1.4045
  279MOL    C5033966   4.052   0.801   3.335  0.7265  1.1161  0.5787
  279MOL    C5133967   3.933   0.756   3.425 -0.3188 -0.5969  0.7287
  279MOL   Cl5233968   3.790   0.704   3.339 -0.0696 -0.2583  0.0100
  279MOL    H5333969   4.027   0.875   3.259  2.0620  0.6691 -0.3073
  279MOL    H5433970   4.115   0.865   3.397  1.0193  0.9168  0.4835
  279MOL    H5533971   3.956   0.667   3.484 -2.5735 -0.7515  1.4002
  279MOL    C5633972   3.887   0.860   3.529  1.1962  0.3727  0.1359
  279MOL    C5733973   3.978   0.869   3.649 -0.5592 -0.7129  0.2453
  279MOL   Cl5833974   4.004   0.709   3.730  0.1481 -0.2354  0.2364
  279MOL    H5933975   3.786   0.847   3.569  0.6156 -0.1625 -1.4505
  279MOL    H6033976   3.883   0.955   3.474  2.7425 -0.7183 -1.9370
  279MOL    H6133977   4.077   0.891   3.608 -1.1724  1.8703  0.0720
  279MOL    C6233978   3.939   0.969   3.758  0.0140 -0.5244 -0.7175
  279MOL    C6333979   4.049   1.008   3.863  0.4142  0.2227  0.8424
  279MOL   Cl6433980   3.994   1.143   3.971  0.0647  0.2169 -0.0030
  279MOL    H6533981   3.850   0.923   3.801  0.5554 -1.6137 -0.7610
  279MOL    H6633982   3.907   1.059   3.706  2.6109 -1.0974 -3.4548
  279MOL    H6733983   4.053   0.913   3.918 -0.9168 -0.0104  0.5495
  279MOL    C6833984   4.183   1.056   3.802  0.3984 -0.0564 -0.2373
  279MOL    C6933985   4.303   1.074   3.902  0.5533 -0.4338  0.5779
  279MOL   Cl7033986   4.425   1.176   3.830 -0.2806 -0.1787 -0.1052
  279MOL    H7133987   4.157   1.146   3.745  1.9291  1.1168  0.8592
  279MOL    H7233988   4.209   0.976   3.733  1.8542 -0.3692  0.6556
  279MOL    H7333989   4.263   1.126   3.989  0.1029 -1.5827  1.0755
  279MOL    C7433990   4.373   0.944   3.950  0.0791 -0.4449 -0.6291
  279MOL    C7533991   4.494   0.969   4.053 -0.7867  0.2021  1.1329
  279MOL   Cl7633992   4.556   0.805   4.096  0.2950  0.0546 -0.0047
  279MOL    H7733993   4.403   0.874   3.871 -1.7424 -0.8897 -0.9459
  279MOL    H7833994   4.295   0.899   4.010 -0.9360  1.0322 -0.8247
  279MOL    H7933995   4.580   1.018   4.008 -0.2945 -0.5142  1.2721
  279MOL    C8033996   4.454   1.038   4.186  0.5710 -0.0682 -0.5024
  279MOL    C8133997   4.561   1.049   4.297 -0.4213  0.0921  0.4550
  279MOL   Cl8233998   4.487   1.147   4.431  0.2852  0.4817  0.0041
  279MOL    H8333999   4.369   0.990   4.235  0.0475 -3.0081 -4.0533
  279MOL    H8434000   4.421   1.139   4.164 -0.1215 -0.0084  0.7467
  279MOL    H8534001   4.587   0.951   4.336 -1.7389 -0.4674 -0.0365
  279MOL    C8634002   4.687   1.132   4.250 -0.1790 -0.8196 -0.2750
  279MOL    C8734003   4.786   1.174   4.361 -0.0206  0.3552 -0.3047
  279MOL   Cl8834004   4.912   1.282   4.294 -0.0705 -0.2315 -0.0131
  279MOL    H8934005   4.650   1.218   4.196 -0.2749 -0.0578  0.9821
  279MOL    H9034006   4.745   1.072   4.179 -1.4679 -0.3072 -1.7829
  279MOL    H9134007   4.732   1.242   4.428  1.7991  0.2380  1.3185
  279MOL    C9234008   4.864   1.060   4.436 -0.3150 -0.6290  0.0937
  279MOL    C9334009   4.949   1.090   4.562  0.1081 -0.2106 -0.4121
  279MOL   Cl9434010   5.009   0.930   4.615  0.0877 -0.3721 -0.0456
  279MOL    H9534011   4.931   1.024   4.358 -0.1466  0.9752 -0.5283
  279MOL    H9634012   4.793   0.980   4.458 -0.6323 -1.0093 -2.1872
  279MOL    H9734013   5.030   1.153   4.527 -2.5673  3.3084 -0.5664
  279MOL    C9834014   4.858   1.139   4.679  1.1183 -0.2904 -0.4005
  279MOL    C9934015   4.923   1.129   4.828  0.3726 -0.0522 -0.0031
  279MOL  Cl10034016   4.801   1.081   4.953  0.3794 -0.2485  0.1419
  279MOL   H10134017   4.766   1.081   4.690  0.4149  1.2020  2.0841
  279MOL   H10234018   4.822   1.240   4.658  0.0518 -0.5041  0.3624
  279MOL   H10334019   4.994   1.047   4.834 -0.3899 -0.6996  0.4958
  279MOL   C10434020   4.986   1.259   4.865  0.0168  0.2980  0.0623
  279MOL   C10534021   5.089   1.322   4.773 -0.2741  0.5640  0.4025
  279MOL  Cl10634022   5.232   1.220   4.779 -0.1203 -0.1085  0.1618
  279MOL   H10734023   5.036   1.258   4.962  0.0563  0.4797  0.0442
  279MOL   H10834024   4.900   1.327   4.870 -0.4226 -0.2477 -0.1048
  279MOL   H10934025   5.049   1.330   4.672  0.7868  2.1125  0.0931
  279MOL   C11034026   5.129   1.463   4.830 -0.0425  0.2375  0.4508
  279MOL   C11134027   5.037   1.582   4.801  0.1884  0.2766 -0.4613
  279MOL  Cl11234028   4.986   1.581   4.633  0.4150 -0.1914 -0.2810
  279MOL   H11334029   5.224   1.497   4.791 -0.0654 -1.2301 -0.9495
  279MOL   H11434030   5.144   1.463   4.938  3.8758  3.5128  0.0161
  279MOL   H11534031   4.948   1.570   4.862 -0.1468  0.7491 -0.8466
  279MOL   C11634032   5.110   1.716   4.840 -0.4888  0.5937 -0.3949
  279MOL   C11734033   5.029   1.846   4.831  0.4107 -0.5480  0.4364
  279MOL  Cl11834034   5.131   1.980   4.897 -0.4082 -0.5715 -0.0402
  279MOL   H11934035   5.187   1.731   4.763  0.2100  0.7385  0.3295
  279MOL   H12034036   5.156   1.711   4.938  1.9529  0.1541 -1.5085
  279MOL   H12134037   5.003   1.860   4.726  0.0510  2.5040  0.8779
  279MOL   H12234038   4.948   1.836   4.904  0.4565  0.4233  0.6301
  280MOL     C134039   0.575   4.185   0.955  0.9458 -0.6556 -0.7791
  280MOL     C234040   0.687   4.087   0.949 -0.1256 -0.1173  0.0943
  280MOL    Cl334041   0.839   4.159   0.903  0.0102  0.0682 -0.2948
  280MOL     H434042   0.601   4.271   1.017 -1.0142  1.2357 -2.5125
  280MOL     H534043   0.541   4.208   0.854  0.0121 -1.4368 -0.6455
  280MOL     H634044   0.710   4.048   1.048  0.3624 -1.0681 -0.3851
  280MOL     H734045   0.488   4.140   1.002  0.8596  0.5590  0.2367
  280MOL     C834046   0.669   3.968   0.857  0.3797 -0.0363 -0.0708
  280MOL     C934047   0.561   3.864   0.910 -0.4514 -0.4758 -0.3855
  280MOL   Cl1034048   0.620   3.783   1.053  0.2531 -0.3661  0.0259
  280MOL    H1134049   0.764   3.920   0.835  0.2821 -0.6823  0.8837
  280MOL    H1234050   0.629   3.997   0.760  0.5650 -1.0140 -0.4465
  280MOL    H1334051   0.474   3.914   0.952  0.1708 -0.7544  1.2692
  280MOL    C1434052   0.517   3.758   0.811 -0.2772  0.4200  0.7426
  280MOL    C1534053   0.627   3.694   0.725 -0.4498  0.0226 -0.3796
  280MOL   Cl1634054   0.543   3.621   0.584  0.0891 -0.2362 -0.2421
  280MOL    H1734055   0.441   3.795   0.741 -1.3714  0.7095  2.0588
  280MOL    H1834056   0.455   3.684   0.862 -0.5802  0.7526  0.8598
  280MOL    H1934057   0.688   3.774   0.683 -0.8541  0.7130  0.3318
  280MOL    C2034058   0.719   3.593   0.788  0.4052  0.1897 -0.1870
  280MOL    C2134059   0.672   3.457   0.842 -0.3584  0.1059 -0.4749
  280MOL   Cl2234060   0.578   3.464   0.989  0.2161 -0.4117  0.3098
  280MOL    H2334061   0.775   3.640   0.869 -1.5851  1.3084  0.5686
  280MOL    H2434062   0.798   3.579   0.715  0.4070  0.2526 -0.1966
  280MOL    H2534063   0.610   3.428   0.757 -2.7012 -1.8549  1.8231
  280MOL    C2634064   0.772   3.340   0.850 -0.1695 -0.1450  0.0182
  280MOL    C2734065   0.715   3.195   0.870 -0.2974 -0.4717  0.3135
  280MOL   Cl2834066   0.839   3.071   0.911  0.1494  0.1126 -0.0552
  280MOL    H2934067   0.841   3.354   0.933 -1.1365 -1.6003  1.1108
  280MOL    H3034068   0.839   3.340   0.765  1.7002  2.2808  1.4308
  280MOL    H3134069   0.652   3.206   0.958  0.4721 -0.2690  0.8415
  280MOL    C3234070   0.633   3.154   0.744  0.6818  0.1278 -0.0436
  280MOL    C3334071   0.561   3.019   0.750  0.0549 -0.3934 -0.0234
  280MOL   Cl3434072   0.539   2.972   0.584  0.2380  0.0635 -0.0784
  280MOL    H3534073   0.703   3.140   0.662 -1.9199  1.7062 -2.5834
  280MOL    H3634074   0.560   3.229   0.714 -1.4667 -0.7921  2.6583
  280MOL    H3734075   0.611   2.931   0.791  0.7783 -0.7158 -1.5738
  280MOL    C3834076   0.418   3.040   0.805  0.1704 -0.2781  0.9512
  280MOL    C3934077   0.404   3.081   0.953  0.1645  0.3071 -0.8222
  280MOL   Cl4034078   0.513   2.968   1.048  0.1055 -0.2654  0.1797
  280MOL    H4134079   0.357   2.955   0.775  0.7126 -0.6746  0.9680
  280MOL    H4234080   0.372   3.119   0.745  1.4061  0.7944  1.4013
  280MOL    H4334081   0.450   3.180   0.957  0.1013  0.2557  2.2109
  280MOL    C4434082   0.252   3.091   0.993  0.1485  0.2706 -0.3202
  280MOL    C4534083   0.235   3.117   1.144 -0.2571 -1.1824 -0.6007
  280MOL   Cl4634084   0.212   2.953   1.215  0.6741  0.0914 -0.0290
  280MOL    H4734085   0.214   2.996   0.953 -0.7024  0.4696  0.0109
  280MOL    H4834086   0.200   3.167   0.936 -2.1849 -1.2023 -0.2433
  280MOL    H4934087   0.332   3.150   1.180  0.0550 -0.4557 -2.0828
  280MOL    C5034088   0.117   3.206   1.198  0.2487 -0.2050  0.1912
  280MOL    C5134089   0.144   3.357   1.194 -0.3952 -0.0732 -0.0326
  280MOL   Cl5234090   0.269   3.379   1.321 -0.1941  0.3652  0.4277
  280MOL    H5334091   0.074   3.174   1.293 -1.1490 -0.1137 -0.3994
  280MOL    H5434092   0.032   3.189   1.133 -1.6384  1.5572  2.1429
  280MOL    H5534093   0.174   3.391   1.095  0.2029  0.3446  0.2929
  280MOL    C5634094   0.021   3.435   1.228 -0.2072 -0.3877  0.3266
  280MOL    C5734095   8.457   3.456   1.099  0.6020 -0.4855  0.3315
  280MOL   Cl5834096   0.010   3.569   0.985 -0.5206 -0.1250  0.0727
  280MOL    H5934097   0.034   3.535   1.267 -1.3109 -0.7124  1.5301
  280MOL    H6034098   8.492   3.388   1.309  1.5859  0.5578  2.1087
  280MOL    H6134099   8.452   3.360   1.048  0.0549  0.0733 -0.6934
  280MOL    C6234100   8.318   3.511   1.133 -0.7532  0.4361 -0.1154
  280MOL    C6334101   8.229   3.399   1.195 -0.3265 -0.6463 -0.4365
  280MOL   Cl6434102   8.199   3.279   1.065  0.3902 -0.2881  0.0563
  280MOL    H6534103   8.271   3.536   1.038  1.4876 -3.2348 -2.3099
  280MOL    H6634104   8.333   3.594   1.202  0.4377  0.6131 -0.5626
  280MOL    H6734105   8.281   3.349   1.277  0.6108  1.8049  0.4901
  280MOL    C6834106   8.095   3.447   1.241  0.4942  0.2262  0.2636
  280MOL    C6934107   8.011   3.357   1.331 -0.0500 -0.1365 -0.5710
  280MOL   Cl7034108   7.860   3.430   1.378 -0.4996 -0.1499  0.1485
  280MOL    H7134109   8.037   3.486   1.157  2.7095  2.2755 -0.3483
  280MOL    H7234110   8.117   3.537   1.298 -1.1473  0.3323  0.7647
  280MOL    H7334111   7.987   3.265   1.278 -1.2156  0.6062 -1.3716
  280MOL    C7434112   8.084   3.312   1.462 -0.2065 -0.1315 -0.4125
  280MOL    C7534113   8.006   3.231   1.561 -0.1075 -0.2646  0.1067
  280MOL   Cl7634114   8.104   3.222   1.707 -0.1275 -0.2543 -0.0465
  280MOL    H7734115   8.112   3.399   1.521 -1.8004 -0.1623  0.4222
  280MOL    H7834116   8.181   3.266   1.446  0.3836  1.6837 -2.2802
  280MOL    H7934117   7.909   3.278   1.574 -0.1502 -0.1567 -0.5569
  280MOL    C8034118   7.995   3.092   1.510 -0.2630  0.1531 -0.1416
  280MOL    C8134119   7.898   3.008   1.593  0.9893  0.2057 -0.4835
  280MOL   Cl8234120   7.942   2.836   1.566  0.4254 -0.1616 -0.1222
  280MOL    H8334121   8.096   3.050   1.508  0.1760  1.1906 -0.3743
  280MOL    H8434122   7.956   3.092   1.409 -1.6596 -1.9725  0.3715
  280MOL    H8534123   7.916   3.025   1.700  1.5697 -3.7467  0.1296
  280MOL    C8634124   7.744   3.024   1.548 -0.0572 -0.1913 -0.4917
  280MOL    C8734125   7.631   2.995   1.653 -0.2651  0.0301  0.8045
  280MOL   Cl8834126   7.677   2.843   1.739  0.3498  0.2491  0.5145
  280MOL    H8934127   7.732   2.962   1.459 -0.2497 -0.2691 -0.4125
  280MOL    H9034128   7.744   3.131   1.530  2.2592 -0.1319 -0.3752
  280MOL    H9134129   7.628   3.080   1.721 -2.3364  2.2248 -1.9407
  280MOL    C9234130   7.496   2.982   1.575 -0.7098  0.1619 -0.3697
  280MOL    C9334131   7.362   2.964   1.646 -0.1080 -0.0077 -0.0549
  280MOL   Cl9434132   7.332   3.116   1.745 -0.0935  0.1688 -0.1187
  280MOL    H9534133   7.513   2.899   1.506  1.0409 -0.3690  0.6620
  280MOL    H9634134   7.475   3.069   1.512 -1.0198  0.3709  0.0235
  280MOL    H9734135   7.288   2.976   1.566  0.3093  2.5893 -0.1072
  280MOL    C9834136   7.340   2.836   1.722 -0.2828 -0.0117  0.0272
  280MOL    C9934137   7.340   2.710   1.633 -0.5966 -0.3545 -0.4426
  280MOL  Cl10034138   7.188   2.695   1.537  0.0996 -0.2326  0.1491
  280MOL   H10134139   7.251   2.835   1.784  0.2075 -0.7118  0.7239
  280MOL   H10234140   7.417   2.836   1.799  0.9296  0.6922 -1.1684
  280MOL   H10334141   7.427   2.710   1.566 -0.1430 -0.6103  0.1406
  280MOL   C10434142   7.358   2.585   1.715  0.1662 -0.0198 -0.4810
  280MOL   C10534143   7.498   2.558   1.787 -0.0540 -0.3256 -0.4340
  280MOL  Cl10634144   7.637   2.532   1.678  0.4506  0.1259 -0.0316
  280MOL   H10734145   7.334   2.502   1.647  2.6956 -1.2200  0.0469
  280MOL   H10834146   7.282   2.591   1.793 -0.0642 -1.0356 -0.6130
  280MOL   H10934147   7.526   2.634   1.859  2.7207  0.1697 -1.9976
  280MOL   C11034148   7.492   2.429   1.874  0.4128  0.2057 -0.6985
  280MOL   C11134149   7.392   2.426   1.988  0.2433  0.5948  0.1317
  280MOL  Cl11234150   7.440   2.565   2.089  0.3661  0.2457 -0.0787
  280MOL   H11334151   7.589   2.413   1.921 -0.1588  2.0572  1.1977
  280MOL   H11434152   7.468   2.348   1.805  1.3733 -0.7233  0.0623
  280MOL   H11534153   7.289   2.444   1.958  0.0629  0.5994  0.7529
  280MOL   C11634154   7.400   2.302   2.069  0.3983  1.1585 -0.5729
  280MOL   C11734155   7.383   2.163   1.995  0.1688 -0.2138  0.1744
  280MOL  Cl11834156   7.234   2.158   1.903  0.1121 -0.0779  0.0449
  280MOL   H11934157   7.326   2.310   2.148 -0.5716  1.2152 -1.4703
  280MOL   H12034158   7.503   2.303   2.106 -0.3847  0.5588  1.6998
  280MOL   H12134159   7.468   2.151   1.928 -0.0991  0.3576 -0.2774
  280MOL   H12234160   7.374   2.079   2.063  1.3938 -0.9328 -0.5291
  281MOL     C134161   0.969   1.221   6.867 -0.0523  0.0861  0.2114
  281MOL     C234162   1.046   1.134   6.963  0.4624 -0.2807  0.1747
  281MOL    Cl334163   1.183   1.235   7.030 -0.0412 -0.0678  0.3658
  281MOL     H434164   0.901   1.155   6.813 -2.3608  0.2529  2.7998
  281MOL     H534165   0.899   1.287   6.917 -1.3785 -0.5010 -0.8515
  281MOL     H634166   0.980   1.101   7.043 -1.3140 -1.1776 -1.6013
  281MOL     H734167   1.037   1.285   6.810 -1.8446  2.7141  0.9144
  281MOL     C834168   1.113   1.012   6.902 -0.4195  0.6164  0.9203
  281MOL     C934169   1.189   0.917   6.995 -0.6544  0.1312 -0.2650
  281MOL   Cl1034170   1.266   0.778   6.909 -0.2562  0.2858  0.3871
  281MOL    H1134171   1.185   1.043   6.827 -1.8546  0.4535 -0.5510
  281MOL    H1234172   1.030   0.970   6.844  0.1687  1.0166 -0.2230
  281MOL    H1334173   1.263   0.977   7.049 -1.6708  2.3936 -1.3059
  281MOL    C1434174   1.095   0.864   7.103 -0.1678  0.4850  0.3403
  281MOL    C1534175   1.152   0.759   7.198 -0.5203 -0.4282  0.6641
  281MOL   Cl1634176   1.028   0.730   7.328  0.3578  0.3804  0.5379
  281MOL    H1734177   1.001   0.829   7.060  0.7556 -0.3641 -1.0633
  281MOL    H1834178   1.053   0.939   7.169 -1.6609  0.8273 -0.9525
  281MOL    H1934179   1.158   0.663   7.146  0.5904 -0.2703  0.4690
  281MOL    C2034180   1.287   0.796   7.274  0.3152  0.6685 -0.0793
  281MOL    C2134181   1.343   0.688   7.377 -0.4043 -0.6594 -0.0045
  281MOL   Cl2234182   1.483   0.758   7.467  0.1042 -0.2110 -0.1770
  281MOL    H2334183   1.259   0.889   7.324 -0.8342 -0.4971  1.4800
  281MOL    H2434184   1.370   0.816   7.205  0.4194  1.4248  0.2529
  281MOL    H2534185   1.266   0.667   7.452 -2.3462  1.3539 -1.3489
  281MOL    C2634186   1.387   0.555   7.311 -0.7738 -1.0434  0.4074
  281MOL    C2734187   1.371   0.438   7.409 -0.3383  0.6809  0.3222
  281MOL   Cl2834188   1.482   0.457   7.545 -0.1251 -0.1325  0.3964
  281MOL    H2934189   1.485   0.571   7.266 -0.5530 -0.9838  0.9027
  281MOL    H3034190   1.317   0.538   7.229  0.5030  1.0142 -1.1654
  281MOL    H3134191   1.277   0.422   7.461  1.1599 -0.2490  2.8033
  281MOL    C3234192   1.413   0.308   7.351 -0.2530 -0.1135 -1.3294
  281MOL    C3334193   1.335   0.244   7.244 -0.5262 -0.4625  0.0414
  281MOL   Cl3434194   1.156   0.273   7.255  0.1985  0.1882 -0.3649
  281MOL    H3534195   1.422   0.234   7.431  1.4624  0.7263 -0.7306
  281MOL    H3634196   1.517   0.319   7.322  0.8168 -0.7645  2.0141
  281MOL    H3734197   1.365   0.279   7.146 -1.3604  0.3610  0.0681
  281MOL    C3834198   1.354   0.091   7.234 -0.5308  0.4573 -0.4432
  281MOL    C3934199   1.503   0.043   7.230  0.3321  0.1694 -0.2684
  281MOL   Cl4034200   1.592   0.118   7.092  0.0257 -0.1626 -0.1334
  281MOL    H4134201   1.312   0.039   7.148  0.2193  1.0052 -1.1526
  281MOL    H4234202   1.305   0.045   7.320  0.4404 -0.1943 -0.2324
  281MOL    H4334203   1.570   0.065   7.314 -0.0475 -0.4949  0.2150
  281MOL    C4434204   1.503   8.418   7.211 -0.9934 -0.1523 -0.6331
  281MOL    C4534205   1.481   8.337   7.347 -0.0123 -0.2162 -0.0696
  281MOL   Cl4634206   1.618   8.378   7.453  0.0195 -0.1307  0.0234
  281MOL    H4734207   1.598   8.382   7.173  0.3260  2.7875 -0.2799
  281MOL    H4834208   1.432   8.379   7.139 -0.5504  0.3916 -1.3724
  281MOL    H4934209   1.394   8.363   7.408 -0.6667  1.2642 -1.5911
  281MOL    C5034210   1.465   8.191   7.319 -0.3561  0.0155 -0.0187
  281MOL    C5134211   1.357   8.153   7.214 -0.1122  0.6464  0.9068
  281MOL   Cl5234212   1.208   8.250   7.245 -0.0721  0.1135 -0.0568
  281MOL    H5334213   1.427   8.145   7.410  0.2396 -0.8277 -0.1887
  281MOL    H5434214   1.566   8.160   7.292 -0.4938  0.2618 -0.8083
  281MOL    H5534215   1.383   8.166   7.109 -0.8356  0.9869  0.7723
  281MOL    C5634216   1.322   7.998   7.225  0.2975 -0.0385 -0.4310
  281MOL    C5734217   1.219   7.950   7.112 -0.7517  0.6022  0.0830
  281MOL   Cl5834218   1.148   7.788   7.148 -0.0504  0.6869  0.1461
  281MOL    H5934219   1.286   7.983   7.327 -0.6988  2.7189 -0.3252
  281MOL    H6034220   1.409   7.937   7.206  0.9856  1.5533 -2.6592
  281MOL    H6134221   1.136   8.021   7.107 -0.4153  1.0274  0.6168
  281MOL    C6234222   1.277   7.941   6.968  0.1602 -0.3453 -0.0915
  281MOL    C6334223   1.405   7.846   6.953 -0.8114 -0.2669 -0.0986
  281MOL   Cl6434224   1.559   7.923   6.991  0.0613 -0.6201 -0.1976
  281MOL    H6534225   1.292   8.048   6.954  0.7118 -0.5926 -1.5130
  281MOL    H6634226   1.200   7.909   6.898 -0.8311  1.0917  0.3219
  281MOL    H6734227   1.396   7.758   7.017 -2.3784  0.3341  0.5473
  281MOL    C6834228   1.416   7.790   6.807 -0.3953 -0.4444 -0.0967
  281MOL    C6934229   1.504   7.664   6.806 -0.1074 -0.3545 -0.4425
  281MOL   Cl7034230   1.598   7.659   6.656 -0.0274 -0.2160 -0.2840
  281MOL    H7134231   1.465   7.860   6.740 -2.5721 -1.0886 -2.4323
  281MOL    H7234232   1.322   7.779   6.755  0.3007 -0.9243 -1.2779
  281MOL    H7334233   1.583   7.676   6.880  0.4199 -0.7229 -0.9455
  281MOL    C7434234   1.420   7.535   6.831  0.0764 -0.4821  0.1844
  281MOL    C7534235   1.369   7.500   6.971 -0.2220 -0.0012 -0.6396
  281MOL   Cl7634236   1.503   7.513   7.091 -0.1986 -0.0595 -0.0237
  281MOL    H7734237   1.487   7.453   6.804  1.0955 -0.6083  3.0011
  281MOL    H7834238   1.338   7.540   6.759 -0.6849 -1.3444  0.9745
  281MOL    H7934239   1.295   7.577   6.993 -0.1071 -0.2405  0.6679
  281MOL    C8034240   1.305   7.363   6.977 -0.2916 -0.3397 -0.1356
  281MOL    C8134241   1.265   7.310   7.122 -0.1255 -0.1372  0.0266
  281MOL   Cl8234242   1.222   7.138   7.108 -0.2879  0.1111 -0.2491
  281MOL    H8334243   1.380   7.289   6.948 -0.8003 -0.7240 -0.4648
  281MOL    H8434244   1.223   7.353   6.907 -0.7170 -2.3010  0.6172
  281MOL    H8534245   1.352   7.315   7.189 -0.9869 -0.8542  1.2259
  281MOL    C8634246   1.145   7.389   7.187  0.5315  0.1356 -0.3009
  281MOL    C8734247   1.083   7.330   7.316 -0.1312  0.2453 -0.0714
  281MOL   Cl8834248   0.951   7.438   7.355  0.1758 -0.2491  0.0746
  281MOL    H8934249   1.074   7.414   7.108 -0.8268  0.5232  1.0106
  281MOL    H9034250   1.181   7.487   7.217  0.3964 -0.8501  3.3545
  281MOL    H9134251   1.029   7.241   7.282  1.8426 -0.2191 -2.1948
  281MOL    C9234252   1.170   7.311   7.444 -0.5672  0.0683 -0.3078
  281MOL    C9334253   1.103   7.263   7.571  0.0011  0.2568 -0.9398
  281MOL   Cl9434254   1.209   7.308   7.712 -0.0618 -0.1339 -0.3064
  281MOL    H9534255   1.215   7.409   7.461  2.1560 -1.5321  2.2828
  281MOL    H9634256   1.259   7.251   7.425  0.3657  1.2415  0.2581
  281MOL    H9734257   1.007   7.314   7.582 -1.7061 -3.1371  0.5660
  281MOL    C9834258   1.077   7.108   7.572 -0.9239 -0.3965 -0.0773
  281MOL    C9934259   0.994   7.073   7.696  0.0371  0.7984 -0.5189
  281MOL  Cl10034260   0.997   6.896   7.709  0.1164 -0.3452 -0.2818
  281MOL   H10134261   1.174   7.059   7.583 -0.8316 -0.1045  0.3824
  281MOL   H10234262   1.040   7.074   7.475  0.4864 -0.0772 -0.7399
  281MOL   H10334263   1.037   7.117   7.786  2.1514 -3.8578  0.8837
  281MOL   C10434264   0.846   7.118   7.675 -0.3653  1.0624 -0.4778
  281MOL   C10534265   0.748   7.080   7.787 -0.8122  0.1700  0.5413
  281MOL  Cl10634266   0.583   7.132   7.745 -0.1181 -0.3896 -0.1110
  281MOL   H10734267   0.824   7.057   7.588  0.6614  2.1781 -1.5402
  281MOL   H10834268   0.835   7.221   7.642  0.6344  1.5744  0.7365
  281MOL   H10934269   0.731   6.974   7.805 -0.7136 -0.2119 -1.4711
  281MOL   C11034270   0.778   7.140   7.924 -0.0909 -0.5306  0.1554
  281MOL   C11134271   0.768   7.292   7.944 -0.4522  0.7903  0.3352
  281MOL  Cl11234272   0.893   7.381   7.859 -0.1366  0.2154 -0.1982
  281MOL   H11334273   0.872   7.101   7.965  0.4601 -1.0890 -1.5977
  281MOL   H11434274   0.710   7.099   7.998 -0.8200  1.4346  0.5948
  281MOL   H11534275   0.676   7.325   7.894 -1.0371 -0.4713  0.5434
  281MOL   C11634276   0.769   7.329   8.098  0.2311  0.1755  0.0382
  281MOL   C11734277   0.739   7.476   8.123 -0.5062  0.1944  0.2247
  281MOL  Cl11834278   0.729   7.503   8.301 -0.1525  0.2417  0.1493
  281MOL   H11934279   0.865   7.304   8.142  0.7577  2.5861  0.3350
  281MOL   H12034280   0.706   7.268   8.163  2.1925 -1.2998  0.5879
  281MOL   H12134281   0.809   7.546   8.078  1.2355 -1.2308  0.6275
  281MOL   H12234282   0.645   7.495   8.073 -1.2755 -0.8420  1.2366
  282MOL     C134283   3.430   5.725   6.601  0.1191  0.8508 -0.0429
  282MOL     C234284   3.533   5.822   6.541  0.0092 -0.5041  0.7848
  282MOL    Cl334285   3.688   5.820   6.627 -0.1371 -0.0916  0.0980
  282MOL     H434286   3.373   5.686   6.517  1.6228  0.7875 -1.0548
  282MOL     H534287   3.484   5.637   6.636  0.8318  1.0825 -0.5465
  282MOL     H634288   3.557   5.790   6.440  0.2900 -1.7306  1.2365
  282MOL     H734289   3.359   5.760   6.675  0.7275  0.6521  0.6467
  282MOL     C834290   3.467   5.964   6.542  0.3660  0.3524  0.2668
  282MOL     C934291   3.328   5.960   6.472  0.0551 -0.0033  0.3054
  282MOL   Cl1034292   3.334   5.880   6.310 -0.0924 -0.2136  0.0218
  282MOL    H1134293   3.521   6.040   6.486  1.0223 -1.1519 -1.1642
  282MOL    H1234294   3.461   5.996   6.646 -1.3127 -1.4767  0.7466
  282MOL    H1334295   3.256   5.904   6.533 -0.3084  0.1341  0.0015
  282MOL    C1434296   3.269   6.100   6.451  0.1839 -0.0200  0.0368
  282MOL    C1534297   3.223   6.173   6.583  0.0339 -0.1670  0.5527
  282MOL   Cl1634298   3.106   6.070   6.664  0.3661  0.2229  0.1162
  282MOL    H1734299   3.180   6.087   6.389  1.7320 -2.4708 -1.7455
  282MOL    H1834300   3.344   6.152   6.392  0.9361  1.1612  1.9995
  282MOL    H1934301   3.303   6.193   6.656 -0.0752 -1.6432  1.0909
  282MOL    C2034302   3.165   6.306   6.546 -0.2844 -1.2829  0.4191
  282MOL    C2134303   3.256   6.402   6.463  0.4917 -1.0257 -0.1818
  282MOL   Cl2234304   3.396   6.425   6.572 -0.1657  0.2555  0.0208
  282MOL    H2334305   3.123   6.342   6.640  0.8269 -0.9345  0.7851
  282MOL    H2434306   3.073   6.288   6.490 -0.3764 -0.7186  0.3834
  282MOL    H2534307   3.282   6.358   6.367 -0.5358 -1.5141 -0.2411
  282MOL    C2634308   3.183   6.537   6.431 -0.0811 -0.2893  0.2724
  282MOL    C2734309   3.257   6.650   6.358 -0.2506  0.1306 -0.3692
  282MOL   Cl2834310   3.175   6.806   6.367 -0.0484 -0.0920 -0.1942
  282MOL    H2934311   3.148   6.577   6.526  1.3999  0.9008  0.3306
  282MOL    H3034312   3.088   6.513   6.383  0.6791  1.7221 -2.3070
  282MOL    H3134313   3.344   6.670   6.420 -1.1470  0.8758  0.6767
  282MOL    C3234314   3.289   6.611   6.211  0.1859  0.1584  0.5676
  282MOL    C3334315   3.348   6.723   6.121 -0.2825 -0.0450 -0.0274
  282MOL   Cl3434316   3.363   6.653   5.958  0.4747  0.3330 -0.4783
  282MOL    H3534317   3.204   6.561   6.165  1.0234 -0.4358 -0.3509
  282MOL    H3634318   3.362   6.529   6.209  0.8557  0.7495  0.7281
  282MOL    H3734319   3.278   6.806   6.110  0.5922  0.6279 -0.6006
  282MOL    C3834320   3.492   6.766   6.147 -0.6352  0.4331  0.3854
  282MOL    C3934321   3.502   6.910   6.195 -0.0220 -0.3877 -0.2046
  282MOL   Cl4034322   3.491   7.021   6.059  0.1817 -0.0473 -0.0113
  282MOL    H4134323   3.566   6.747   6.070 -1.1976 -0.0133 -0.0489
  282MOL    H4234324   3.539   6.701   6.221 -3.0635 -1.2367  0.5317
  282MOL    H4334325   3.413   6.930   6.254  0.2845  2.8801 -0.7334
  282MOL    C4434326   3.630   6.947   6.280  0.4333 -0.0135  0.0650
  282MOL    C4534327   3.622   6.906   6.428 -0.1616 -0.4191 -0.6711
  282MOL   Cl4634328   3.504   6.998   6.511  0.0282 -0.2659 -0.0316
  282MOL    H4734329   3.639   7.055   6.288  1.5639 -0.0431 -0.7405
  282MOL    H4834330   3.721   6.910   6.233  0.8165 -2.5175  2.6279
  282MOL    H4934331   3.578   6.806   6.422 -0.5707 -0.2556 -0.4138
  282MOL    C5034332   3.760   6.900   6.504  0.1885  0.1114  0.3256
  282MOL    C5134333   3.854   6.787   6.455 -0.5485 -0.0369  0.1659
  282MOL   Cl5234334   3.780   6.626   6.462 -0.2480  0.0293 -0.3379
  282MOL    H5334335   3.737   6.885   6.609  1.0052 -0.2948  0.4541
  282MOL    H5434336   3.806   6.998   6.494  1.5752 -0.0301  4.4540
  282MOL    H5534337   3.873   6.806   6.349  0.4718 -2.0694 -0.0493
  282MOL    C5634338   3.994   6.780   6.520  1.7457  0.2383  0.4777
  282MOL    C5734339   4.085   6.900   6.499 -0.5673  0.0807  0.6739
  282MOL   Cl5834340   4.168   6.880   6.336  0.2727  0.2156  0.2447
  282MOL    H5934341   4.034   6.684   6.489  0.2127 -0.2999  0.1481
  282MOL    H6034342   3.975   6.771   6.627  2.5649 -0.4555  0.5692
  282MOL    H6134343   4.026   6.991   6.495 -0.5181  0.3301  3.9150
  282MOL    C6234344   4.197   6.919   6.606 -0.4535  0.2763 -0.5751
  282MOL    C6334345   4.155   6.964   6.749  0.0525 -0.1018  0.1515
  282MOL   Cl6434346   4.149   7.145   6.764  0.0180 -0.2994  0.6867
  282MOL    H6534347   4.254   7.000   6.562 -0.6686  0.0045 -1.3664
  282MOL    H6634348   4.270   6.838   6.615 -1.7069 -0.9081 -0.9233
  282MOL    H6734349   4.056   6.920   6.763 -0.8413  2.0980  0.8916
  282MOL    C6834350   4.251   6.898   6.848 -0.5279  0.1599 -0.3318
  282MOL    C6934351   4.252   6.741   6.870 -0.1911 -0.2134 -0.1627
  282MOL   Cl7034352   4.101   6.698   6.939  0.1075 -0.0212 -0.3432
  282MOL    H7134353   4.220   6.948   6.939  1.6695 -0.9422  1.0787
  282MOL    H7234354   4.355   6.925   6.830 -0.1488  0.1053  1.6850
  282MOL    H7334355   4.266   6.680   6.781 -2.0584 -0.7605 -0.0925
  282MOL    C7434356   4.367   6.688   6.963  0.6314  0.2960 -0.4655
  282MOL    C7534357   4.511   6.742   6.936  0.6097 -0.6064  0.9916
  282MOL   Cl7634358   4.559   6.757   6.765  0.2478 -0.0148  0.1633
  282MOL    H7734359   4.361   6.583   6.989 -0.9639  0.4762 -0.0365
  282MOL    H7834360   4.345   6.738   7.057  3.4213 -1.9673  1.4776
  282MOL    H7934361   4.516   6.842   6.978  1.7441 -0.1508 -0.1933
  282MOL    C8034362   4.614   6.644   6.994  0.3366  0.0955  0.2073
  282MOL    C8134363   4.751   6.708   7.035  0.7302  0.3412  0.1636
  282MOL   Cl8234364   4.868   6.570   7.018  0.0290 -0.0200 -0.1739
  282MOL    H8334365   4.622   6.565   6.920  0.8915 -0.1262  0.4989
  282MOL    H8434366   4.578   6.602   7.088  1.3031 -2.2178 -0.4303
  282MOL    H8534367   4.772   6.775   6.951  0.4394  1.1522  0.7341
  282MOL    C8634368   4.755   6.783   7.174 -0.7088 -0.0511  0.2120
  282MOL    C8734369   4.877   6.873   7.200 -0.5890  0.4636  0.7363
  282MOL   Cl8834370   4.875   7.013   7.084 -0.2521 -0.0131  0.3409
  282MOL    H8934371   4.738   6.709   7.252 -2.7750  0.3479  0.1697
  282MOL    H9034372   4.670   6.851   7.184 -0.3421  0.8545 -2.3960
  282MOL    H9134373   4.860   6.902   7.304 -2.5050  3.4640 -0.3304
  282MOL    C9234374   5.013   6.809   7.196  0.4294  0.5309 -0.2097
  282MOL    C9334375   5.034   6.686   7.288 -0.6134  0.3933 -0.0748
  282MOL   Cl9434376   5.024   6.742   7.461  0.2770 -0.1868  0.1061
  282MOL    H9534377   5.083   6.885   7.232 -1.3212  1.4839  1.2490
  282MOL    H9634378   5.039   6.777   7.095  1.0898 -2.2298  0.7983
  282MOL    H9734379   4.947   6.624   7.271  0.4486 -0.2371 -3.6198
  282MOL    C9834380   5.176   6.619   7.259  0.4088  0.6255 -0.0331
  282MOL    C9934381   5.230   6.529   7.367 -0.5829 -0.1173  0.1481
  282MOL  Cl10034382   5.356   6.438   7.292 -0.0112 -0.3409 -0.2385
  282MOL   H10134383   5.257   6.689   7.235 -0.6022  1.8560  0.0739
  282MOL   H10234384   5.155   6.569   7.164  0.1835  0.8747 -0.1177
  282MOL   H10334385   5.279   6.594   7.439  0.7239 -0.6492 -0.2599
  282MOL   C10434386   5.126   6.431   7.430  0.1468 -0.3898 -0.2664
  282MOL   C10534387   5.172   6.359   7.561 -0.7484 -0.0282  0.2736
  282MOL  Cl10634388   5.043   6.236   7.586  0.0152  0.0359 -0.1361
  282MOL   H10734389   5.116   6.359   7.349  0.9823  0.8853 -1.5273
  282MOL   H10834390   5.026   6.463   7.460 -0.2452 -2.0501  0.2633
  282MOL   H10934391   5.268   6.310   7.542  0.8429  2.8638  0.5143
  282MOL   C11034392   5.189   6.448   7.685  0.1615 -0.2945  0.3184
  282MOL   C11134393   5.263   6.391   7.803 -0.5030  0.5972 -0.4727
  282MOL  Cl11234394   5.437   6.359   7.755 -0.0053 -0.4792  0.1354
  282MOL   H11334395   5.090   6.462   7.728  0.7236  0.8889  1.2680
  282MOL   H11434396   5.234   6.543   7.655 -1.2707  0.7581  1.4229
  282MOL   H11534397   5.274   6.473   7.873  1.0899  0.5726 -0.6830
  282MOL   C11634398   5.196   6.268   7.869 -0.6348  0.4199  0.0042
  282MOL   C11734399   5.261   6.217   7.996 -0.1086 -0.4855 -0.0007
  282MOL  Cl11834400   5.263   6.362   8.109  0.3711  0.2206 -0.0270
  282MOL   H11934401   5.186   6.185   7.799 -0.4376  0.7494 -0.4096
  282MOL   H12034402   5.101   6.312   7.902  0.2052  3.0677 -0.9930
  282MOL   H12134403   5.204   6.138   8.045 -1.3319  0.1200 -0.4371
  282MOL   H12234404   5.365   6.191   7.977  0.4237  0.4451  1.5373
  283MOL     C134405   0.499   0.181   0.314  0.7228  0.2834  0.0025
  283MOL     C234406   0.557   0.053   0.351 -0.4588  0.0123 -0.5968
  283MOL    Cl334407   0.598   8.481   0.211 -0.1180 -0.1309 -0.2077
  283MOL     H434408   0.573   0.232   0.253 -0.9135  0.7396 -1.6685
  283MOL     H534409   0.407   0.172   0.254  1.3320  0.4095 -0.9653
  283MOL     H634410   0.652   0.081   0.397  0.6803 -1.6810 -1.8930
  283MOL     H734411   0.476   0.244   0.399 -2.8228  0.1129 -0.7428
  283MOL     C834412   0.471   8.496   0.442  0.3363  0.6699  0.1694
  283MOL     C934413   0.439   0.034   0.576 -0.2313 -0.4679 -0.5536
  283MOL   Cl1034414   0.593   0.059   0.662  0.0718 -0.5346  0.1673
  283MOL    H1134415   0.507   8.394   0.458 -0.3270  0.5483  0.9287
  283MOL    H1234416   0.379   8.479   0.388  0.0679  0.8833  0.5580
  283MOL    H1334417   0.395   0.134   0.569  0.9535  0.1175  0.1163
  283MOL    C1434418   0.360   8.462   0.668 -0.7033 -0.6318  0.1850
  283MOL    C1534419   0.210   8.436   0.635  0.3708 -0.5223 -0.4364
  283MOL   Cl1634420   0.149   0.067   0.696  0.3871 -0.2104 -0.0765
  283MOL    H1734421   0.364   8.501   0.769  1.4316 -0.3532  0.0183
  283MOL    H1834422   0.419   8.371   0.673  1.6447  0.7454 -1.2839
  283MOL    H1934423   0.200   8.448   0.527  1.8133  2.8148 -0.2811
  283MOL    C2034424   0.126   8.328   0.721 -0.0851  0.6225  0.5471
  283MOL    C2134425   0.161   8.186   0.682 -0.2046  0.0646  0.8815
  283MOL   Cl2234426   0.328   8.134   0.743  0.2887 -0.2781  0.1197
  283MOL    H2334427   0.019   8.345   0.719 -0.3481 -1.0339 -0.1123
  283MOL    H2434428   0.143   8.342   0.828  0.8095 -2.6204  0.8726
  283MOL    H2534429   0.091   8.115   0.725  0.1487 -2.4195 -2.4418
  283MOL    C2634430   0.143   8.160   0.535 -0.2056 -0.6911  0.1254
  283MOL    C2734431   0.177   8.012   0.489 -0.8864 -0.8274  0.1968
  283MOL   Cl2834432   0.131   7.989   0.312 -0.2340 -0.0624  0.2694
  283MOL    H2934433   0.198   8.225   0.468  1.8598  0.3785  2.7439
  283MOL    H3034434   0.043   8.185   0.501 -0.0429 -1.4836 -0.9625
  283MOL    H3134435   0.285   7.999   0.497 -0.8768 -1.5881 -0.9857
  283MOL    C3234436   0.108   7.898   0.572  0.3856  0.3097  0.3933
  283MOL    C3334437   0.138   7.753   0.520  0.5695 -0.6334 -1.0025
  283MOL   Cl3434438   0.056   7.645   0.645 -0.1402  0.0660  0.4029
  283MOL    H3534439   0.002   7.920   0.572 -0.0225 -1.5412 -0.0142
  283MOL    H3634440   0.137   7.907   0.676  2.1489  0.0306 -0.0521
  283MOL    H3734441   0.092   7.733   0.423  1.2460  3.5230 -2.2865
  283MOL    C3834442   0.297   7.717   0.524  0.8642  0.1831 -0.1598
  283MOL    C3934443   0.349   7.577   0.479 -0.0487 -0.2607 -0.1939
  283MOL   Cl4034444   0.525   7.600   0.501  0.4477 -0.1261 -0.0093
  283MOL    H4134445   0.347   7.745   0.617  0.0820  0.8207  0.0715
  283MOL    H4234446   0.339   7.788   0.452 -0.0411  0.9970  0.1143
  283MOL    H4334447   0.312   7.502   0.549 -1.6063  1.1902  0.5749
  283MOL    C4434448   0.304   7.545   0.335  0.8933  0.3721  0.1728
  283MOL    C4534449   0.325   7.406   0.277  0.0561 -0.1657 -1.1672
  283MOL   Cl4634450   0.225   7.294   0.365  0.3164  0.1661  0.2348
  283MOL    H4734451   0.350   7.623   0.274  0.3880 -0.3352 -1.1445
  283MOL    H4834452   0.198   7.573   0.331  1.0559  1.5946  3.0179
  283MOL    H4934453   0.282   7.400   0.177 -1.9261 -0.7981 -0.2942
  283MOL    C5034454   0.467   7.351   0.270 -0.9023  0.2616 -0.0090
  283MOL    C5134455   0.565   7.420   0.174  0.3460 -0.0072  0.0838
  283MOL   Cl5234456   0.515   7.405   0.000 -0.0783  0.2527  0.2447
  283MOL    H5334457   0.468   7.248   0.234 -0.6422 -0.0710  0.9167
  283MOL    H5434458   0.505   7.340   0.371 -0.5212  0.2245 -0.1585
  283MOL    H5534459   0.567   7.525   0.203 -0.6769 -0.4183  1.6907
  283MOL    C5634460   0.701   7.353   0.205  0.6026 -0.3508 -0.0023
  283MOL    C5734461   0.836   7.411   0.146 -0.3652 -0.1130 -0.5058
  283MOL   Cl5834462   0.957   7.282   0.171  0.2747 -0.4636  0.0708
  283MOL    H5934463   0.704   7.252   0.166  0.6423  0.0864 -1.1523
  283MOL    H6034464   0.716   7.343   0.313  3.9282  1.0979 -0.2818
  283MOL    H6134465   0.828   7.412   0.037 -3.3317 -0.5920 -0.3239
  283MOL    C6234466   0.876   7.549   0.191  0.0352 -0.1682 -0.0830
  283MOL    C6334467   1.001   7.606   0.126 -0.3400  0.1748  0.7312
  283MOL   Cl6434468   1.070   7.730   0.224  0.3763 -0.1708 -0.4733
  283MOL    H6534469   0.900   7.541   0.297  0.3989  1.2814 -0.0426
  283MOL    H6634470   0.791   7.615   0.171  0.5355  0.7469  0.7629
  283MOL    H6734471   1.080   7.531   0.130  0.4416  0.9159 -0.4320
  283MOL    C6834472   0.989   7.667   8.508 -0.1970  0.3650 -0.2445
  283MOL    C6934473   1.097   7.627   8.403 -0.4082  0.5302 -0.4989
  283MOL   Cl7034474   1.263   7.669   8.453  0.0405 -0.0970 -0.2254
  283MOL    H7134475   0.985   7.775   8.521  0.8184  0.3059  0.6306
  283MOL    H7234476   0.893   7.637   8.467 -1.0717 -0.5288  2.3846
  283MOL    H7334477   1.091   7.519   8.390 -2.5929  0.5301  0.4278
  283MOL    C7434478   1.068   7.700   8.271  0.2226 -0.3222  0.4904
  283MOL    C7534479   1.154   7.681   8.149 -0.8668  0.0428  0.5450
  283MOL   Cl7634480   1.092   7.780   8.016 -0.3494 -0.1988  0.0637
  283MOL    H7734481   1.058   7.807   8.287  1.3391 -0.3100  1.1764
  283MOL    H7834482   0.967   7.673   8.239 -1.3009  1.7186  3.4035
  283MOL    H7934483   1.251   7.726   8.170  0.1570 -1.2963 -1.1888
  283MOL    C8034484   1.171   7.532   8.109  0.2583  0.1719 -0.4811
  283MOL    C8134485   1.323   7.497   8.112  0.2558 -0.5507  0.4108
  283MOL   Cl8234486   1.417   7.561   7.976  0.1004 -0.0843  0.0010
  283MOL    H8334487   1.131   7.505   8.011  1.9630 -2.3830 -0.5548
  283MOL    H8434488   1.110   7.476   8.179 -0.4483  0.1351 -1.1142
  283MOL    H8534489   1.364   7.545   8.201 -3.1415  2.3709  0.4820
  283MOL    C8634490   1.358   7.349   8.120  0.3911  0.7097 -0.3662
  283MOL    C8734491   1.288   7.265   8.227 -0.0351 -0.0508  0.0320
  283MOL   Cl8834492   1.320   7.333   8.390 -0.0548  0.3564  0.0883
  283MOL    H8934493   1.465   7.339   8.139  0.4531 -0.5432 -1.3357
  283MOL    H9034494   1.348   7.305   8.021 -0.0106 -0.2500  0.0954
  283MOL    H9134495   1.179   7.272   8.215  0.0370  1.7578  0.2798
  283MOL    C9234496   1.329   7.114   8.233 -0.4619  0.5303 -0.0317
  283MOL    C9334497   1.306   7.026   8.101 -0.1585 -0.5972  0.4432
  283MOL   Cl9434498   1.144   7.065   8.034 -0.5868 -0.0653 -0.1537
  283MOL    H9534499   1.268   7.069   8.312 -0.1118 -1.5114 -0.9073
  283MOL    H9634500   1.436   7.119   8.252  0.0728 -0.1529 -2.6164
  283MOL    H9734501   1.371   7.067   8.024  1.1651 -1.7793  0.9079
  283MOL    C9834502   1.357   6.887   8.105  0.1364  0.5453  0.1264
  283MOL    C9934503   1.346   6.809   7.973 -0.1559  0.3982 -0.8283
  283MOL  Cl10034504   1.184   6.742   7.970 -0.2256  0.7404  0.2713
  283MOL   H10134505   1.318   6.830   8.189  0.7055 -0.3357 -0.2026
  283MOL   H10234506   1.461   6.902   8.135  0.6371  0.5954 -1.5793
  283MOL   H10334507   1.357   6.881   7.892  1.9603 -0.4501 -1.3191
  283MOL   C10434508   1.442   6.693   7.961  0.4356 -1.0887 -0.6044
  283MOL   C10534509   1.589   6.731   7.954 -0.7300  0.2085 -0.1765
  283MOL  Cl10634510   1.609   6.842   7.814  0.2192 -0.2545 -0.2966
  283MOL   H10734511   1.419   6.633   7.873 -0.6154 -0.3888 -0.8179
  283MOL   H10834512   1.431   6.620   8.041 -0.3327  0.9960  1.2564
  283MOL   H10934513   1.625   6.765   8.052  0.6488 -0.4845 -0.4348
  283MOL   C11034514   1.682   6.605   7.940 -0.6500  0.1745  0.0632
  283MOL   C11134515   1.831   6.643   7.971 -0.2423  0.1058  0.3232
  283MOL  Cl11234516   1.906   6.709   7.823  0.5439 -0.1756 -0.8138
  283MOL   H11334517   1.674   6.572   7.837 -3.3081  2.8808 -0.6670
  283MOL   H11434518   1.642   6.525   8.003  1.5669 -0.2704  0.9302
  283MOL   H11534519   1.824   6.726   8.041 -1.5988 -1.5109  2.1553
  283MOL   C11634520   1.922   6.522   8.011  0.2575 -0.3050 -0.2637
  283MOL   C11734521   2.039   6.572   8.099 -0.0677 -0.2696 -0.1210
  283MOL  Cl11834522   2.138   6.435   8.139  0.0380 -0.2564  0.0002
  283MOL   H11934523   1.951   6.463   7.924 -0.6781  0.6606 -1.2487
  283MOL   H12034524   1.866   6.452   8.075  0.7270 -0.2190  0.2426
  283MOL   H12134525   2.092   6.640   8.031 -0.0521 -1.5228 -1.3835
  283MOL   H12234526   1.999   6.630   8.182 -0.1591  0.8206 -0.9064
  284MOL     C134527   1.573   6.611   1.721  0.2111  0.2080 -1.0130
  284MOL     C234528   1.523   6.592   1.574  0.0570 -0.4952 -0.1428
  284MOL    Cl334529   1.430   6.743   1.526 -0.1880  0.4402  0.1384
  284MOL     H434530   1.623   6.704   1.751 -1.8850  0.8934  0.4667
  284MOL     H534531   1.490   6.601   1.791  1.5719  2.4920  1.0026
  284MOL     H634532   1.606   6.588   1.503  1.6085  1.9861  1.4414
  284MOL     H734533   1.648   6.534   1.741  0.3058 -0.1548 -2.6941
  284MOL     C834534   1.421   6.475   1.554  0.1987  0.2221  0.5186
  284MOL     C934535   1.484   6.333   1.562  0.1199  0.1516 -0.5515
  284MOL   Cl1034536   1.592   6.316   1.422  0.2008  0.2091  0.1854
  284MOL    H1134537   1.367   6.494   1.461  0.1004 -0.0883  0.5118
  284MOL    H1234538   1.349   6.491   1.635 -0.0041 -3.4013  1.1442
  284MOL    H1334539   1.536   6.321   1.657  1.2977 -0.4864 -1.2682
  284MOL    C1434540   1.380   6.215   1.558 -1.6490  0.1335 -0.4114
  284MOL    C1534541   1.272   6.218   1.678  0.0945  0.3391  0.2707
  284MOL   Cl1634542   1.346   6.169   1.827 -0.2003 -0.7007  0.4353
  284MOL    H1734543   1.432   6.120   1.554 -2.8675 -0.5474 -0.2056
  284MOL    H1834544   1.340   6.227   1.458  0.0763  1.1406 -1.0217
  284MOL    H1934545   1.238   6.321   1.686 -0.1538  0.1744  1.3571
  284MOL    C2034546   1.140   6.133   1.658 -0.2090 -0.1837 -0.6789
  284MOL    C2134547   1.063   6.161   1.534  0.2133  0.2267  0.4650
  284MOL   Cl2234548   0.943   6.287   1.560  0.2505 -0.4949  0.3790
  284MOL    H2334549   1.082   6.148   1.749  1.0396 -0.9913  0.2673
  284MOL    H2434550   1.156   6.025   1.652 -1.4450 -0.3868 -0.5179
  284MOL    H2534551   1.127   6.213   1.463 -0.3234  0.6556  0.2914
  284MOL    C2634552   1.019   6.039   1.456 -0.1162 -0.4317 -0.3293
  284MOL    C2734553   1.122   5.949   1.383  0.0099 -0.1005  0.1672
  284MOL   Cl2834554   1.184   6.050   1.250 -0.4133 -0.2368  0.2368
  284MOL    H2934555   0.948   6.060   1.376 -0.3493 -0.1820 -0.0535
  284MOL    H3034556   0.967   5.980   1.531  0.8259 -1.6714 -0.6252
  284MOL    H3134557   1.206   5.934   1.451  0.4763 -0.8001 -0.5536
  284MOL    C3234558   1.070   5.810   1.321  0.6641  0.1425  0.1575
  284MOL    C3334559   1.033   5.699   1.425  0.6458 -0.7799 -0.1926
  284MOL   Cl3434560   1.189   5.669   1.512  0.0682 -0.4704 -0.0322
  284MOL    H3534561   1.137   5.769   1.246  0.1266  1.4299 -1.0461
  284MOL    H3634562   0.980   5.838   1.265  0.6497  0.6433  0.4224
  284MOL    H3734563   0.966   5.735   1.503  1.1640 -0.6563  0.2087
  284MOL    C3834564   0.979   5.567   1.363  0.8457  0.2267 -0.6642
  284MOL    C3934565   0.847   5.587   1.283  0.5190 -0.4963  0.1071
  284MOL   Cl4034566   0.732   5.667   1.392  0.4154 -0.5430  0.1269
  284MOL    H4134567   0.957   5.488   1.436 -0.7802  0.8270 -0.4890
  284MOL    H4234568   1.055   5.522   1.299  0.5309 -2.2240  0.6146
  284MOL    H4334569   0.869   5.649   1.195  0.5380 -1.0902 -0.3112
  284MOL    C4434570   0.776   5.462   1.226  0.0569  0.1292  0.0655
  284MOL    C4534571   0.864   5.367   1.146  0.3210  0.5553 -0.6937
  284MOL   Cl4634572   0.928   5.456   1.010 -0.1159 -0.2892  0.1687
  284MOL    H4734573   0.696   5.507   1.168 -0.7018 -1.2402  0.0364
  284MOL    H4834574   0.736   5.401   1.307 -2.4266 -0.1171 -1.3239
  284MOL    H4934575   0.950   5.332   1.202  0.5805  1.0308 -0.7894
  284MOL    C5034576   0.778   5.245   1.093 -0.0632  0.2552  0.4728
  284MOL    C5134577   0.863   5.124   1.058 -0.8664 -0.3116  0.4801
  284MOL   Cl5234578   0.938   5.151   0.901 -0.0744 -0.0365  0.0320
  284MOL    H5334579   0.724   5.281   1.005 -0.1823  1.0902  0.8885
  284MOL    H5434580   0.702   5.214   1.164 -0.0362 -1.4939 -0.2244
  284MOL    H5534581   0.947   5.106   1.125 -1.0273 -1.6545  0.3279
  284MOL    C5634582   0.784   4.993   1.047  0.5225 -0.4366  0.1683
  284MOL    C5734583   0.666   4.979   0.949 -0.3082  1.0421  0.7161
  284MOL   Cl5834584   0.535   5.062   1.026 -0.2810 -0.2150  0.1439
  284MOL    H5934585   0.750   4.957   1.144 -0.9803 -1.7820 -0.8258
  284MOL    H6034586   0.857   4.915   1.024  0.5575 -0.2044 -0.5318
  284MOL    H6134587   0.686   5.024   0.852 -2.3970  0.5801  0.0339
  284MOL    C6234588   0.634   4.832   0.921  0.0269  0.3985  0.2365
  284MOL    C6334589   0.707   4.766   0.805  0.1239  0.0552  0.1732
  284MOL   Cl6434590   0.656   4.838   0.647  0.4693 -0.0861 -0.0707
  284MOL    H6534591   0.528   4.820   0.894  0.3994 -0.4515 -0.9415
  284MOL    H6634592   0.650   4.776   1.013  3.7447  2.4337  0.8921
  284MOL    H6734593   0.814   4.778   0.821  0.4439 -2.2578 -0.0642
  284MOL    C6834594   0.667   4.618   0.796 -0.5271  0.0007  0.2998
  284MOL    C6934595   0.764   4.537   0.705 -0.4846  0.6905 -0.4353
  284MOL   Cl7034596   0.688   4.389   0.660 -0.0859 -0.3161 -0.4265
  284MOL    H7134597   0.564   4.620   0.760 -0.6330  2.4405  0.6511
  284MOL    H7234598   0.665   4.566   0.892 -1.2694  1.9401  1.3834
  284MOL    H7334599   0.780   4.579   0.606 -1.0344 -0.7843 -1.1670
  284MOL    C7434600   0.902   4.503   0.776  0.0722  0.0698 -0.1153
  284MOL    C7534601   1.011   4.430   0.689 -1.1479  0.4706  0.2707
  284MOL   Cl7634602   1.143   4.366   0.799  0.3284 -0.1488  0.0458
  284MOL    H7734603   0.884   4.440   0.863 -1.5069  0.1659 -0.3519
  284MOL    H7834604   0.947   4.590   0.824  1.1735 -0.8217  0.4969
  284MOL    H7934605   0.963   4.342   0.647  1.2873 -0.6660 -0.1432
  284MOL    C8034606   1.087   4.514   0.578 -0.5006 -0.5044 -0.1883
  284MOL    C8134607   1.146   4.652   0.631 -0.5696  0.7185 -1.1120
  284MOL   Cl8234608   1.039   4.791   0.604  0.0930  0.1288  0.0934
  284MOL    H8334609   1.027   4.517   0.487 -0.4892  1.5928 -0.1459
  284MOL    H8434610   1.167   4.453   0.535 -1.2040 -0.7399 -1.1969
  284MOL    H8534611   1.147   4.647   0.740 -0.9869  0.5402 -1.1126
  284MOL    C8634612   1.293   4.675   0.583 -0.9615 -0.0973 -0.2566
  284MOL    C8734613   1.372   4.796   0.631 -0.1672 -0.0795 -0.0297
  284MOL   Cl8834614   1.520   4.809   0.526  0.0306 -0.4418 -0.2689
  284MOL    H8934615   1.277   4.695   0.478 -1.9098  2.5456  0.3636
  284MOL    H9034616   1.352   4.583   0.586 -1.5304 -0.5115 -1.5224
  284MOL    H9134617   1.312   4.887   0.621 -0.2073  0.1646  2.1029
  284MOL    C9234618   1.404   4.787   0.786 -0.2433  0.3944  0.3490
  284MOL    C9334619   1.385   4.918   0.875 -0.1343  0.4144  0.1890
  284MOL   Cl9434620   1.222   4.983   0.839  0.5513 -0.1381 -0.0159
  284MOL    H9534621   1.507   4.754   0.795 -0.5974 -0.2529  2.4258
  284MOL    H9634622   1.352   4.705   0.835 -0.1402  0.3795  0.4347
  284MOL    H9734623   1.379   4.887   0.979  4.5044 -0.7535  0.2084
  284MOL    C9834624   1.501   5.024   0.859  0.0735  0.2379 -0.2079
  284MOL    C9934625   1.634   4.978   0.919 -0.0273 -0.7330  0.4292
  284MOL  Cl10034626   1.611   4.891   1.073 -0.1729  0.3110 -0.2158
  284MOL   H10134627   1.471   5.113   0.913 -1.3722 -1.4715  1.8775
  284MOL   H10234628   1.531   5.059   0.760  2.0649 -1.4195 -0.2323
  284MOL   H10334629   1.680   4.907   0.850  2.1440  1.4703 -0.4823
  284MOL   C10434630   1.730   5.098   0.955 -0.7013 -0.2291 -0.5418
  284MOL   C10534631   1.758   5.188   0.836  0.1811 -0.8726 -0.3754
  284MOL  Cl10634632   1.810   5.084   0.706  0.2120  0.0701  0.0940
  284MOL   H10734633   1.826   5.065   0.996 -0.2930  2.1654  0.5324
  284MOL   H10834634   1.683   5.164   1.028  0.9961  0.7091 -0.2724
  284MOL   H10934635   1.670   5.239   0.797 -0.1586 -1.5030 -0.4445
  284MOL   C11034636   1.868   5.290   0.868  0.4344 -0.0719  0.0683
  284MOL   C11134637   1.887   5.402   0.765 -0.1044  0.1025  0.2124
  284MOL  Cl11234638   2.032   5.504   0.817  0.0238 -0.3065  0.3123
  284MOL   H11334639   1.955   5.234   0.900  0.9536  0.5704 -0.2098
  284MOL   H11434640   1.832   5.340   0.958  1.3112  0.7208 -0.0132
  284MOL   H11534641   1.921   5.373   0.666 -0.0917  1.6130 -0.2359
  284MOL   C11634642   1.757   5.488   0.748  0.1679 -1.0565 -0.8722
  284MOL   C11734643   1.777   5.607   0.657  0.0149 -0.6316 -0.1896
  284MOL  Cl11834644   1.817   5.568   0.485 -0.3209  0.2618 -0.0082
  284MOL   H11934645   1.714   5.527   0.840 -2.0296 -0.6331 -2.0421
  284MOL   H12034646   1.679   5.430   0.699  0.5014 -0.7729 -1.7551
  284MOL   H12134647   1.692   5.676   0.658 -0.4570 -1.2122  1.9445
  284MOL   H12234648   1.854   5.676   0.689 -0.4579  1.2288 -2.8269
  285MOL     C134649   6.151   0.285   3.757  0.6889  0.2013  0.7733
  285MOL     C234650   6.061   0.200   3.844 -0.2973 -0.3317  0.3354
  285MOL    Cl334651   6.048   0.281   3.995 -0.1105 -0.4956  0.0016
  285MOL     H434652   6.148   0.248   3.655  1.6348 -0.9458  1.1573
  285MOL     H534653   6.133   0.393   3.765  1.3031  0.3166  0.6444
  285MOL     H634654   5.959   0.213   3.810 -0.3008  1.4474  0.9455
  285MOL     H734655   6.250   0.269   3.800  0.8591  0.2167  0.3879
  285MOL     C834656   6.098   0.055   3.856 -0.0204  0.1920  0.8229
  285MOL     C934657   6.057   8.495   3.735  0.6081  0.2508  0.6030
  285MOL   Cl1034658   5.899   8.431   3.765 -0.2552 -0.1049 -0.2046
  285MOL    H1134659   6.047   0.009   3.941  1.1220 -1.7126  0.5197
  285MOL    H1234660   6.203   0.044   3.882 -0.1835 -0.0607  1.3946
  285MOL    H1334661   6.050   0.033   3.646 -0.3662 -0.0343  0.4653
  285MOL    C1434662   6.158   8.376   3.716  0.6314  0.0874 -0.6632
  285MOL    C1534663   6.238   8.385   3.584  0.1509 -0.0399  0.5170
  285MOL   Cl1634664   6.115   8.330   3.463  0.1941 -0.2193  0.4516
  285MOL    H1734665   6.096   8.287   3.728 -0.0281  0.4646 -1.2159
  285MOL    H1834666   6.214   8.362   3.808 -3.0796  0.2269  1.7345
  285MOL    H1934667   6.264   8.490   3.569  0.7670 -0.2684 -0.0397
  285MOL    C2034668   6.365   8.290   3.594 -0.1493  0.3803 -0.1188
  285MOL    C2134669   6.494   8.345   3.668  0.1927 -0.0169 -0.8633
  285MOL   Cl2234670   6.538   8.510   3.615  0.2999 -0.4022 -0.4429
  285MOL    H2334671   6.403   8.272   3.493  3.4124 -3.1516  1.7079
  285MOL    H2434672   6.333   8.196   3.640  0.8288  0.8439  1.5324
  285MOL    H2534673   6.473   8.337   3.775  1.0496 -0.8247 -0.7478
  285MOL    C2634674   6.619   8.260   3.641 -0.0278 -0.4077  0.2661
  285MOL    C2734675   6.750   8.297   3.702  0.1180  0.0961 -0.1889
  285MOL   Cl2834676   6.880   8.207   3.617  0.2939 -0.0455  0.3588
  285MOL    H2934677   6.639   8.266   3.534 -1.2871 -0.2415  0.0283
  285MOL    H3034678   6.604   8.153   3.658  0.8044 -0.7383 -1.0135
  285MOL    H3134679   6.776   8.403   3.696 -0.1184  0.2457  1.1968
  285MOL    C3234680   6.752   8.246   3.852 -0.0710 -0.3109 -0.1304
  285MOL    C3334681   6.838   8.331   3.950 -0.3892 -1.1959 -0.3184
  285MOL   Cl3434682   6.762   8.495   3.964  0.3795  0.1497 -0.5186
  285MOL    H3534683   6.795   8.146   3.850 -0.6984 -0.6570  1.7469
  285MOL    H3634684   6.648   8.245   3.886 -0.1339  0.3982 -0.2905
  285MOL    H3734685   6.841   8.281   4.047  2.5825 -1.8800 -0.7069
  285MOL    C3834686   6.987   8.352   3.902  0.3289 -0.8390 -0.2985
  285MOL    C3934687   7.089   8.372   4.007  0.0868 -0.2622  0.5203
  285MOL   Cl4034688   7.089   0.012   4.073 -0.0548 -0.2776 -0.0599
  285MOL    H4134689   6.980   8.428   3.824  0.8661  0.4457  0.8812
  285MOL    H4234690   7.010   8.264   3.842 -0.6018  0.0238 -1.9533
  285MOL    H4334691   7.059   8.309   4.091 -0.7706 -0.2256  0.2394
  285MOL    C4434692   7.237   8.339   3.976 -0.7358  0.1852 -0.0581
  285MOL    C4534693   7.269   8.188   3.928  0.2118  0.5941  0.3228
  285MOL   Cl4634694   7.208   8.070   4.042 -0.0813  0.5965 -0.2902
  285MOL    H4734695   7.295   8.357   4.066  2.3793 -1.0910 -1.7324
  285MOL    H4834696   7.280   8.411   3.907 -0.3986 -0.6038 -0.6908
  285MOL    H4934697   7.226   8.192   3.828  0.7644  0.5541  0.0822
  285MOL    C5034698   7.424   8.170   3.909  0.4921 -0.6788 -0.9334
  285MOL    C5134699   7.488   8.228   3.779 -0.6128 -0.1498 -0.0040
  285MOL   Cl5234700   7.387   8.197   3.639 -0.2471  0.1864 -0.2186
  285MOL    H5334701   7.440   8.063   3.898  1.6096 -0.5216 -0.8772
  285MOL    H5434702   7.482   8.202   3.996 -1.4595 -0.4237  0.3051
  285MOL    H5534703   7.482   8.337   3.786 -1.9321 -0.1619 -0.7678
  285MOL    C5634704   7.629   8.176   3.758  0.2708  0.6219  0.3481
  285MOL    C5734705   7.687   8.216   3.620 -0.1608 -0.2254  0.2223
  285MOL   Cl5834706   7.840   8.123   3.587 -0.1812 -0.2077  0.2807
  285MOL    H5934707   7.622   8.068   3.760 -0.9653  0.6162 -1.8053
  285MOL    H6034708   7.700   8.209   3.833  0.4965  1.7947 -0.3537
  285MOL    H6134709   7.628   8.181   3.535 -0.5557  1.4528 -0.2134
  285MOL    C6234710   7.725   8.368   3.615  0.4413 -0.9171 -0.3042
  285MOL    C6334711   7.727   8.435   3.477 -0.5241 -0.2731  0.1614
  285MOL   Cl6434712   7.578   8.410   3.383  0.2851 -0.1063 -0.2288
  285MOL    H6534713   7.819   8.382   3.668  1.4073  0.0962 -2.2751
  285MOL    H6634714   7.638   8.419   3.657 -0.3687 -0.1240 -2.8687
  285MOL    H6734715   7.748   0.016   3.487 -1.6775 -0.0229  0.0222
  285MOL    C6834716   7.839   8.383   3.381  0.2390  0.4962 -0.8060
  285MOL    C6934717   7.984   8.397   3.420  0.6648  0.2663 -0.3469
  285MOL   Cl7034718   8.019   0.038   3.475  0.4069 -0.0044 -0.2598
  285MOL    H7134719   7.816   8.423   3.283 -0.6625  1.6909 -0.1182
  285MOL    H7234720   7.824   8.275   3.383  0.8342  0.4240  0.2794
  285MOL    H7334721   8.010   8.324   3.497  0.1808 -1.6251 -1.9240
  285MOL    C7434722   8.081   8.378   3.301 -0.5492 -0.4745 -0.3243
  285MOL    C7534723   8.238   8.352   3.331 -0.7426 -0.3799 -0.2165
  285MOL   Cl7634724   8.262   8.254   3.471 -0.1012 -0.3618  0.4071
  285MOL    H7734725   8.074   8.468   3.240 -0.5999  1.1452  2.0198
  285MOL    H7834726   8.056   8.291   3.241 -4.0034  0.4938 -0.3715
  285MOL    H7934727   8.281   8.310   3.240  0.3208  0.4236 -0.0970
  285MOL    C8034728   8.318   8.479   3.362  0.0190 -0.4129  0.2554
  285MOL    C8134729   8.468   8.484   3.338  0.0723  0.2060  0.1797
  285MOL   Cl8234730   0.026   8.477   3.495  0.1543  0.1260  0.6573
  285MOL    H8334731   8.293   0.004   3.455 -1.1331  1.8544 -1.2481
  285MOL    H8434732   8.270   0.016   3.287 -3.4749 -0.5009  2.3402
  285MOL    H8534733   8.493   8.395   3.281 -0.9033 -0.9078  1.4696
  285MOL    C8634734   8.502   0.080   3.244 -0.2007  0.3222  0.8409
  285MOL    C8734735   0.127   0.108   3.229 -1.1063  1.0097  0.6984
  285MOL   Cl8834736   0.136   0.268   3.155 -0.1933 -0.0416  0.2374
  285MOL    H8934737   8.450   0.164   3.290 -2.5824  0.6203 -2.1642
  285MOL    H9034738   8.457   0.066   3.146  3.7563 -2.3547 -0.7292
  285MOL    H9134739   0.186   0.122   3.320  2.8756  0.2243 -1.6716
  285MOL    C9234740   0.202   0.011   3.145 -0.4554  0.3795  0.2036
  285MOL    C9334741   0.352   0.033   3.155 -0.1727  0.5715  0.2469
  285MOL   Cl9434742   0.423   8.480   3.013  0.2628  0.0808  0.0833
  285MOL    H9534743   0.167   0.027   3.043 -0.4984  0.0835  0.1718
  285MOL    H9634744   0.167   8.437   3.171  0.4405  0.5757  2.3216
  285MOL    H9734745   0.387   0.135   3.144  0.3154  0.4436  0.5936
  285MOL    C9834746   0.413   8.493   3.283 -0.5870 -0.1269 -0.3310
  285MOL    C9934747   0.568   8.511   3.304 -0.1022 -0.5294 -0.9069
  285MOL  Cl10034748   0.605   8.487   3.474  0.4258 -0.3738  0.5954
  285MOL   H10134749   0.394   8.385   3.282 -0.4592 -0.1611  0.9535
  285MOL   H10234750   0.365   0.005   3.373 -0.4858 -0.9500  0.0712
  285MOL   H10334751   0.613   8.430   3.247 -1.1650 -1.8399  0.0505
  285MOL   C10434752   0.631   0.124   3.260 -0.3986 -0.1420  0.1855
  285MOL   C10534753   0.779   0.159   3.301  0.0675  0.1447 -0.4296
  285MOL  Cl10634754   0.894   0.042   3.238 -0.2370 -0.0634 -0.0166
  285MOL   H10734755   0.563   0.205   3.285 -1.2505 -1.2778  1.6062
  285MOL   H10834756   0.642   0.116   3.152 -0.5855 -0.4262  0.1862
  285MOL   H10934757   0.807   0.243   3.238  2.9546 -0.6303 -0.2445
  285MOL   C11034758   0.820   0.193   3.450  0.4756  0.2889 -0.2082
  285MOL   C11134759   0.732   0.299   3.515 -0.6291 -0.2101 -0.4900
  285MOL  Cl11234760   0.750   0.450   3.428  0.2555 -0.0011 -0.2791
  285MOL   H11334761   0.924   0.224   3.448  0.0186  1.8923  0.2778
  285MOL   H11434762   0.833   0.105   3.514  0.6737 -1.0425 -2.0569
  285MOL   H11534763   0.628   0.269   3.528 -0.3352  0.2777  3.7244
  285MOL   C11634764   0.777   0.326   3.660  0.2477 -0.0429 -0.2525
  285MOL   C11734765   0.706   0.437   3.741 -0.6309  0.5075  0.0404
  285MOL  Cl11834766   0.536   0.401   3.762  0.4426 -0.3322 -0.6525
  285MOL   H11934767   0.883   0.350   3.662  0.6821 -1.9578  1.5378
  285MOL   H12034768   0.768   0.234   3.718 -2.5837  1.2044  1.4335
  285MOL   H12134769   0.760   0.449   3.834  1.3528 -1.2191 -0.8319
  285MOL   H12234770   0.709   0.535   3.694  0.8458  0.7442  0.6141
  286MOL     C134771   3.821   0.954   5.935  0.5368 -0.3437 -0.6692
  286MOL     C234772   3.702   0.876   5.876 -1.0359  0.5168  0.4181
  286MOL    Cl334773   3.543   0.904   5.958 -0.0937  0.2424 -0.0571
  286MOL     H434774   3.806   1.061   5.938 -3.0605 -0.8184  1.0256
  286MOL     H534775   3.848   0.924   6.037 -1.1076  1.5548  0.3540
  286MOL     H634776   3.684   0.916   5.777 -2.3668 -2.9025 -0.8091
  286MOL     H734777   3.904   0.918   5.874 -0.3282  0.1635 -2.1432
  286MOL     C834778   3.734   0.725   5.867 -0.5618  0.1300 -0.4968
  286MOL     C934779   3.733   0.647   5.997  0.3768  0.5323 -0.0638
  286MOL   Cl1034780   3.896   0.658   6.074 -0.1317  0.0959 -0.1511
  286MOL    H1134781   3.832   0.721   5.820 -1.3054 -1.4453 -1.9615
  286MOL    H1234782   3.664   0.670   5.805  1.2481 -0.9010 -1.6545
  286MOL    H1334783   3.669   0.704   6.064  1.8804  1.4164  0.6368
  286MOL    C1434784   3.712   0.495   5.979 -0.6220 -0.5387  0.3901
  286MOL    C1534785   3.685   0.416   6.112 -0.0546  0.5005 -0.2622
  286MOL   Cl1634786   3.691   0.236   6.086  0.1341 -0.0997 -0.2255
  286MOL    H1734787   3.794   0.447   5.926 -1.6341 -1.6268 -0.2012
  286MOL    H1834788   3.624   0.490   5.914 -0.3285 -0.1033 -0.0421
  286MOL    H1934789   3.768   0.445   6.178  1.4177 -3.2566 -0.3442
  286MOL    C2034790   3.555   0.459   6.177  0.4874  0.7050 -0.3981
  286MOL    C2134791   3.520   0.437   6.321 -0.1018 -0.7721  0.1392
  286MOL   Cl2234792   3.362   0.501   6.338  0.2128  0.3369 -0.3398
  286MOL    H2334793   3.480   0.416   6.111 -0.0462  3.3068 -1.5433
  286MOL    H2434794   3.533   0.566   6.174  0.6831  0.7251 -3.4569
  286MOL    H2534795   3.515   0.329   6.338  1.4305 -0.7412  0.9721
  286MOL    C2634796   3.607   0.504   6.426 -0.3218 -1.0422  0.0927
  286MOL    C2734797   3.549   0.519   6.566 -0.2736 -0.2415  0.4803
  286MOL   Cl2834798   3.668   0.627   6.636 -0.4505 -0.5412  0.2020
  286MOL    H2934799   3.638   0.603   6.391  0.8536 -0.8704  1.6016
  286MOL    H3034800   3.700   0.447   6.425 -0.9714 -2.1238  0.1245
  286MOL    H3134801   3.451   0.566   6.579 -1.6923 -3.7958  3.3113
  286MOL    C3234802   3.544   0.379   6.643  0.5096  0.2869 -0.4557
  286MOL    C3334803   3.467   0.367   6.780  0.0619  0.3037  0.1419
  286MOL   Cl3434804   3.289   0.380   6.757  0.5579  0.2291  0.4292
  286MOL    H3534805   3.638   0.323   6.642 -0.4501 -1.3849  0.5440
  286MOL    H3634806   3.487   0.308   6.584  2.2112 -2.2358  0.8422
  286MOL    H3734807   3.481   0.267   6.822  2.4716 -0.0371 -1.3886
  286MOL    C3834808   3.518   0.462   6.889  0.0780  0.9745 -0.3818
  286MOL    C3934809   3.667   0.444   6.934 -0.8879  0.1024  0.3994
  286MOL   Cl4034810   3.666   0.287   7.025 -0.0881  0.4146 -0.0429
  286MOL    H4134811   3.458   0.443   6.978 -1.8511  0.7537 -1.6868
  286MOL    H4234812   3.494   0.566   6.870 -0.8259  0.7624 -0.4543
  286MOL    H4334813   3.725   0.430   6.843 -0.0935  0.6637  0.8148
  286MOL    C4434814   3.733   0.559   7.012  0.3599  0.2468  0.5556
  286MOL    C4534815   3.845   0.529   7.113 -0.5263 -0.2975  0.4497
  286MOL   Cl4634816   3.876   0.679   7.207  0.2747  0.0049 -0.0482
  286MOL    H4734817   3.654   0.600   7.074 -0.3724 -0.4010  0.0512
  286MOL    H4834818   3.762   0.640   6.944  0.3763  0.0553  0.3334
  286MOL    H4934819   3.804   0.462   7.188 -1.3988  0.1667  0.4076
  286MOL    C5034820   3.971   0.471   7.045  0.3954 -0.0288 -0.2583
  286MOL    C5134821   4.076   0.402   7.139 -0.3832 -0.1531  0.6279
  286MOL   Cl5234822   4.203   0.321   7.040 -0.0916  0.1666 -0.1063
  286MOL    H5334823   4.025   0.553   6.997  1.8380 -0.8106  0.0088
  286MOL    H5434824   3.933   0.398   6.974 -1.8208 -0.6218  1.4824
  286MOL    H5534825   4.134   0.479   7.189 -1.3563 -0.8158  2.8337
  286MOL    C5634826   4.020   0.298   7.236  0.0883 -0.5244 -0.0945
  286MOL    C5734827   4.123   0.237   7.326  0.2445  0.0619 -0.1006
  286MOL   Cl5834828   4.038   0.134   7.445  0.0951  0.0175 -0.1068
  286MOL    H5934829   3.969   0.219   7.181 -0.1743  0.0154 -0.6293
  286MOL    H6034830   3.950   0.343   7.307 -0.6452 -0.0211 -1.1259
  286MOL    H6134831   4.192   0.176   7.269  0.7688  1.7015 -1.2489
  286MOL    C6234832   4.213   0.340   7.404  0.2879 -0.9860  0.1339
  286MOL    C6334833   4.295   0.284   7.518 -0.3919  0.1084  0.0926
  286MOL   Cl6434834   4.403   0.416   7.574  0.1538  0.0120  0.0053
  286MOL    H6534835   4.138   0.398   7.458 -0.8274 -0.4182 -1.9793
  286MOL    H6634836   4.267   0.407   7.337 -0.7578  0.7733  0.9909
  286MOL    H6734837   4.237   0.260   7.607  1.4699 -2.9666  0.5580
  286MOL    C6834838   4.379   0.162   7.478 -0.7221 -0.3980 -0.7114
  286MOL    C6934839   4.491   0.125   7.586  0.2757  0.7467 -0.2923
  286MOL   Cl7034840   4.589   0.011   7.501 -0.0069  0.0626 -0.1438
  286MOL    H7134841   4.436   0.202   7.395  0.9515  0.9091  1.0183
  286MOL    H7234842   4.320   0.076   7.448 -0.7976 -0.7124  0.2957
  286MOL    H7334843   4.553   0.208   7.619 -0.7778  0.1975  3.2492
  286MOL    C7434844   4.436   0.048   7.716 -0.1734 -0.0906 -0.4436
  286MOL    C7534845   4.549   8.492   7.798 -0.1935 -0.0147  0.0540
  286MOL   Cl7634846   4.474   8.408   7.933  0.1035 -0.1430  0.1832
  286MOL    H7734847   4.361   8.500   7.685  0.2438 -1.4037  1.5503
  286MOL    H7834848   4.386   0.127   7.773  0.9324  2.8073 -3.3018
  286MOL    H7934849   4.594   8.413   7.737 -0.6803 -0.8972  0.8322
  286MOL    C8034850   4.665   0.048   7.851  0.6506  0.3294  0.7864
  286MOL    C8134851   4.792   8.497   7.905 -0.1157 -0.2196  0.0442
  286MOL   Cl8234852   4.896   0.087   8.009 -0.1419 -0.3389  0.4680
  286MOL    H8334853   4.627   0.104   7.937 -2.3657 -0.6268  0.1431
  286MOL    H8434854   4.688   0.124   7.777  2.5927  0.5045  1.5429
  286MOL    H8534855   4.754   8.420   7.972 -0.1067 -1.5059 -1.4049
  286MOL    C8634856   4.876   8.442   7.782  0.2022  0.1483  0.1699
  286MOL    C8734857   5.005   8.366   7.816  0.5020  0.0032  1.0753
  286MOL   Cl8834858   5.095   8.349   7.663  0.3766 -0.4145 -0.2036
  286MOL    H8934859   4.911   0.002   7.725  0.7889 -0.9105 -1.0673
  286MOL    H9034860   4.822   8.380   7.710  3.2430  0.6943 -2.6871
  286MOL    H9134861   5.071   8.434   7.870  1.0800  0.8323 -0.6406
  286MOL    C9234862   4.986   8.218   7.873  0.0723 -0.0599 -0.9103
  286MOL    C9334863   5.073   8.190   8.000 -0.3845 -0.2208  0.5444
  286MOL   Cl9434864   5.084   8.010   8.033  0.1123 -0.6203  0.0001
  286MOL    H9534865   5.002   8.136   7.803 -1.3399 -2.3553  1.3114
  286MOL    H9634866   4.887   8.196   7.914  0.6663 -0.7710  0.1952
  286MOL    H9734867   5.173   8.228   7.979  0.1685 -1.3274  1.1229
  286MOL    C9834868   5.029   8.271   8.126  0.4507 -0.1318  0.3464
  286MOL    C9934869   5.128   8.256   8.244 -1.0879  0.2752 -0.2019
  286MOL  Cl10034870   5.029   8.307   8.396 -0.1007  0.0100  0.3573
  286MOL   H10134871   4.925   8.244   8.145  0.6228 -1.4096 -0.4220
  286MOL   H10234872   5.022   8.378   8.110 -1.5207  0.0534  2.1873
  286MOL   H10334873   5.153   8.150   8.241  2.8635  1.1532 -1.2264
  286MOL   C10434874   5.258   8.340   8.235 -0.0844 -0.4957 -0.4274
  286MOL   C10534875   5.353   8.333   8.359  0.1737 -0.4342 -0.8343
  286MOL  Cl10634876   5.352   8.166   8.431  0.0917  0.2186  0.5063
  286MOL   H10734877   5.229   8.444   8.225  1.0725 -0.2578 -1.3766
  286MOL   H10834878   5.314   8.298   8.152  1.6866  1.0903 -0.0408
  286MOL   H10934879   5.456   8.345   8.325  0.6037 -4.3145 -1.1417
  286MOL   C11034880   5.323   8.445   8.463 -0.2357  0.4633 -0.2722
  286MOL   C11134881   5.422   8.465   0.060 -0.2194 -0.7949  0.5604
  286MOL  Cl11234882   5.579   8.496   8.516 -0.2552 -0.0999 -0.4226
  286MOL   H11334883   5.226   8.432   8.512 -0.3007  2.4735  0.1685
  286MOL   H11434884   5.315   0.017   8.414 -1.3684 -0.0690 -1.1901
  286MOL   H11534885   5.402   0.035   0.109 -1.2108 -1.3025  1.1651
  286MOL   C11634886   5.422   8.365   0.173 -0.5778 -0.9305 -0.6753
  286MOL   C11734887   5.521   8.384   0.292 -0.0080  0.7292  0.0642
  286MOL  Cl11834888   5.456   8.288   0.435 -0.0483 -0.0632  0.5317
  286MOL   H11934889   5.445   8.266   0.133  2.0545 -0.7328  0.2050
  286MOL   H12034890   5.323   8.372   0.218 -0.3401  1.2387 -0.4489
  286MOL   H12134891   5.622   8.346   0.275 -0.7576 -0.7239 -1.1905
  286MOL   H12234892   5.528   8.490   0.317  0.5642  0.1083  2.7517
  287MOL     C134893   5.527   7.846   7.238 -0.4097  1.3450 -0.3120
  287MOL     C234894   5.547   7.835   7.095  0.5226 -0.3767  0.5116
  287MOL    Cl334895   5.433   7.713   7.034 -0.3496  0.3870  0.2868
  287MOL     H434896   5.432   7.887   7.272 -0.7512 -1.7134  2.7063
  287MOL     H534897   5.539   7.745   7.277 -3.2985 -0.5349 -4.0071
  287MOL     H634898   5.518   7.926   7.043  1.9934  0.3780  0.9989
  287MOL     H734899   5.606   7.910   7.278 -1.8583  1.3954  2.5964
  287MOL     C834900   5.690   7.813   7.034  0.8277  0.4345  0.1712
  287MOL     C934901   5.696   7.777   6.879 -0.3095  0.0199 -0.0967
  287MOL   Cl1034902   5.874   7.761   6.856 -0.1415  0.2976  0.2398
  287MOL    H1134903   5.739   7.736   7.094  0.5644 -0.0887 -0.2803
  287MOL    H1234904   5.739   7.908   7.057 -0.2183  1.4343 -1.6374
  287MOL    H1334905   5.648   7.681   6.860  2.0274 -1.3355  0.7182
  287MOL    C1434906   5.648   7.894   6.797  0.0700  0.3291  0.3696
  287MOL    C1534907   5.679   7.900   6.647  0.4468 -0.1914 -0.3232
  287MOL   Cl1634908   5.821   8.003   6.632 -0.0888 -0.1879 -0.1516
  287MOL    H1734909   5.670   7.993   6.838  0.3283  0.0762  0.8468
  287MOL    H1834910   5.539   7.889   6.799 -0.0160  1.4599 -0.8265
  287MOL    H1934911   5.715   7.803   6.613  1.5104 -0.5624  1.8360
  287MOL    C2034912   5.571   7.943   6.541 -0.2762 -0.0476 -0.0255
  287MOL    C2134913   5.448   7.850   6.541 -0.6593 -0.7526 -0.1896
  287MOL   Cl2234914   5.511   7.688   6.511  0.0496  0.0222  0.1384
  287MOL    H2334915   5.612   7.938   6.440  2.0416 -1.5125  0.9515
  287MOL    H2434916   5.533   8.042   6.567 -0.3928 -0.0813 -0.0663
  287MOL    H2534917   5.398   7.848   6.638  0.5180  0.4224  0.4380
  287MOL    C2634918   5.350   7.882   6.419 -0.1823 -0.5258 -0.3512
  287MOL    C2734919   5.208   7.825   6.414  0.4184  0.5504  0.2704
  287MOL   Cl2834920   5.140   7.857   6.249 -0.0812 -0.2579  0.0928
  287MOL    H2934921   5.407   7.868   6.327  0.2994 -0.0684 -0.1262
  287MOL    H3034922   5.323   7.987   6.422  2.1142  0.1488 -1.4117
  287MOL    H3134923   5.215   7.717   6.428 -0.2303  0.4591 -0.1267
  287MOL    C3234924   5.111   7.885   6.521  0.4838 -1.1495  0.0517
  287MOL    C3334925   5.096   7.809   6.651 -0.0617 -0.0990  0.3063
  287MOL   Cl3434926   5.037   7.638   6.634  0.2183 -0.0796 -0.1671
  287MOL    H3534927   5.009   7.885   6.482  0.4052  1.3988  0.2139
  287MOL    H3634928   5.131   7.988   6.547  0.6830 -1.9245  3.1950
  287MOL    H3734929   5.196   7.803   6.694  0.1911 -0.4491 -0.3190
  287MOL    C3834930   5.001   7.894   6.744  0.2546 -1.2845 -0.1433
  287MOL    C3934931   5.040   8.033   6.798 -0.5796 -0.6032 -0.1335
  287MOL   Cl4034932   5.215   8.025   6.853 -0.0110  0.0738 -0.4956
  287MOL    H4134933   4.982   7.831   6.831  2.0608  0.5819  1.6356
  287MOL    H4234934   4.906   7.899   6.691 -0.2360 -1.3456  0.7205
  287MOL    H4334935   5.040   8.113   6.723 -0.9579 -0.0459  0.4549
  287MOL    C4434936   4.955   8.096   6.913  0.4660 -0.5229 -0.5684
  287MOL    C4534937   4.807   8.133   6.875  0.4225  0.2680 -0.3823
  287MOL   Cl4634938   4.819   8.298   6.802 -0.1379  0.3962 -0.3204
  287MOL    H4734939   5.014   8.176   6.958  0.8449 -0.7537 -0.6609
  287MOL    H4834940   4.949   8.018   6.989 -0.7781 -0.6991 -0.8321
  287MOL    H4934941   4.772   8.072   6.792 -2.8807  0.6387  0.6611
  287MOL    C5034942   4.710   8.114   6.983  0.6912  0.3835 -0.4960
  287MOL    C5134943   4.692   8.218   7.092 -0.2265  0.0272 -0.0119
  287MOL   Cl5234944   4.843   8.263   7.176 -0.1804  0.0917 -0.6553
  287MOL    H5334945   4.722   8.010   7.013  0.7146 -0.0741 -2.0851
  287MOL    H5434946   4.607   8.112   6.946 -0.7187  2.5893  2.9865
  287MOL    H5534947   4.651   8.305   7.042 -0.6580 -0.2561 -0.1558
  287MOL    C5634948   4.596   8.161   7.200 -0.5710  0.1457  0.0562
  287MOL    C5734949   4.538   8.266   7.291  0.1720 -0.2949  0.2838
  287MOL   Cl5834950   4.448   8.187   7.423  0.0621 -0.2646 -0.5562
  287MOL    H5934951   4.654   8.090   7.258 -0.5621 -0.0694 -0.2151
  287MOL    H6034952   4.514   8.114   7.146 -0.2456  1.8391 -1.9829
  287MOL    H6134953   4.611   8.330   7.341 -0.5988  0.7342  0.1051
  287MOL    C6234954   4.447   8.367   7.212 -0.5722 -0.0352  0.5023
  287MOL    C6334955   4.314   8.300   7.158  0.3783 -0.2985  0.6184
  287MOL   Cl6434956   4.328   8.242   6.989  0.0153 -0.0035  0.4297
  287MOL    H6534957   4.491   8.416   7.125 -0.6362 -0.6473  0.1216
  287MOL    H6634958   4.422   8.443   7.286  0.1516 -0.5109  1.2479
  287MOL    H6734959   4.279   8.210   7.209 -2.5187 -0.6189 -1.8075
  287MOL    C6834960   4.199   8.401   7.157 -0.8993  0.2633 -0.1986
  287MOL    C6934961   4.055   8.348   7.120 -0.6200 -0.1280 -0.4532
  287MOL   Cl7034962   3.941   8.490   7.134  0.8506  0.2918 -0.0126
  287MOL    H7134963   4.232   8.475   7.085 -0.6892  0.7023  0.3403
  287MOL    H7234964   4.196   8.456   7.251  1.6085  0.3636 -0.1345
  287MOL    H7334965   4.059   8.316   7.016  0.4012  0.5007 -0.6161
  287MOL    C7434966   3.984   8.231   7.196  0.0406  0.2842 -0.2070
  287MOL    C7534967   3.927   8.245   7.339  0.4813 -0.2351  0.2109
  287MOL   Cl7634968   4.045   8.307   7.455 -0.2159 -0.1479  0.0858
  287MOL    H7734969   4.049   8.143   7.203  0.4417  0.6950  1.6753
  287MOL    H7834970   3.903   8.192   7.135 -0.4682 -1.6707  1.6912
  287MOL    H7934971   3.851   8.322   7.329  0.0456 -0.8844 -1.7323
  287MOL    C8034972   3.867   8.108   7.393  1.1692 -0.4601 -0.0912
  287MOL    C8134973   3.766   8.111   7.505  0.7098  0.3125 -0.3849
  287MOL   Cl8234974   3.621   8.180   7.429  0.0324  0.5565  0.3390
  287MOL    H8334975   3.954   8.047   7.419  1.9011  0.2496 -0.8302
  287MOL    H8434976   3.825   8.056   7.308 -2.4346 -1.1898  2.0301
  287MOL    H8534977   3.747   8.006   7.529 -0.0975  0.3138 -0.9718
  287MOL    C8634978   3.794   8.169   7.644  0.3860 -0.1635  0.1725
  287MOL    C8734979   3.918   8.103   7.710 -0.5650 -1.1333 -0.6830
  287MOL   Cl8834980   3.880   7.936   7.763 -0.2294  0.0112  0.0489
  287MOL    H8934981   3.701   8.155   7.701  0.1318  2.0763  0.3548
  287MOL    H9034982   3.806   8.277   7.638  2.4317 -0.4017 -0.0973
  287MOL    H9134983   3.988   8.093   7.628 -0.4990 -0.3005 -0.7305
  287MOL    C9234984   3.985   8.189   7.820 -0.0453 -0.9112 -0.7251
  287MOL    C9334985   4.112   8.135   7.881  0.1593  0.1627 -0.0058
  287MOL   Cl9434986   4.134   8.206   8.041 -0.5707  0.0779 -0.1008
  287MOL    H9534987   3.916   8.205   7.902 -0.7451  0.2188 -1.5200
  287MOL    H9634988   4.011   8.285   7.775  0.0305 -0.2497  0.7228
  287MOL    H9734989   4.102   8.026   7.888 -1.3143  0.2807 -0.0393
  287MOL    C9834990   4.237   8.164   7.789  1.0624  0.2660 -0.1968
  287MOL    C9934991   4.354   8.076   7.831 -0.0634 -0.7415 -0.1790
  287MOL  Cl10034992   4.507   8.142   7.773  0.1079  0.1093  0.0825
  287MOL   H10134993   4.253   8.272   7.788 -1.9473  0.8004  1.8881
  287MOL   H10234994   4.209   8.136   7.687 -0.4553  1.5060 -0.1501
  287MOL   H10334995   4.360   8.069   7.940  0.9239  0.1280 -0.1716
  287MOL   C10434996   4.353   7.929   7.785 -0.7070  0.3901 -0.2957
  287MOL   C10534997   4.368   7.893   7.634  0.2692  0.2103 -0.2303
  287MOL  Cl10634998   4.213   7.929   7.544  0.1656  0.1513 -0.3407
  287MOL   H10734999   4.277   7.877   7.843 -0.3768  1.8153  1.4635
  287MOL   H10835000   4.442   7.889   7.835 -1.3108 -0.9799 -0.2788
  287MOL   H10935001   4.441   7.963   7.592  0.5897 -0.1339 -0.2501
  287MOL   C11035002   4.404   7.744   7.609  0.2579 -0.8299 -0.5817
  287MOL   C11135003   4.389   7.694   7.464  0.2718 -1.6406 -0.5885
  287MOL  Cl11235004   4.416   7.519   7.445  0.0732  0.1982  0.1384
  287MOL   H11335005   4.326   7.690   7.662 -0.2132  1.2029  0.8740
  287MOL   H11435006   4.497   7.714   7.658 -0.0300  0.2960  0.6933
  287MOL   H11535007   4.284   7.698   7.438  0.1309 -1.7590 -0.0492
  287MOL   C11635008   4.476   7.767   7.359  0.7517  0.7628  0.9684
  287MOL   C11735009   4.628   7.759   7.404  0.1949 -0.9257  0.1575
  287MOL  Cl11835010   4.724   7.829   7.270 -0.0835 -0.2051 -0.1821
  287MOL   H11935011   4.447   7.870   7.338 -1.7014 -0.4185 -1.7474
  287MOL   H12035012   4.458   7.716   7.265 -1.6017 -1.4899  2.5857
  287MOL   H12135013   4.631   7.817   7.496  0.6814 -1.5488  0.5398
  287MOL   H12235014   4.655   7.654   7.419  0.3488 -0.8451  0.4437
  288MOL     C135015   0.131   1.547   1.997 -0.0003 -0.3626  0.3660
  288MOL     C235016   0.279   1.579   1.983 -0.0651 -0.4032 -0.2834
  288MOL    Cl335017   0.359   1.437   1.912  0.2099 -0.2129 -0.0526
  288MOL     H435018   0.080   1.517   1.905  1.0042 -2.3847  0.4488
  288MOL     H535019   0.118   1.465   2.067 -1.2032 -0.7689 -0.3285
  288MOL     H635020   0.294   1.663   1.915  1.4926 -0.9995 -0.7100
  288MOL     H735021   0.088   1.638   2.037  2.5941  0.9762  0.2562
  288MOL     C835022   0.342   1.614   2.122  0.4587 -0.2663 -0.5620
  288MOL     C935023   0.493   1.634   2.121 -0.8204 -0.0622 -0.0386
  288MOL   Cl1035024   0.563   1.636   2.283  0.0850  0.0060 -0.2121
  288MOL    H1135025   0.324   1.528   2.187  0.9488 -0.5772 -0.8319
  288MOL    H1235026   0.284   1.697   2.159  3.4514  1.8747 -0.4606
  288MOL    H1335027   0.539   1.549   2.071  1.0454  1.7744 -1.5321
  288MOL    C1435028   0.532   1.767   2.045 -0.7321  0.6229  0.0257
  288MOL    C1535029   0.677   1.804   2.024 -0.2302  0.5607  0.7802
  288MOL   Cl1635030   0.708   1.973   1.973  0.1942  0.4217  0.0078
  288MOL    H1735031   0.480   1.845   2.100 -0.8878 -0.2123  1.0948
  288MOL    H1835032   0.485   1.772   1.947 -0.4930  2.0458 -0.0255
  288MOL    H1935033   0.730   1.791   2.118  3.3796  0.6576 -1.1472
  288MOL    C2035034   0.761   1.713   1.928 -0.0385  0.0390 -0.2977
  288MOL    C2135035   0.841   1.600   2.000  0.7668  0.2618 -0.1997
  288MOL   Cl2235036   0.987   1.666   2.072  0.4696 -0.4962 -0.0633
  288MOL    H2335037   0.834   1.775   1.875  0.8802 -1.3305 -0.6559
  288MOL    H2435038   0.706   1.669   1.844  3.5631 -1.9194 -1.7584
  288MOL    H2535039   0.784   1.560   2.083 -0.3217 -0.8066 -1.4292
  288MOL    C2635040   0.877   1.488   1.902 -0.8456 -0.8148  0.1463
  288MOL    C2735041   0.921   1.348   1.956 -0.8722  0.9960 -0.0976
  288MOL   Cl2835042   0.793   1.296   2.066 -0.1791  0.1320  0.0068
  288MOL    H2935043   0.959   1.526   1.841 -1.0844 -0.5503 -0.0121
  288MOL    H3035044   0.792   1.460   1.840 -1.0282 -1.5340  0.7106
  288MOL    H3135045   0.916   1.273   1.878  0.3445  0.5822  0.2078
  288MOL    C3235046   1.050   1.338   2.035  0.0430 -0.8407 -0.0131
  288MOL    C3335047   1.106   1.199   2.046 -1.0669 -0.0900 -0.0332
  288MOL   Cl3435048   1.228   1.198   2.170 -0.1003 -0.0298 -0.3508
  288MOL    H3535049   1.036   1.382   2.134 -0.0490  0.4059 -0.5824
  288MOL    H3635050   1.126   1.403   1.991 -0.1411  0.5421  1.6692
  288MOL    H3735051   1.027   1.136   2.086 -1.5464 -0.4978 -1.6009
  288MOL    C3835052   1.160   1.139   1.918  0.1771 -0.0065  0.7864
  288MOL    C3935053   1.174   0.984   1.911  0.0144 -0.6727  0.5037
  288MOL   Cl4035054   1.018   0.916   1.904 -0.1437  0.4383 -0.0162
  288MOL    H4135055   1.261   1.180   1.913  0.4781 -0.8964 -0.6618
  288MOL    H4235056   1.097   1.169   1.835  0.9699 -0.9672 -0.1787
  288MOL    H4335057   1.215   0.961   1.812 -2.2186 -2.5661 -0.0131
  288MOL    C4435058   1.261   0.919   2.023 -0.8404 -0.4391  0.3339
  288MOL    C4535059   1.405   0.964   2.036 -0.7202  0.2052  0.7586
  288MOL   Cl4635060   1.491   0.919   1.882 -0.5324  0.1140  0.7192
  288MOL    H4735061   1.261   0.814   1.992 -1.0247  0.2400 -2.0409
  288MOL    H4835062   1.206   0.927   2.117  1.5801  1.5386  1.6085
  288MOL    H4935063   1.420   1.072   2.049 -0.6357  0.2088  0.6295
  288MOL    C5035064   1.479   0.880   2.144  0.1998 -1.5002  0.2815
  288MOL    C5135065   1.618   0.926   2.179  1.0960  0.2886  0.6821
  288MOL   Cl5235066   1.711   0.782   2.238 -0.1932 -0.0711  0.3181
  288MOL    H5335067   1.482   0.779   2.102 -1.3534 -0.4985 -2.3563
  288MOL    H5435068   1.424   0.871   2.238 -0.9870 -2.2247 -0.4744
  288MOL    H5535069   1.668   0.966   2.091 -2.0963  1.7458 -0.5410
  288MOL    C5635070   1.624   1.043   2.283 -1.0911 -0.4133  0.0897
  288MOL    C5735071   1.770   1.096   2.293  0.1329  0.4272  0.4762
  288MOL   Cl5835072   1.790   1.204   2.430  0.1132 -0.0883  0.2067
  288MOL    H5935073   1.584   1.009   2.379  0.9051 -0.7021  0.8536
  288MOL    H6035074   1.564   1.129   2.253  0.4465  1.2517  1.6678
  288MOL    H6135075   1.841   1.014   2.300 -1.3594 -0.9420 -0.0655
  288MOL    C6235076   1.806   1.191   2.175  0.3635 -1.0063 -0.5797
  288MOL    C6335077   1.956   1.219   2.158 -0.4203 -0.1139  0.4544
  288MOL   Cl6435078   1.986   1.313   2.006  0.2496  0.1501  0.0580
  288MOL    H6535079   1.747   1.282   2.181 -0.8044 -1.8122  0.3937
  288MOL    H6635080   1.773   1.148   2.080  1.8055  0.3691 -1.7465
  288MOL    H6735081   2.000   1.279   2.238  2.1988 -1.3527  0.0009
  288MOL    C6835082   2.052   1.100   2.148 -0.0614  0.1647 -0.3101
  288MOL    C6935083   2.103   1.045   2.289  0.4677 -0.1971  0.5053
  288MOL   Cl7035084   2.223   1.164   2.348  0.0426  0.0438 -0.0730
  288MOL    H7135085   2.140   1.135   2.094  0.2966 -0.3215 -0.0461
  288MOL    H7235086   2.017   1.018   2.085  0.9323 -2.1880  2.0898
  288MOL    H7335087   2.031   1.036   2.371  0.9529  0.2407  0.9770
  288MOL    C7435088   2.182   0.918   2.285  0.2764 -0.2313 -0.0653
  288MOL    C7535089   2.092   0.789   2.281  0.7370  0.5226 -0.3513
  288MOL   Cl7635090   1.998   0.792   2.438  0.2423 -0.0078  0.1275
  288MOL    H7735091   2.247   0.914   2.372  0.2337  0.1896 -0.0156
  288MOL    H7835092   2.255   0.913   2.204  1.2749  1.6879  0.6965
  288MOL    H7935093   2.004   0.774   2.217 -1.0457 -0.2263  2.2077
  288MOL    C8035094   2.166   0.652   2.272  0.3750  0.1550 -0.4923
  288MOL    C8135095   2.250   0.620   2.152 -0.6153  0.0079  0.0671
  288MOL   Cl8235096   2.164   0.666   2.003  0.0996 -0.2353 -0.0191
  288MOL    H8335097   2.090   0.573   2.270  1.4089 -0.8637 -0.0686
  288MOL    H8435098   2.222   0.648   2.365 -2.4248  1.0594  1.2832
  288MOL    H8535099   2.335   0.688   2.153 -1.3759  0.9649 -0.1428
  288MOL    C8635100   2.285   0.468   2.131 -0.1489  0.0247 -0.6338
  288MOL    C8735101   2.389   0.417   2.234 -0.8751 -0.0942 -0.2124
  288MOL   Cl8835102   2.554   0.468   2.184  0.0057  0.0005 -0.0704
  288MOL    H8935103   2.306   0.437   2.029  1.1865  1.3174 -0.7525
  288MOL    H9035104   2.184   0.426   2.140  0.2795 -0.7667  0.6504
  288MOL    H9135105   2.372   0.482   2.320 -0.3168 -2.1213  1.4419
  288MOL    C9235106   2.383   0.273   2.271  0.0118  0.3841 -0.3810
  288MOL    C9335107   2.270   0.246   2.375 -0.8282 -0.5989  0.1512
  288MOL   Cl9435108   2.343   0.292   2.527  0.0124 -0.0409  0.3888
  288MOL    H9535109   2.476   0.252   2.322  1.5375  3.1996 -1.8777
  288MOL    H9635110   2.368   0.212   2.182 -0.5364 -0.6283  0.3847
  288MOL    H9735111   2.185   0.311   2.355  0.0544  0.9636  1.4474
  288MOL    C9835112   2.240   0.095   2.385 -0.0141 -0.0659 -0.0884
  288MOL    C9935113   2.153   0.037   2.269 -1.0335  0.1233 -0.1689
  288MOL  Cl10035114   1.984   0.098   2.271  0.3130  0.3061  0.4907
  288MOL   H10135115   2.190   0.068   2.478 -0.9696  1.6438 -0.0941
  288MOL   H10235116   2.336   0.043   2.390 -0.0496 -0.3548 -1.9576
  288MOL   H10335117   2.196   0.068   2.174 -0.6065  0.4997  0.1415
  288MOL   C10435118   2.151   8.407   2.269  0.8574  1.0726 -0.5696
  288MOL   C10535119   2.262   8.339   2.193  0.7567  0.1358  0.2963
  288MOL  Cl10635120   2.253   8.371   2.015 -0.0106  0.3033  0.0935
  288MOL   H10735121   2.055   8.384   2.222  0.1879  2.1906  0.2412
  288MOL   H10835122   2.146   8.376   2.373 -3.4371  0.0836 -0.9588
  288MOL   H10935123   2.357   8.367   2.237  0.4135 -0.8733  1.7431
  288MOL   C11035124   2.259   8.188   2.225 -0.2613 -0.8898  0.4437
  288MOL   C11135125   2.357   8.100   2.135  0.4628  0.4035 -0.0060
  288MOL  Cl11235126   2.333   7.932   2.165  0.0384 -0.3186 -0.1316
  288MOL   H11335127   2.157   8.153   2.209 -0.6968  0.5704 -0.0171
  288MOL   H11435128   2.274   8.166   2.331 -2.7420  0.8003  1.1917
  288MOL   H11535129   2.331   8.103   2.029 -2.0448 -1.3032  0.5147
  288MOL   C11635130   2.504   8.137   2.169 -0.6511  0.7410 -0.3681
  288MOL   C11735131   2.619   8.080   2.070 -0.0957  0.1717 -0.2526
  288MOL  Cl11835132   2.781   8.112   2.136 -0.3369 -0.1214 -0.0360
  288MOL   H11935133   2.524   8.110   2.273 -0.5410 -0.0990 -0.6042
  288MOL   H12035134   2.521   8.242   2.148 -0.7101  0.7580 -0.3294
  288MOL   H12135135   2.599   7.978   2.037  0.4673  0.6416 -2.1487
  288MOL   H12235136   2.618   8.129   1.972 -0.1550 -0.3832 -0.5349
  289MOL     C135137   2.785   5.592   8.158 -0.7322  0.3599 -0.5961
  289MOL     C235138   2.898   5.556   8.067  0.3947  0.0987 -0.3677
  289MOL    Cl335139   2.905   5.661   7.924 -0.1669 -0.2466 -0.0417
  289MOL     H435140   2.801   5.682   8.218  0.7522  0.2801 -0.8510
  289MOL     H535141   2.686   5.588   8.113 -1.2359  0.1463  0.5171
  289MOL     H635142   2.981   5.585   8.132 -0.4809  2.1289 -0.1378
  289MOL     H735143   2.775   5.509   8.229 -0.3017  0.5429 -0.3183
  289MOL     C835144   2.901   5.408   8.026  0.1483  0.4409  0.5387
  289MOL     C935145   3.001   5.332   8.112 -0.4174  0.0815 -0.2943
  289MOL   Cl1035146   3.172   5.402   8.101  0.1161 -0.0237 -0.0009
  289MOL    H1135147   2.939   5.398   7.925 -0.0318  0.5140  0.4631
  289MOL    H1235148   2.803   5.359   8.021  0.6307 -0.4059 -0.9515
  289MOL    H1335149   2.974   5.332   8.218  2.2867  0.0085  0.4170
  289MOL    C1435150   3.010   5.185   8.072 -0.1383  0.5241  0.3155
  289MOL    C1535151   2.975   5.074   8.178  0.2870 -0.3476 -0.3342
  289MOL   Cl1635152   3.060   5.097   8.333  0.2139 -0.2360 -0.0351
  289MOL    H1735153   3.116   5.181   8.045 -0.1100  1.8457  0.2005
  289MOL    H1835154   2.965   5.156   7.977 -1.5526 -1.3579  1.5254
  289MOL    H1935155   2.869   5.085   8.205 -0.1306  1.4641 -2.6090
  289MOL    C2035156   2.993   4.930   8.130 -0.5500  0.3455  0.2200
  289MOL    C2135157   2.955   4.812   8.228 -0.6014 -0.8297  0.5632
  289MOL   Cl2235158   2.992   4.654   8.166 -0.2589 -0.0657 -0.2667
  289MOL    H2335159   3.100   4.917   8.114 -0.2806  1.4782  1.0740
  289MOL    H2435160   2.946   4.929   8.032 -2.3287  1.1563  1.0436
  289MOL    H2535161   3.018   4.821   8.318  2.2243 -0.0305 -1.4173
  289MOL    C2635162   2.813   4.814   8.282 -0.3880 -0.0815 -0.0405
  289MOL    C2735163   2.788   4.712   8.390  0.9207  0.0451 -1.0404
  289MOL   Cl2835164   2.620   4.684   8.392 -0.0213 -0.1766  0.1636
  289MOL    H2935165   2.741   4.822   8.200 -1.1832  2.3759  0.8504
  289MOL    H3035166   2.795   4.913   8.325  2.5120 -0.1871  1.5583
  289MOL    H3135167   2.823   4.615   8.356 -1.5158 -1.6770  1.2173
  289MOL    C3235168   2.846   4.757   0.003  0.5875 -0.1944 -0.4045
  289MOL    C3335169   2.841   4.652   0.114 -0.6310 -0.3450 -0.1783
  289MOL   Cl3435170   2.673   4.629   0.176  0.0398  0.0437  0.0186
  289MOL    H3535171   2.786   4.840   0.040  1.9344 -0.4271  2.5128
  289MOL    H3635172   2.949   4.790   8.512  0.7043 -0.5646 -0.4114
  289MOL    H3735173   2.875   4.557   0.074  0.1676  0.1425 -0.6827
  289MOL    C3835174   2.943   4.691   0.233 -0.8124  0.7576  0.0465
  289MOL    C3935175   3.002   4.567   0.300 -0.1860  0.4093  0.1216
  289MOL   Cl4035176   2.881   4.487   0.405  0.1285 -0.0127 -0.1062
  289MOL    H4135177   2.914   4.761   0.311  0.9833  1.0532  0.4549
  289MOL    H4235178   3.026   4.744   0.187 -0.4035 -0.6130 -0.8369
  289MOL    H4335179   3.028   4.491   0.227 -2.7553 -0.3923 -0.0314
  289MOL    C4435180   3.131   4.598   0.386 -0.2471  0.4056  0.6159
  289MOL    C4535181   3.260   4.622   0.308  0.0309  0.2998 -0.0050
  289MOL   Cl4635182   3.304   4.472   0.227 -0.0308  0.0723 -0.2535
  289MOL    H4735183   3.145   4.511   0.450 -1.7567 -0.8814 -0.7442
  289MOL    H4835184   3.110   4.683   0.450  1.4803  1.6929 -0.4933
  289MOL    H4935185   3.238   4.691   0.227 -2.1887 -0.0231  0.2851
  289MOL    C5035186   3.373   4.684   0.393  0.0843  0.3857  0.5956
  289MOL    C5135187   3.365   4.822   0.455 -0.2972  0.0700 -0.1859
  289MOL   Cl5235188   3.336   4.941   0.319 -0.0235 -0.0632  0.2024
  289MOL    H5335189   3.461   4.684   0.328  0.0037 -0.8686  0.4822
  289MOL    H5435190   3.392   4.613   0.473 -0.3043  0.2764  0.5929
  289MOL    H5535191   3.278   4.832   0.520  0.1671  0.3712  0.3946
  289MOL    C5635192   3.502   4.855   0.514  0.7087  0.4013 -0.1975
  289MOL    C5735193   3.528   4.785   0.650 -0.4070 -0.8801 -0.0925
  289MOL   Cl5835194   3.412   4.865   0.758  0.1336 -0.0311  0.4809
  289MOL    H5935195   3.517   4.962   0.526  1.1815  0.2079  1.0553
  289MOL    H6035196   3.584   4.827   0.448  1.0723  0.1395  0.3602
  289MOL    H6135197   3.500   4.680   0.649 -0.9446 -0.7356 -0.3500
  289MOL    C6235198   3.670   4.798   0.702 -0.0552  0.7990  0.0309
  289MOL    C6335199   3.770   4.698   0.646 -0.2510  0.7961 -0.1754
  289MOL   Cl6435200   3.718   4.535   0.701 -0.0570 -0.0546  0.2411
  289MOL    H6535201   3.676   4.778   0.809 -2.3374  0.0470  0.0408
  289MOL    H6635202   3.706   4.901   0.706  2.9632 -0.1975 -0.1889
  289MOL    H6735203   3.751   4.695   0.539 -0.4860  0.3814 -0.1244
  289MOL    C6835204   3.916   4.726   0.690  0.0815  0.2821 -0.8114
  289MOL    C6935205   4.021   4.631   0.633  0.6349 -0.0336 -0.0560
  289MOL   Cl7035206   4.181   4.661   0.705  0.1228 -0.1814  0.4210
  289MOL    H7135207   3.902   4.720   0.798 -2.3115  2.3620 -0.9594
  289MOL    H7235208   3.949   4.827   0.669  0.0876  0.4530  0.0050
  289MOL    H7335209   3.998   4.527   0.656  0.2227  0.1798  0.4869
  289MOL    C7435210   4.036   4.648   0.485  0.1680  0.1798  0.0174
  289MOL    C7535211   4.131   4.539   0.422 -1.3812 -0.0690  0.0371
  289MOL   Cl7635212   4.178   4.599   0.272  0.1537  0.1527 -0.2426
  289MOL    H7735213   4.078   4.745   0.458  1.8871 -0.3775  0.5998
  289MOL    H7835214   3.938   4.648   0.438  0.5440 -0.9275 -0.7716
  289MOL    H7935215   4.222   4.517   0.477 -1.3948 -2.5690 -0.8760
  289MOL    C8035216   4.061   4.405   0.404 -0.2127  0.2921  0.0061
  289MOL    C8135217   4.154   4.304   0.349  0.0206  0.4037 -0.1034
  289MOL   Cl8235218   4.055   4.158   0.356  0.3427 -0.0298  0.1782
  289MOL    H8335219   3.971   4.418   0.343 -0.0944 -4.4323 -1.3124
  289MOL    H8435220   4.027   4.364   0.499 -2.0598 -3.8027 -2.3038
  289MOL    H8535221   4.167   4.313   0.242 -2.6474  1.5416 -0.3973
  289MOL    C8635222   4.294   4.274   0.409 -0.0196 -0.2916  0.3803
  289MOL    C8735223   4.379   4.186   0.312  0.5714  0.1596  0.0309
  289MOL   Cl8835224   4.455   4.058   0.412 -0.1524 -0.2284 -0.1639
  289MOL    H8935225   4.294   4.219   0.503  1.4334  1.5436  1.5037
  289MOL    H9035226   4.356   4.363   0.422 -0.6871  0.0034  1.5823
  289MOL    H9135227   4.302   4.128   0.261 -0.1163  2.8888 -2.1850
  289MOL    C9235228   4.475   4.262   0.218 -0.0414 -0.6365  0.3134
  289MOL    C9335229   4.556   4.174   0.111 -0.7477  0.0844  0.0887
  289MOL   Cl9435230   4.717   4.130   0.192  0.4881 -0.1195  0.4984
  289MOL    H9535231   4.549   4.315   0.279 -0.0571 -1.0418  0.6885
  289MOL    H9635232   4.409   4.324   0.158 -0.6716 -0.7684  0.8748
  289MOL    H9735233   4.502   4.080   0.099  0.6564 -1.1020  2.6785
  289MOL    C9835234   4.593   4.253   8.512  0.5917 -0.9559 -0.0213
  289MOL    C9935235   4.475   4.251   8.414 -0.3218 -0.6862 -1.0215
  289MOL  Cl10035236   4.465   4.082   8.343  0.0862  0.0130 -0.0082
  289MOL   H10135237   4.680   4.211   8.460  0.1275  0.5972 -2.1391
  289MOL   H10235238   4.620   4.355   0.011 -0.0214 -0.3397 -1.8208
  289MOL   H10335239   4.383   4.266   8.471 -0.1965  0.4667 -1.1068
  289MOL   C10435240   4.490   4.352   8.301  0.3526  1.1300 -0.3294
  289MOL   C10535241   4.477   4.500   8.337  0.1796 -0.1877 -0.3172
  289MOL  Cl10635242   4.310   4.518   8.393 -0.2131  0.3035  0.0278
  289MOL   H10735243   4.412   4.327   8.229 -2.5623 -0.0440  3.0328
  289MOL   H10835244   4.587   4.332   8.257  0.4323 -0.4755  0.5311
  289MOL   H10935245   4.546   4.520   8.419 -1.6225 -2.9143  1.9895
  289MOL   C11035246   4.485   4.592   8.211 -0.2025 -0.4598 -0.3878
  289MOL   C11135247   4.626   4.617   8.145 -0.2450 -0.0902  0.5861
  289MOL  Cl11235248   4.726   4.713   8.265  0.2849  0.2341  0.6340
  289MOL   H11335249   4.457   4.692   8.244  2.2817  0.3144 -0.5471
  289MOL   H11435250   4.417   4.553   8.135 -1.3000 -1.8475  1.2515
  289MOL   H11535251   4.675   4.525   8.114 -0.4637  0.3700 -1.1942
  289MOL   C11635252   4.611   4.707   8.021 -0.4489 -0.0069  0.2735
  289MOL   C11735253   4.737   4.739   7.941 -0.3376 -0.0375 -0.1890
  289MOL  Cl11835254   4.810   4.597   7.867 -0.3414  0.1522  0.0848
  289MOL   H11935255   4.562   4.799   8.051  0.8635  0.7543  0.1523
  289MOL   H12035256   4.549   4.652   7.951 -0.0963 -1.9311  1.4421
  289MOL   H12135257   4.709   4.803   7.857 -2.3718 -1.1071 -0.3558
  289MOL   H12235258   4.815   4.800   7.987 -1.4751  0.2899  1.3362
  290MOL     C135259   7.409   1.677   4.755  0.5531  0.0896  0.5584
  290MOL     C235260   7.501   1.633   4.638  0.1500 -0.4228  0.4863
  290MOL    Cl335261   7.666   1.662   4.692 -0.2949 -0.1397  0.0890
  290MOL     H435262   7.432   1.614   4.841  0.4761 -3.1520 -1.6928
  290MOL     H535263   7.415   1.781   4.786 -1.9864 -0.0706  1.7360
  290MOL     H635264   7.497   1.525   4.627 -1.3149 -0.3471  0.1300
  290MOL     H735265   7.308   1.659   4.720  0.4345  0.8993  0.4713
  290MOL     C835266   7.469   1.715   4.519  0.2299  0.2680 -0.3977
  290MOL     C935267   7.536   1.676   4.392 -0.7477 -0.1279 -0.4523
  290MOL   Cl1035268   7.506   1.800   4.272  0.3654 -0.2492  0.5127
  290MOL    H1135269   7.477   1.822   4.537  1.2851  0.1717 -0.2674
  290MOL    H1235270   7.362   1.697   4.507  0.2401  1.0529 -1.7253
  290MOL    H1335271   7.644   1.668   4.398 -0.7700  0.2391  0.4377
  290MOL    C1435272   7.481   1.541   4.341 -0.9184  0.1678 -0.3309
  290MOL    C1535273   7.572   1.437   4.280 -0.5327 -0.1782 -0.0494
  290MOL   Cl1635274   7.689   1.388   4.408  0.2454 -0.0475  0.0741
  290MOL    H1735275   7.391   1.565   4.284 -0.3573 -2.2101 -2.3347
  290MOL    H1835276   7.445   1.487   4.429  2.6367 -0.9222  0.5367
  290MOL    H1935277   7.509   1.348   4.275  2.3231 -2.2227 -1.5420
  290MOL    C2035278   7.643   1.476   4.150 -0.3114  0.3421 -0.4816
  290MOL    C2135279   7.542   1.470   4.035 -0.2780  0.1974 -0.1549
  290MOL   Cl2235280   7.496   1.299   4.024 -0.3585  0.3630  0.0567
  290MOL    H2335281   7.721   1.405   4.122 -0.5464 -0.3967  0.7007
  290MOL    H2435282   7.698   1.571   4.146 -0.7244  0.6551  0.9976
  290MOL    H2535283   7.457   1.526   4.075  0.3207 -0.3416  1.9340
  290MOL    C2635284   7.593   1.538   3.908 -0.7400 -0.5595  0.1597
  290MOL    C2735285   7.567   1.690   3.901  0.0160 -0.2179 -0.3705
  290MOL   Cl2835286   7.386   1.713   3.873 -0.1580 -0.0468  0.0271
  290MOL    H2935287   7.559   1.488   3.818  1.0347 -0.4034 -0.6186
  290MOL    H3035288   7.701   1.522   3.905 -0.8065 -0.7636 -1.2199
  290MOL    H3135289   7.591   1.731   3.999  1.6292 -0.8612 -0.4894
  290MOL    C3235290   7.650   1.769   3.794 -0.0676  0.1137 -0.9258
  290MOL    C3335291   7.645   1.700   3.657 -0.4299 -0.0328  0.0273
  290MOL   Cl3435292   7.757   1.558   3.651 -0.1879  0.1687  0.4310
  290MOL    H3535293   7.751   1.753   3.831 -1.4319 -2.3945  2.0356
  290MOL    H3635294   7.631   1.876   3.791  0.8860  0.2809 -1.0978
  290MOL    H3735295   7.549   1.654   3.633 -1.1742  1.0162  0.9310
  290MOL    C3835296   7.660   1.782   3.529 -0.0526 -0.0075  0.1674
  290MOL    C3935297   7.796   1.851   3.511  0.0642  0.4480 -0.7780
  290MOL   Cl4035298   7.775   2.018   3.577 -0.3715 -0.2335 -0.1825
  290MOL    H4135299   7.576   1.851   3.524  1.7628  2.0887 -2.6817
  290MOL    H4235300   7.637   1.715   3.447  1.8281 -1.1811  0.5630
  290MOL    H4335301   7.876   1.809   3.573 -0.1196  1.3939  0.1258
  290MOL    C4435302   7.842   1.858   3.362  0.9831  0.1497  0.3777
  290MOL    C4535303   7.977   1.926   3.329  0.3539  0.1467 -0.0299
  290MOL   Cl4635304   8.002   1.883   3.154  0.2043  0.1309 -0.3956
  290MOL    H4735305   7.765   1.908   3.304  0.7484 -0.9865 -0.2956
  290MOL    H4835306   7.859   1.756   3.329 -0.1751 -0.2778  1.0745
  290MOL    H4935307   7.969   2.034   3.334 -0.8527 -0.0321  2.8892
  290MOL    C5035308   8.098   1.880   3.419  0.1238  0.2986 -0.2054
  290MOL    C5135309   8.242   1.933   3.377  0.7364 -0.0134 -0.1387
  290MOL   Cl5235310   8.370   1.886   3.493 -0.0208 -0.5671  0.3284
  290MOL    H5335311   8.112   1.772   3.414  3.0119  0.6899 -1.3582
  290MOL    H5435312   8.072   1.898   3.524  1.8079 -0.7845  0.4178
  290MOL    H5535313   8.280   1.892   3.284  0.9019  0.4209 -0.2616
  290MOL    C5635314   8.252   2.081   3.364  0.7391  0.6544  0.7789
  290MOL    C5735315   8.380   2.145   3.293  0.1179 -0.3090  0.0700
  290MOL   Cl5835316   8.412   2.309   3.352 -0.3523 -0.0128  0.5920
  290MOL    H5935317   8.247   2.129   3.462 -1.3125  0.1131  0.9547
  290MOL    H6035318   8.167   2.129   3.315  0.6866 -0.4317 -0.2041
  290MOL    H6135319   8.471   2.085   3.306  0.2694  0.2349  1.5685
  290MOL    C6235320   8.357   2.150   3.139 -0.1078  0.0846 -0.2190
  290MOL    C6335321   8.482   2.205   3.065  0.5215 -0.1135  0.7702
  290MOL   Cl6435322   8.451   2.204   2.889 -0.4021 -0.2916 -0.2220
  290MOL    H6535323   8.265   2.204   3.117 -0.5049 -1.1134 -1.5948
  290MOL    H6635324   8.328   2.054   3.098  0.9105 -0.3464  0.0522
  290MOL    H6735325   8.506   2.310   3.084 -0.0106  0.0988  0.2759
  290MOL    C6835326   0.090   2.125   3.077 -0.2046 -0.3209 -0.4284
  290MOL    C6935327   0.111   1.977   3.032  0.3198 -0.7830 -0.0245
  290MOL   Cl7035328   0.006   1.867   3.126 -0.0732  0.1205  0.0590
  290MOL    H7135329   0.124   2.132   3.180  3.6267 -2.7463 -1.4420
  290MOL    H7235330   0.159   2.189   3.022  0.1558  0.9555  1.4536
  290MOL    H7335331   0.087   1.967   2.926  1.4471  1.6667 -0.5458
  290MOL    C7435332   0.256   1.929   3.065  0.2110  0.1725  0.6188
  290MOL    C7535333   0.308   1.812   2.985 -0.2791  0.2118  0.9923
  290MOL   Cl7635334   0.432   1.733   3.086  0.3723 -0.0465  0.0014
  290MOL    H7735335   0.266   1.901   3.170 -0.3675 -0.9801  0.3801
  290MOL    H7835336   0.328   2.007   3.043  0.0354 -0.2735 -1.6262
  290MOL    H7935337   0.224   1.745   2.964 -0.8597  0.6474  1.9175
  290MOL    C8035338   0.374   1.845   2.846 -0.2793  0.0102 -0.2617
  290MOL    C8135339   0.291   1.894   2.726 -0.2948  0.5454  0.1666
  290MOL   Cl8235340   0.383   1.849   2.584 -0.3094  0.1372  0.1316
  290MOL    H8335341   0.428   1.758   2.809  1.6239  0.8742  0.4349
  290MOL    H8435342   0.452   1.917   2.869 -0.1452 -0.0420 -0.5520
  290MOL    H8535343   0.191   1.852   2.726  0.2862 -0.9001  0.7289
  290MOL    C8635344   0.268   2.051   2.720  0.1749 -0.1169  1.1621
  290MOL    C8735345   0.185   2.104   2.604 -0.7566  0.7439  0.0930
  290MOL   Cl8835346   0.189   2.280   2.620 -0.2334  0.1409  0.2070
  290MOL    H8935347   0.364   2.104   2.718  1.1702 -1.9037 -0.6841
  290MOL    H9035348   0.225   2.080   2.816 -0.8404 -1.1246  1.0135
  290MOL    H9135349   0.238   2.071   2.515 -0.0296  0.8434  0.4755
  290MOL    C9235350   0.036   2.059   2.602  0.6016  0.0095 -0.1676
  290MOL    C9335351   8.509   2.034   2.459 -0.0220  0.0171  0.1480
  290MOL   Cl9435352   8.330   2.037   2.453 -0.3896  0.2791  0.2774
  290MOL    H9535353   8.507   2.138   2.653  3.7095  1.7758  0.5593
  290MOL    H9635354   0.015   1.975   2.669  1.5702 -0.8628 -0.9317
  290MOL    H9735355   0.016   2.117   2.396 -1.4949  0.7513  0.3209
  290MOL    C9835356   0.036   1.912   2.390  0.1629  0.6410 -0.0544
  290MOL    C9935357   0.028   1.905   2.226 -0.5298 -0.0799 -0.6885
  290MOL  Cl10035358   0.119   2.034   2.147 -0.2251 -0.3796  0.0083
  290MOL   H10135359   8.525   1.821   2.437  0.7415  1.1209  1.3523
  290MOL   H10235360   0.143   1.902   2.410 -0.1906  1.1395  2.1737
  290MOL   H10335361   0.072   1.813   2.188 -0.4832  0.0339 -0.9169
  290MOL   C10435362   8.411   1.914   2.165  0.1887 -0.8232 -0.4669
  290MOL   C10535363   8.312   1.804   2.202 -1.2767 -0.0969 -0.3597
  290MOL  Cl10635364   8.380   1.649   2.164  0.1020  0.1091  0.2491
  290MOL   H10735365   8.429   1.920   2.058  0.9821 -0.8254 -0.3319
  290MOL   H10835366   8.369   2.010   2.198 -3.4350 -3.5012  3.4234
  290MOL   H10935367   8.282   1.796   2.306 -1.5184 -2.4238 -0.5790
  290MOL   C11035368   8.188   1.827   2.116 -0.3566  0.6748  0.0205
  290MOL   C11135369   8.091   1.930   2.179  0.1258  0.1580 -0.6690
  290MOL  Cl11235370   8.050   1.866   2.340  0.1761 -0.0279  0.1588
  290MOL   H11335371   8.137   1.733   2.094 -2.1351  1.5423  0.4147
  290MOL   H11435372   8.210   1.858   2.014  0.2208 -2.3991 -0.8567
  290MOL   H11535373   8.147   2.021   2.201 -1.5125  0.7090  1.3704
  290MOL   C11635374   7.967   1.964   2.099 -0.2356  0.5130 -0.8411
  290MOL   C11735375   7.887   2.085   2.148 -0.3324  0.4425  0.4715
  290MOL  Cl11835376   7.758   2.123   2.028  0.4372 -0.1927 -0.1058
  290MOL   H11935377   7.896   1.883   2.118  1.5031 -0.4151  1.9700
  290MOL   H12035378   7.986   1.964   1.992  1.9519 -0.9385 -0.4835
  290MOL   H12135379   7.835   2.055   2.239  1.4947 -0.5938  1.1742
  290MOL   H12235380   7.951   2.173   2.156  0.6019 -0.3796  2.1783
  291MOL     C135381   0.046   1.862   1.689 -0.2390 -0.1933  0.5034
  291MOL     C235382   0.159   1.966   1.668 -0.1122 -0.2711 -0.2784
  291MOL    Cl335383   0.284   1.904   1.782  0.0029 -0.5174  0.1233
  291MOL     H435384   8.521   1.872   1.784 -2.2054  1.2439 -0.6511
  291MOL     H535385   8.488   1.879   1.621  0.5891  0.3317 -0.3985
  291MOL     H635386   0.201   1.957   1.568 -0.1668 -0.4084 -0.2887
  291MOL     H735387   0.070   1.756   1.677 -1.0153 -0.3609  0.4067
  291MOL     C835388   0.112   2.110   1.704  0.7470  0.5345  0.1384
  291MOL     C935389   8.514   2.165   1.632  0.0864 -0.1366  0.5887
  291MOL   Cl1035390   0.002   2.147   1.454 -0.1058  0.1285 -0.1670
  291MOL    H1135391   0.196   2.176   1.683  0.4200  1.5274  1.8871
  291MOL    H1235392   0.095   2.107   1.811 -0.4191 -0.0254 -0.0502
  291MOL    H1335393   8.426   2.105   1.660  0.0473 -0.0689  0.6081
  291MOL    C1435394   8.495   2.315   1.671 -0.2082 -1.1671 -1.1057
  291MOL    C1535395   8.494   2.341   1.820  0.0432  0.1606  0.1679
  291MOL   Cl1635396   8.364   2.238   1.891  0.3097  0.1460 -0.1602
  291MOL    H1735397   8.406   2.357   1.624  0.4933 -0.7966 -2.1202
  291MOL    H1835398   0.055   2.363   1.622 -0.3453 -0.3206 -0.5184
  291MOL    H1935399   0.063   2.319   1.871  0.1326 -0.5976 -0.3076
  291MOL    C2035400   8.458   2.487   1.846 -0.3844 -0.3248  0.2197
  291MOL    C2135401   8.444   2.513   1.993  0.4208  0.3090 -0.0207
  291MOL   Cl2235402   8.322   2.632   2.020 -0.2466  0.1505 -0.0802
  291MOL    H2335403   8.370   2.516   1.789  0.2827  0.1730 -0.5697
  291MOL    H2435404   0.025   2.534   1.812 -0.7586 -0.1317 -0.5247
  291MOL    H2535405   8.392   2.427   2.035 -0.9289  1.3982  0.5614
  291MOL    C2635406   0.045   2.531   2.079 -0.0739  0.0237  0.3572
  291MOL    C2735407   0.014   2.547   2.233 -0.7317 -0.1960  0.5226
  291MOL   Cl2835408   0.155   2.623   2.307  0.0586 -0.3738 -0.0293
  291MOL    H2935409   0.102   2.618   2.048  0.3286 -0.3303  0.1035
  291MOL    H3035410   0.112   2.445   2.075 -0.4370 -0.2480  0.1027
  291MOL    H3135411   8.463   2.624   2.244  1.0673  2.0229 -1.7194
  291MOL    C3235412   8.503   2.406   2.296  0.7927 -0.0391  0.3494
  291MOL    C3335413   8.422   2.412   2.417  0.1811 -0.1543 -0.3951
  291MOL   Cl3435414   8.250   2.449   2.370  0.0739 -0.1220  0.0219
  291MOL    H3535415   0.067   2.352   2.328  0.2353 -1.2282 -0.0571
  291MOL    H3635416   8.438   2.343   2.235  0.0914 -0.4137  1.4807
  291MOL    H3735417   8.428   2.312   2.459  1.6622 -0.3484 -1.0397
  291MOL    C3835418   8.474   2.513   2.530 -0.2264  0.0850 -0.4170
  291MOL    C3935419   8.417   2.498   2.661  0.7155 -0.8665 -0.0776
  291MOL   Cl4035420   8.249   2.560   2.668  0.2968  0.2887  0.2512
  291MOL    H4135421   8.458   2.614   2.490  0.8070  0.8230  0.9818
  291MOL    H4235422   0.057   2.518   2.543 -0.3492  0.4753  0.4822
  291MOL    H4335423   8.412   2.392   2.687 -2.2625 -1.5943 -3.3169
  291MOL    C4435424   8.495   2.575   2.771  0.1268 -0.2777  0.2946
  291MOL    C4535425   8.494   2.728   2.774  0.3955  0.6731  0.1484
  291MOL   Cl4635426   0.072   2.803   2.652  0.4674  0.2015  0.1688
  291MOL    H4735427   0.073   2.539   2.766  0.0807 -0.5995  1.3696
  291MOL    H4835428   8.452   2.533   2.862 -3.5408  4.0103  0.6658
  291MOL    H4935429   8.395   2.771   2.760 -0.8399 -1.9555  0.5355
  291MOL    C5035430   0.007   2.776   2.915  0.4360  0.4917 -0.1174
  291MOL    C5135431   0.021   2.934   2.936 -0.7242  0.2906 -0.0756
  291MOL   Cl5235432   0.201   2.969   2.918  0.1129 -0.1746  0.1569
  291MOL    H5335433   0.100   2.730   2.949 -0.0259  1.2742  2.2835
  291MOL    H5435434   8.453   2.734   2.977  0.2029 -0.1790 -0.8608
  291MOL    H5535435   8.497   2.989   2.855 -0.8386  0.4454  0.0996
  291MOL    C5635436   8.511   2.974   3.076  0.4214  0.5044  0.0860
  291MOL    C5735437   8.492   3.126   3.103  0.1403 -0.6225 -0.1205
  291MOL   Cl5835438   8.480   3.143   3.278 -0.5417 -0.2526 -0.2183
  291MOL    H5935439   0.056   2.929   3.147  0.8998  1.0671 -0.0318
  291MOL    H6035440   8.417   2.936   3.115  1.5057 -3.1130 -0.6253
  291MOL    H6135441   0.063   3.170   3.077 -0.5868 -0.3414 -2.3705
  291MOL    C6235442   8.370   3.193   3.033 -0.1987 -0.3621  0.5557
  291MOL    C6335443   8.380   3.341   3.011  0.4231  0.0686  0.0775
  291MOL   Cl6435444   8.214   3.397   2.949 -0.1635 -0.0313 -0.1846
  291MOL    H6535445   8.280   3.172   3.090 -1.7176  1.5400 -1.0823
  291MOL    H6635446   8.355   3.144   2.937 -1.8910  2.1711 -0.5029
  291MOL    H6735447   8.401   3.392   3.106  0.1652 -0.8555  0.6374
  291MOL    C6835448   8.484   3.381   2.905 -0.5375  0.5622 -0.2621
  291MOL    C6935449   0.007   3.527   2.929 -0.4165 -0.3012 -0.3614
  291MOL   Cl7035450   8.401   3.642   2.896  0.0827  0.3860  0.5522
  291MOL    H7135451   8.438   3.373   2.806  0.7439 -2.0822 -0.6921
  291MOL    H7235452   0.038   3.307   2.896 -2.1294 -1.3401  0.7372
  291MOL    H7335453   0.031   3.540   3.034 -0.8103  3.3414 -0.6560
  291MOL    C7435454   0.135   3.566   2.844 -0.0139  0.2344  0.3066
  291MOL    C7535455   0.258   3.489   2.870 -0.4716 -0.3627  0.5183
  291MOL   Cl7635456   0.341   3.541   3.024  0.1514 -0.0922 -0.2190
  291MOL    H7735457   0.162   3.667   2.874  1.0728  0.6132 -1.8343
  291MOL    H7835458   0.114   3.569   2.737  1.6510  0.3642 -0.0403
  291MOL    H7935459   0.239   3.381   2.873 -0.0559 -0.4474  0.1590
  291MOL    C8035460   0.359   3.502   2.749  0.4926  0.6634 -0.3402
  291MOL    C8135461   0.477   3.403   2.758  0.3450 -0.3960  0.0514
  291MOL   Cl8235462   0.606   3.446   2.642 -0.1257  0.2069 -0.1079
  291MOL    H8335463   0.396   3.605   2.749  0.5629  0.6382 -1.5497
  291MOL    H8435464   0.303   3.506   2.656  1.1012  2.1168 -0.6591
  291MOL    H8535465   0.526   3.416   2.855  3.0665 -0.3148 -1.2837
  291MOL    C8635466   0.453   3.252   2.737  0.2117  0.1051 -0.2728
  291MOL    C8735467   0.574   3.158   2.770  0.3242 -0.6742  0.1768
  291MOL   Cl8835468   0.568   3.014   2.672 -0.0873 -0.0332 -0.3156
  291MOL    H8935469   0.424   3.235   2.633  1.4969  1.5801 -0.8888
  291MOL    H9035470   0.364   3.217   2.789  0.0588 -0.1972 -0.7325
  291MOL    H9135471   0.667   3.213   2.752 -1.2546  1.4749 -1.6883
  291MOL    C9235472   0.592   3.111   2.917  0.3039 -0.1652 -0.0011
  291MOL    C9335473   0.596   3.227   3.020 -0.7551 -0.2300  0.1840
  291MOL   Cl9435474   0.740   3.331   3.012 -0.0652 -0.2229  0.2313
  291MOL    H9535475   0.686   3.058   2.926  0.0001 -0.7017  0.0707
  291MOL    H9635476   0.514   3.037   2.939 -0.9477  1.2653  0.5017
  291MOL    H9735477   0.516   3.301   3.025 -0.0090  0.4718  2.0886
  291MOL    C9835478   0.604   3.175   3.164 -0.0522 -0.6674 -0.3486
  291MOL    C9935479   0.486   3.098   3.224 -0.0449 -0.3005 -0.0849
  291MOL  Cl10035480   0.332   3.200   3.223  0.4064  0.6360 -0.1106
  291MOL   H10135481   0.630   3.264   3.221  1.3861 -0.6994 -0.9302
  291MOL   H10235482   0.700   3.123   3.167 -0.2572 -1.0385 -0.2185
  291MOL   H10335483   0.467   3.013   3.158 -1.2476  1.4939 -2.1160
  291MOL   C10435484   0.525   3.049   3.364  0.5422 -0.2726  0.4670
  291MOL   C10535485   0.640   2.941   3.361 -0.6227 -0.3485 -0.1446
  291MOL  Cl10635486   0.575   2.795   3.272  0.3337 -0.3071  0.1226
  291MOL   H10735487   0.431   3.017   3.408  0.4910  1.7196  1.8497
  291MOL   H10835488   0.551   3.140   3.418  0.8289 -0.0492 -0.0400
  291MOL   H10935489   0.727   2.959   3.298 -0.9644  0.5098 -0.3759
  291MOL   C11035490   0.698   2.894   3.495 -0.3812  0.3976  0.5919
  291MOL   C11135491   0.824   2.786   3.496  0.6003 -0.2760 -0.5177
  291MOL  Cl11235492   0.945   2.838   3.376  0.1536  0.0732 -0.0043
  291MOL   H11335493   0.621   2.864   3.565  0.3028 -0.6571  0.9039
  291MOL   H11435494   0.742   2.987   3.532 -0.9703  1.3607 -1.0688
  291MOL   H11535495   0.882   2.793   3.588  0.7341 -0.8435 -0.5583
  291MOL   C11635496   0.802   2.639   3.475 -0.0627  0.8409 -0.5639
  291MOL   C11735497   0.729   2.567   3.593 -0.2999 -0.1873  0.2744
  291MOL  Cl11835498   0.715   2.393   3.558 -0.2089  0.0844  0.4876
  291MOL   H11935499   0.898   2.588   3.475  0.3447  1.6011 -0.3173
  291MOL   H12035500   0.755   2.619   3.378  0.1567  0.1055 -0.5244
  291MOL   H12135501   0.788   2.570   3.685 -0.7238 -0.2274  0.5529
  291MOL   H12235502   0.627   2.605   3.605 -0.2252 -0.4291  1.8510
  292MOL     C135503   7.995   4.061   3.447  0.0833  0.7745  0.2090
  292MOL     C235504   8.096   4.162   3.391  0.3432  0.4131 -0.4264
  292MOL    Cl335505   8.248   4.114   3.459  0.1359  0.2497 -0.0227
  292MOL     H435506   7.969   4.064   3.553 -1.1558 -0.2615 -0.0458
  292MOL     H535507   7.900   4.058   3.392  0.9322 -1.3945 -1.2201
  292MOL     H635508   8.103   4.156   3.282 -0.6172  0.8891 -0.5207
  292MOL     H735509   8.043   3.964   3.434 -0.6363  0.3610  0.5934
  292MOL     C835510   8.073   4.302   3.441 -0.5459 -0.0489 -0.1308
  292MOL     C935511   7.940   4.368   3.413 -0.2678  0.4247 -0.2470
  292MOL   Cl1035512   7.911   4.370   3.235 -0.2154  0.0298  0.0774
  292MOL    H1135513   8.152   4.363   3.398  0.0968 -0.8030 -0.0336
  292MOL    H1235514   8.098   4.307   3.547  3.3446  1.1984 -1.0219
  292MOL    H1335515   7.852   4.322   3.457 -0.9980 -0.5531 -2.6132
  292MOL    C1435516   7.928   4.515   3.458  0.5478  0.6880 -0.1289
  292MOL    C1535517   7.910   4.532   3.613 -0.1063 -0.9880 -0.2456
  292MOL   Cl1635518   7.750   4.481   3.656 -0.1306 -0.0616  0.0555
  292MOL    H1735519   7.849   4.566   3.403 -0.2907  1.5629  1.8072
  292MOL    H1835520   8.019   4.569   3.431  0.1296  1.5905  0.2332
  292MOL    H1935521   7.967   4.459   3.672  1.0754 -0.3833 -0.6161
  292MOL    C2035522   7.937   4.674   3.662  0.8874 -0.2935 -0.1655
  292MOL    C2135523   7.933   4.699   3.815  0.3312 -0.0589 -0.4599
  292MOL   Cl2235524   7.897   4.864   3.854 -0.1400  0.0073  0.0669
  292MOL    H2335525   7.868   4.745   3.616 -0.5754 -0.4942  1.6733
  292MOL    H2435526   8.035   4.705   3.624  0.2520  2.8483  0.6042
  292MOL    H2535527   7.848   4.646   3.858  1.1086 -0.5891  0.4239
  292MOL    C2635528   8.046   4.645   3.894  0.4057 -0.7685  0.1812
  292MOL    C2735529   8.050   4.673   4.044  0.1587  0.4444  0.3265
  292MOL   Cl2835530   8.215   4.651   4.105 -0.1189 -0.3424 -0.3884
  292MOL    H2935531   8.133   4.695   3.850  0.3482 -1.1791 -0.4042
  292MOL    H3035532   8.061   4.538   3.879 -1.4110 -1.2603  1.8178
  292MOL    H3135533   8.022   4.775   4.071 -1.0200  0.1117  0.3925
  292MOL    C3235534   7.965   4.573   4.128 -0.1012  0.0134 -0.0191
  292MOL    C3335535   7.934   4.606   4.278  0.6107 -0.6517  0.3327
  292MOL   Cl3435536   7.875   4.457   4.347  0.0340  0.3730 -0.2557
  292MOL    H3535537   8.027   4.484   4.142  0.4542  0.6483  1.7435
  292MOL    H3635538   7.878   4.537   4.072 -0.4822  0.4306  0.3014
  292MOL    H3735539   8.021   4.628   4.340 -0.4724  0.3173  1.5367
  292MOL    C3835540   7.829   4.719   4.301 -0.4348 -0.0332  0.1956
  292MOL    C3935541   7.806   4.745   4.444 -0.1681  0.1363 -0.4604
  292MOL   Cl4035542   7.672   4.871   4.448  0.3853  0.3672  0.0485
  292MOL    H4135543   7.739   4.691   4.246 -0.3896 -0.2926  0.2488
  292MOL    H4235544   7.861   4.814   4.259 -1.5721 -1.4410 -4.1481
  292MOL    H4335545   7.766   4.664   4.505 -0.8916  0.4172 -0.5600
  292MOL    C4435546   7.918   4.791   4.541 -0.0248 -0.6194 -0.6456
  292MOL    C4535547   7.972   4.939   4.520 -0.1706 -0.0673  0.7340
  292MOL   Cl4635548   8.071   4.946   4.370 -0.3456 -0.1915  0.1958
  292MOL    H4735549   8.001   4.720   4.542  0.4274 -0.1691 -3.0901
  292MOL    H4835550   7.886   4.778   4.645 -1.6066  1.8262 -0.7984
  292MOL    H4935551   7.886   5.001   4.494 -0.2115 -0.4626 -0.0842
  292MOL    C5035552   8.030   4.993   4.651 -0.0536  0.2226 -0.5997
  292MOL    C5135553   8.118   5.122   4.645  0.6052  0.1696 -0.1788
  292MOL   Cl5235554   8.008   5.249   4.580 -0.1953  0.0607 -0.2562
  292MOL    H5335555   8.104   4.924   4.692  1.9232  1.9667 -1.1374
  292MOL    H5435556   7.952   5.009   4.726 -0.0720 -3.4907  0.2556
  292MOL    H5535557   8.138   5.150   4.748 -2.0470 -0.5184  0.5639
  292MOL    C5635558   8.252   5.129   4.567 -0.2616 -0.0607  0.7381
  292MOL    C5735559   8.332   5.260   4.589 -0.8544  0.7073 -0.3561
  292MOL   Cl5835560   8.459   5.272   4.465 -0.2281 -0.0734 -0.0238
  292MOL    H5935561   8.241   5.134   4.459  1.8316 -0.5961  0.4810
  292MOL    H6035562   8.310   5.037   4.577 -1.0065 -0.3699  2.3207
  292MOL    H6135563   8.258   5.339   4.577 -0.6658  0.5639 -2.6494
  292MOL    C6235564   8.399   5.272   4.726 -0.5076  0.6103  0.2513
  292MOL    C6335565   8.426   5.418   4.769 -0.3670  0.3452  0.0099
  292MOL   Cl6435566   0.068   5.434   4.842  0.3355  0.0092 -0.3087
  292MOL    H6535567   8.496   5.221   4.721 -0.6676  0.2385  0.8555
  292MOL    H6635568   8.349   5.215   4.804 -0.8480  0.5530 -0.0098
  292MOL    H6735569   8.439   5.486   4.685 -0.2467 -1.4036 -1.4107
  292MOL    C6835570   8.328   5.472   4.874 -0.6297  0.2388  0.4353
  292MOL    C6935571   8.175   5.480   4.848  0.5447 -0.5577 -0.6746
  292MOL   Cl7035572   8.143   5.578   4.702 -0.0568 -0.2876  0.2092
  292MOL    H7135573   8.355   5.572   4.909  0.0818  0.3815 -0.5008
  292MOL    H7235574   8.341   5.406   4.959  2.2283  0.0734 -0.0929
  292MOL    H7335575   8.139   5.380   4.826 -2.9170  0.5721 -0.4361
  292MOL    C7435576   8.094   5.541   4.965 -0.0836 -0.2149  0.5802
  292MOL    C7535577   8.107   5.452   5.097  0.2731 -0.3365  0.0951
  292MOL   Cl7635578   8.045   5.287   5.062  0.3281  0.2718  0.3378
  292MOL    H7735579   7.993   5.540   4.924 -0.3903 -1.4898  1.3372
  292MOL    H7835580   8.121   5.646   4.976  1.7737 -0.3897 -2.0894
  292MOL    H7935581   8.210   5.427   5.122 -0.6585 -0.9397  3.5465
  292MOL    C8035582   8.046   5.524   5.218  1.0283  0.3076  0.1389
  292MOL    C8135583   8.095   5.668   5.254 -0.1453 -0.7948 -0.2012
  292MOL   Cl8235584   8.007   5.800   5.173 -0.3973 -0.1760  0.3192
  292MOL    H8335585   8.068   5.464   5.306  0.1684 -0.8719 -0.4366
  292MOL    H8435586   7.940   5.525   5.192  0.2892 -0.9341  2.9473
  292MOL    H8535587   8.056   5.677   5.356 -0.1367 -1.7758 -0.1066
  292MOL    C8635588   8.239   5.699   5.240 -0.5820 -0.1332  0.5163
  292MOL    C8735589   8.335   5.639   5.347  0.5515  0.3134 -0.5045
  292MOL   Cl8835590   8.318   5.461   5.370 -0.5605  0.3915  0.0275
  292MOL    H8935591   8.235   5.808   5.242 -0.8535 -0.0829 -1.6061
  292MOL    H9035592   8.269   5.677   5.137 -1.5277  0.7265  0.0367
  292MOL    H9135593   8.434   5.652   5.303 -0.3604  0.4920 -2.5776
  292MOL    C9235594   8.334   5.716   5.480  0.7501  0.0695  0.3445
  292MOL    C9335595   8.420   5.643   5.584  0.0808  0.5520  0.3039
  292MOL   Cl9435596   8.377   5.725   5.729 -0.5631 -0.0214 -0.0769
  292MOL    H9535597   8.234   5.724   5.522  0.6817  3.8917 -0.3891
  292MOL    H9635598   8.365   5.819   5.466 -2.2722  0.8994 -0.5800
  292MOL    H9735599   8.381   5.543   5.602  2.7198 -0.6115 -0.2127
  292MOL    C9835600   0.046   5.658   5.553 -0.0815 -0.0689  0.1728
  292MOL    C9935601   0.128   5.567   5.643 -0.0977  0.1368  0.1183
  292MOL  Cl10035602   0.285   5.643   5.670  0.0453 -0.4068  0.0239
  292MOL   H10135603   0.070   5.763   5.566 -0.4072  0.2934 -2.0527
  292MOL   H10235604   0.072   5.637   5.450  1.4453 -1.1702  0.7712
  292MOL   H10335605   0.080   5.559   5.741  0.1601 -1.8450  0.0986
  292MOL   C10435606   0.136   5.425   5.577  0.8256  0.1147 -0.4626
  292MOL   C10535607   0.173   5.325   5.689  0.4414 -0.4283  0.1001
  292MOL  Cl10635608   0.047   5.323   5.813  0.0495 -0.1505 -0.5766
  292MOL   H10735609   0.203   5.422   5.492  0.6381  1.2396 -0.6506
  292MOL   H10835610   0.041   5.389   5.539  0.6941 -2.2292  1.9009
  292MOL   H10935611   0.160   5.231   5.635  0.3270 -0.3086 -0.0812
  292MOL   C11035612   0.313   5.318   5.749  0.0755 -0.4109  0.1240
  292MOL   C11135613   0.419   5.280   5.645  0.6026 -0.0705  0.4083
  292MOL  Cl11235614   0.395   5.119   5.576 -0.1949  0.0969  0.2604
  292MOL   H11335615   0.302   5.244   5.828  2.0575 -1.1334 -0.2320
  292MOL   H11435616   0.342   5.413   5.794 -2.5227  0.7735 -0.6120
  292MOL   H11535617   0.411   5.346   5.559 -1.1112 -0.2831  0.3904
  292MOL   C11635618   0.565   5.284   5.702 -0.4656  0.1378 -0.0236
  292MOL   C11735619   0.624   5.430   5.718  0.0050  0.7359  0.1940
  292MOL  Cl11835620   0.595   5.526   5.578  0.3573  0.0356  0.7758
  292MOL   H11935621   0.623   5.216   5.640 -0.3762  0.0421  0.1638
  292MOL   H12035622   0.566   5.230   5.797 -1.4287  0.9857  0.4881
  292MOL   H12135623   0.567   5.485   5.793 -2.4362 -2.4206  0.7724
  292MOL   H12235624   0.728   5.432   5.748  0.4380 -0.5006 -1.1555
  293MOL     C135625   1.689   2.397   7.469 -0.4168  0.3045  0.5769
  293MOL     C235626   1.617   2.404   7.333 -0.2788 -0.9918  1.1493
  293MOL    Cl335627   1.441   2.381   7.363  0.0151 -0.4988 -0.0372
  293MOL     H435628   1.684   2.300   7.519  3.6122  1.6477  3.8833
  293MOL     H535629   1.792   2.425   7.449 -0.0244  0.6584  2.8725
  293MOL     H635630   1.634   2.504   7.295 -2.2902 -1.8401 -2.1742
  293MOL     H735631   1.654   2.464   7.548  0.3874  1.1956  0.1889
  293MOL     C835632   1.672   2.298   7.233 -0.3835 -0.3522 -0.0122
  293MOL     C935633   1.653   2.340   7.082  0.5479  0.1242  0.4531
  293MOL   Cl1035634   1.727   2.507   7.058 -0.1410  0.0987  0.1139
  293MOL    H1135635   1.633   2.198   7.254  0.6216 -0.8159 -0.3432
  293MOL    H1235636   1.779   2.279   7.244 -0.4635 -0.7782  0.0624
  293MOL    H1335637   1.700   2.264   7.019 -2.1741 -0.7338 -0.6267
  293MOL    C1435638   1.511   2.347   7.027  0.6667  0.6799 -0.1168
  293MOL    C1535639   1.442   2.214   7.007 -0.0506 -0.2517 -0.5212
  293MOL   Cl1635640   1.535   2.127   6.884  0.5091  0.3383  0.2199
  293MOL    H1735641   1.511   2.405   6.935 -1.7043 -0.1910 -0.7104
  293MOL    H1835642   1.451   2.403   7.099  0.1997  1.8671 -1.4078
  293MOL    H1935643   1.443   2.157   7.100  0.7664 -0.7854 -0.8527
  293MOL    C2035644   1.294   2.220   6.962  0.4387  0.1469  0.1875
  293MOL    C2135645   1.232   2.082   6.944  0.1073 -0.3181  0.1478
  293MOL   Cl2235646   1.066   2.107   6.880 -0.0229 -0.5201  0.0471
  293MOL    H2335647   1.293   2.271   6.866 -0.8765  2.4286  1.3699
  293MOL    H2435648   1.233   2.282   7.028  0.5317  0.0950  0.3233
  293MOL    H2535649   1.275   2.029   6.859  1.3003  2.0101 -0.7442
  293MOL    C2635650   1.211   1.987   7.069  0.7279 -0.9341 -0.0518
  293MOL    C2735651   1.164   1.849   7.038 -0.5497  0.0398  0.2550
  293MOL   Cl2835652   1.110   1.768   7.180  0.4752  0.3823 -0.4517
  293MOL    H2935653   1.135   2.033   7.131 -0.7982 -2.6599 -0.6127
  293MOL    H3035654   1.298   1.981   7.134 -0.0977 -0.3509  1.1263
  293MOL    H3135655   1.087   1.847   6.961 -0.9285 -1.5386  0.6526
  293MOL    C3235656   1.287   1.769   6.970  0.0932  0.5352 -0.5223
  293MOL    C3335657   1.279   1.615   6.966 -0.3862 -0.0168  0.1648
  293MOL   Cl3435658   1.443   1.560   6.932  0.4103  0.4164 -0.0439
  293MOL    H3535659   1.375   1.785   7.033  0.3254  1.0582 -0.9796
  293MOL    H3635660   1.326   1.808   6.876  2.6806 -0.8652 -0.1105
  293MOL    H3735661   1.255   1.570   7.062  0.5133 -0.6329  0.0965
  293MOL    C3835662   1.173   1.564   6.857 -0.2879 -0.3387 -0.3817
  293MOL    C3935663   1.172   1.621   6.721  0.6931  0.2906 -0.4824
  293MOL   Cl4035664   1.083   1.781   6.702  0.1917 -0.3959  0.1132
  293MOL    H4135665   1.073   1.565   6.899 -0.0824  1.7970  0.1350
  293MOL    H4235666   1.190   1.456   6.859 -2.6911 -0.7620 -1.0222
  293MOL    H4335667   1.277   1.647   6.710  0.7361  0.7701  0.9141
  293MOL    C4435668   1.113   1.520   6.619  0.0666 -0.2177  0.3862
  293MOL    C4535669   1.126   1.566   6.476 -0.0767  0.1560  0.6884
  293MOL   Cl4635670   0.995   1.483   6.385  0.3923  0.3630 -0.0314
  293MOL    H4735671   1.008   1.511   6.647  0.4632 -2.1006  1.3341
  293MOL    H4835672   1.155   1.420   6.630  2.0713  0.4250 -1.1581
  293MOL    H4935673   1.104   1.671   6.456  0.3817 -0.2439 -2.2080
  293MOL    C5035674   1.259   1.519   6.415 -0.5002  0.0887 -0.1049
  293MOL    C5135675   1.278   1.563   6.265 -0.2213 -0.4773 -0.0506
  293MOL   Cl5235676   1.425   1.492   6.204 -0.1264 -0.1354 -0.1670
  293MOL    H5335677   1.267   1.410   6.425 -1.9896  0.1325  1.9185
  293MOL    H5435678   1.338   1.562   6.477  1.0201 -0.9223 -1.2844
  293MOL    H5535679   1.202   1.513   6.206 -0.6661  0.9907 -0.7412
  293MOL    C5635680   1.299   1.710   6.240  0.7032 -0.2411  0.1868
  293MOL    C5735681   1.296   1.761   6.094 -0.5904 -0.6851  0.2599
  293MOL   Cl5835682   1.335   1.928   6.107 -0.2104 -0.1633  0.1792
  293MOL    H5935683   1.397   1.732   6.283  0.4689 -2.5436  1.9948
  293MOL    H6035684   1.228   1.764   6.303  1.0647  0.7754 -0.2670
  293MOL    H6135685   1.383   1.719   6.044 -1.7181 -1.8690 -0.7635
  293MOL    C6235686   1.155   1.732   6.021  0.0956 -0.4547 -0.4352
  293MOL    C6335687   1.162   1.632   5.910  0.1015  0.3605 -0.7813
  293MOL   Cl6435688   1.252   1.690   5.765 -0.4352  0.3015 -0.0536
  293MOL    H6535689   1.121   1.829   5.983 -0.2339  0.1782  1.4355
  293MOL    H6635690   1.083   1.709   6.099 -2.5111  2.7321 -1.7932
  293MOL    H6735691   1.218   1.547   5.949  0.4831  2.5641  3.7464
  293MOL    C6835692   1.024   1.581   5.863  0.2534 -0.4986  0.2509
  293MOL    C6935693   0.918   1.531   5.966 -0.0439  0.1066 -0.2362
  293MOL   Cl7035694   0.981   1.383   6.048 -0.0268  0.2658  0.1472
  293MOL    H7135695   1.043   1.503   5.790  0.2929  2.3016 -2.8378
  293MOL    H7235696   0.983   1.669   5.813  0.8628  0.2196  1.0008
  293MOL    H7335697   0.904   1.614   6.035  1.6299  0.1674  0.0425
  293MOL    C7435698   0.789   1.499   5.896  0.2695  0.8460  0.5153
  293MOL    C7535699   0.674   1.430   5.976  0.3028 -0.3078  0.2267
  293MOL   Cl7635700   0.538   1.382   5.861  0.6510 -0.2683  0.0554
  293MOL    H7735701   0.804   1.429   5.814 -0.3973  0.6437  0.5659
  293MOL    H7835702   0.754   1.586   5.840 -0.4860 -1.8454 -3.3915
  293MOL    H7935703   0.705   1.333   6.014  0.2919 -0.8420 -1.0881
  293MOL    C8035704   0.615   1.510   6.094 -0.4156  0.0964 -0.4862
  293MOL    C8135705   0.494   1.450   6.180 -0.3515  1.1610 -0.0390
  293MOL   Cl8235706   0.453   1.585   6.286  0.4920 -0.1410 -0.1832
  293MOL    H8335707   0.578   1.604   6.055 -0.4281  0.2490 -0.1046
  293MOL    H8435708   0.691   1.548   6.163  1.5540 -1.7752 -1.5485
  293MOL    H8535709   0.410   1.437   6.111  1.3158  0.0852 -1.8890
  293MOL    C8635710   0.522   1.323   6.265  0.0055 -0.8949  0.1838
  293MOL    C8735711   0.635   1.333   6.365  0.6117 -0.1359  0.1016
  293MOL   Cl8835712   0.783   1.248   6.302  0.2289 -0.0817  0.0930
  293MOL    H8935713   0.553   1.242   6.199  1.8896  0.6503 -0.8750
  293MOL    H9035714   0.430   1.294   6.314  1.0368  0.6393  3.1682
  293MOL    H9135715   0.662   1.437   6.386  0.6712 -0.2204  0.4421
  293MOL    C9235716   0.589   1.257   6.489 -0.7269  0.4773  0.1572
  293MOL    C9335717   0.495   1.335   6.585  0.0175  0.4651 -0.2537
  293MOL   Cl9435718   0.587   1.373   6.731 -0.2671 -0.2192 -0.1512
  293MOL    H9535719   0.678   1.226   6.545 -0.2410  0.1577 -0.7839
  293MOL    H9635720   0.541   1.161   6.469 -1.5698  1.4413 -2.6069
  293MOL    H9735721   0.489   1.434   6.541 -0.8477  0.0127 -1.2030
  293MOL    C9835722   0.367   1.243   6.616 -0.1966 -0.0805  0.5318
  293MOL    C9935723   0.384   1.123   6.713  0.5197  0.1315  0.2827
  293MOL  Cl10035724   0.268   0.989   6.665  0.2059  0.2526  0.1823
  293MOL   H10135725   0.328   1.201   6.524  0.3159  1.7335 -0.5215
  293MOL   H10235726   0.286   1.307   6.650 -0.4646  0.1004 -0.4588
  293MOL   H10335727   0.484   1.091   6.685 -0.1099 -0.4713 -1.3392
  293MOL   C10435728   0.347   1.154   6.860  0.1066  0.1836 -0.2430
  293MOL   C10535729   0.371   1.047   6.961 -0.0421 -0.0685  0.1906
  293MOL  Cl10635730   0.364   1.138   7.122 -0.1097  0.2474 -0.5140
  293MOL   H10735731   0.240   1.171   6.872  0.2513  1.9952 -1.3599
  293MOL   H10835732   0.395   1.250   6.881 -0.2787  0.9144 -2.5384
  293MOL   H10935733   0.291   0.974   6.959  0.5839 -0.8629  2.2709
  293MOL   C11035734   0.510   0.977   6.946 -0.5969  0.2725 -0.6347
  293MOL   C11135735   0.544   0.886   7.064  0.0677 -0.3685  0.5493
  293MOL  Cl11235736   0.714   0.821   7.045  0.0923 -0.2903  0.0858
  293MOL   H11335737   0.596   1.043   6.940  0.2420 -0.8772 -1.5561
  293MOL   H11435738   0.513   0.915   6.856 -0.1015 -0.0988 -0.3601
  293MOL   H11535739   0.544   0.948   7.154 -2.5929 -1.0801  1.0819
  293MOL   C11635740   0.440   0.776   7.087 -0.0080  0.4418 -0.2038
  293MOL   C11735741   0.430   0.669   6.967  0.8536 -0.1828  0.0919
  293MOL  Cl11835742   0.291   0.555   6.987  0.1929  0.2010  0.3726
  293MOL   H11935743   0.343   0.825   7.097 -0.5266 -0.5217 -0.4395
  293MOL   H12035744   0.469   0.721   7.176  0.5475 -0.9540 -1.2365
  293MOL   H12135745   0.425   0.720   6.870  1.6819  1.7033  0.9999
  293MOL   H12235746   0.518   0.607   6.953  0.9969 -0.8364  3.3964
  294MOL     C135747   3.954   1.583   5.130  0.2428 -0.1945  0.2885
  294MOL     C235748   3.872   1.464   5.108 -1.2077  0.8109  0.4246
  294MOL    Cl335749   3.937   1.331   5.199  0.1184  0.1359  0.0386
  294MOL     H435750   4.050   1.581   5.078  0.8133 -0.3946  1.3365
  294MOL     H535751   3.903   1.671   5.092 -0.0228 -0.2341  0.5519
  294MOL     H635752   3.772   1.476   5.151 -1.8414  1.9785 -1.3028
  294MOL     H735753   3.979   1.608   5.233  0.3082 -1.2365  0.5379
  294MOL     C835754   3.862   1.432   4.955 -0.4410  0.3149 -0.1034
  294MOL     C935755   3.755   1.323   4.915  0.0788  0.1001 -1.0510
  294MOL   Cl1035756   3.790   1.300   4.745  0.2744  0.0862 -0.3094
  294MOL    H1135757   3.957   1.397   4.915 -0.3020  0.2244  0.3087
  294MOL    H1235758   3.845   1.528   4.905  0.9353 -0.9376 -3.1180
  294MOL    H1335759   3.777   1.224   4.957 -0.4757  1.3825  2.3998
  294MOL    C1435760   3.602   1.359   4.942  0.6203 -0.1599 -0.3977
  294MOL    C1535761   3.504   1.241   4.960  0.4401 -0.2070  0.3177
  294MOL   Cl1635762   3.574   1.119   5.071  0.1583 -0.2780  0.2385
  294MOL    H1735763   3.568   1.423   4.861  1.8981 -0.1793 -0.9626
  294MOL    H1835764   3.593   1.422   5.030 -2.5257  0.6268 -1.2352
  294MOL    H1935765   3.416   1.274   5.015  1.7100  3.0984  0.4407
  294MOL    C2035766   3.449   1.175   4.834  0.2273  0.5946 -0.1550
  294MOL    C2135767   3.412   1.260   4.712 -1.1781  0.0106  0.1262
  294MOL   Cl2235768   3.293   1.384   4.761 -0.2972  0.4234  0.1924
  294MOL    H2335769   3.374   1.105   4.869  0.2917  0.2202 -0.7485
  294MOL    H2435770   3.529   1.107   4.804  0.7928  0.3754  1.7644
  294MOL    H2535771   3.501   1.306   4.667 -1.1297 -0.6719 -0.4740
  294MOL    C2635772   3.360   1.169   4.600 -0.1074  0.0716  0.0056
  294MOL    C2735773   3.425   1.028   4.566  0.0886 -0.5504  0.1759
  294MOL   Cl2835774   3.592   1.053   4.529 -0.6573 -0.2408  0.3359
  294MOL    H2935775   3.357   1.237   4.515  0.2817 -0.4342 -0.4193
  294MOL    H3035776   3.258   1.140   4.627  0.8541 -3.4869  0.0069
  294MOL    H3135777   3.416   0.971   4.658 -6.1551 -1.0253 -0.4963
  294MOL    C3235778   3.355   0.958   4.438 -0.0217 -0.0588 -0.5801
  294MOL    C3335779   3.367   0.802   4.428  0.0244  0.2430 -0.1280
  294MOL   Cl3435780   3.385   0.743   4.263  0.3482 -0.0547 -0.4356
  294MOL    H3535781   3.401   0.997   4.347  1.2740 -0.2433 -0.0154
  294MOL    H3635782   3.250   0.987   4.432 -0.0628 -0.0497  0.1714
  294MOL    H3735783   3.456   0.769   4.481  0.0036  0.4712  0.0476
  294MOL    C3835784   3.237   0.743   4.486 -0.2888  0.7297 -0.0128
  294MOL    C3935785   3.241   0.592   4.526 -0.1672  0.3318  0.3958
  294MOL   Cl4035786   3.080   0.555   4.589  0.1258 -0.5308  0.1649
  294MOL    H4135787   3.157   0.759   4.415  0.1495 -2.0089 -1.2068
  294MOL    H4235788   3.211   0.801   4.575  1.4304  1.7031 -0.1233
  294MOL    H4335789   3.255   0.540   4.432 -1.9681 -1.9620  1.3563
  294MOL    C4435790   3.361   0.550   4.614 -0.6019 -0.5116 -0.2528
  294MOL    C4535791   3.341   0.429   4.694  0.4750  0.2780 -0.2424
  294MOL   Cl4635792   3.486   0.390   4.779 -0.3018 -0.2455 -0.1675
  294MOL    H4735793   3.390   0.631   4.680 -1.0371 -1.2506  0.8598
  294MOL    H4835794   3.450   0.540   4.552  0.8421 -0.0755  1.7484
  294MOL    H4935795   3.268   0.458   4.769  0.0706 -2.3309  0.4248
  294MOL    C5035796   3.301   0.301   4.613  0.3436  0.6571  0.1233
  294MOL    C5135797   3.193   0.209   4.681 -0.4221 -0.9418 -0.1408
  294MOL   Cl5235798   3.253   0.136   4.831  0.1448 -0.1860 -0.2504
  294MOL    H5335799   3.394   0.251   4.585  0.7496  0.9825  0.8936
  294MOL    H5435800   3.260   0.335   4.517  0.1968  0.3509  0.0788
  294MOL    H5535801   3.116   0.277   4.716  1.9346  1.4994  0.5285
  294MOL    C5635802   3.149   0.087   4.601 -0.0272 -0.7998  0.7490
  294MOL    C5735803   3.035   8.518   4.653 -0.5775 -0.3892 -0.4333
  294MOL   Cl5835804   3.064   8.345   4.612 -0.0134 -0.1000 -0.5250
  294MOL    H5935805   3.243   0.040   4.572  0.3765  1.4778 -1.8340
  294MOL    H6035806   3.123   0.109   4.497  1.8043 -1.8098  0.0562
  294MOL    H6135807   3.018   8.524   4.760  0.4358 -0.4530 -0.2725
  294MOL    C6235808   2.898   0.018   4.580  0.3587  0.2369  0.4599
  294MOL    C6335809   2.836   0.158   4.595 -1.0220  0.0157  0.3054
  294MOL   Cl6435810   2.828   0.203   4.769  0.2985 -0.3109 -0.6771
  294MOL    H6535811   2.825   8.471   4.617 -0.2555  0.2458 -0.6836
  294MOL    H6635812   2.903   8.522   4.473 -2.6239  0.2807  0.2608
  294MOL    H6735813   2.898   0.234   4.547  1.5649 -2.2883 -0.1467
  294MOL    C6835814   2.685   0.166   4.542  0.0694 -0.0628 -0.1742
  294MOL    C6935815   2.654   0.146   4.395 -0.0753  0.1822  0.1282
  294MOL   Cl7035816   2.737   0.282   4.316  0.2398 -0.0658 -0.2448
  294MOL    H7135817   2.641   0.262   4.570  0.3355 -1.0294  3.9433
  294MOL    H7235818   2.642   0.089   4.607  2.4109 -1.3759 -0.1155
  294MOL    H7335819   2.694   0.051   4.360 -0.5698  0.3242 -0.8483
  294MOL    C7435820   2.505   0.160   4.361 -0.2055  0.4985 -0.3486
  294MOL    C7535821   2.417   0.035   4.409 -0.4288  0.3205  0.2546
  294MOL   Cl7635822   2.452   8.420   4.305 -0.4705  0.2380  0.1487
  294MOL    H7735823   2.492   0.175   4.253 -0.5201  1.4280 -0.1828
  294MOL    H7835824   2.479   0.256   4.405  1.1883 -0.4360  2.6702
  294MOL    H7935825   2.447   0.005   4.510 -1.0944 -2.3752 -0.2925
  294MOL    C8035826   2.265   0.076   4.400 -0.2620 -0.5930 -0.2117
  294MOL    C8135827   2.166   8.499   4.436 -0.3315 -0.4699 -0.2031
  294MOL   Cl8235828   2.004   0.053   4.443 -0.2819 -0.0429 -0.0345
  294MOL    H8335829   2.241   0.109   4.299 -1.6395  1.3815  0.7302
  294MOL    H8435830   2.254   0.160   4.470  2.0823 -0.8433  0.5064
  294MOL    H8535831   2.166   8.426   4.355 -0.4715 -1.3468  0.5905
  294MOL    C8635832   2.201   8.430   4.572 -0.5996 -0.2286  0.5580
  294MOL    C8735833   2.095   8.336   4.630 -0.0402 -0.0427 -0.1737
  294MOL   Cl8835834   2.163   8.286   4.793 -0.6464 -0.0484 -0.2628
  294MOL    H8935835   2.233   8.503   4.645 -0.4453 -1.9893  2.2918
  294MOL    H9035836   2.286   8.366   4.549 -0.0302  0.9346 -0.6281
  294MOL    H9135837   2.009   8.400   4.648 -0.4558 -1.3941  2.8518
  294MOL    C9235838   2.053   8.225   4.530  0.1300 -0.0881  0.3410
  294MOL    C9335839   1.935   8.139   4.569 -0.2539  0.6613  0.8893
  294MOL   Cl9435840   1.796   8.237   4.629  0.2870 -0.2207 -0.0155
  294MOL    H9535841   2.140   8.162   4.510 -0.6040 -1.0386  0.1117
  294MOL    H9635842   2.018   8.278   4.441  1.8137 -0.5581 -0.6266
  294MOL    H9735843   1.893   8.099   4.477  0.5519 -0.6171  1.0695
  294MOL    C9835844   1.962   8.035   4.681 -0.8035  0.1677  0.5247
  294MOL    C9935845   2.064   7.928   4.630 -0.0839 -0.8966 -0.1546
  294MOL  Cl10035846   2.011   7.841   4.476  0.0749 -0.4951 -0.1104
  294MOL   H10135847   1.866   7.983   4.682 -0.3663 -0.6462  0.1583
  294MOL   H10235848   1.996   8.068   4.779  0.6678  0.4480 -0.0703
  294MOL   H10335849   2.157   7.981   4.607 -1.1447  1.0074 -0.1409
  294MOL   C10435850   2.092   7.820   4.736  0.0704  0.2765  0.2286
  294MOL   C10535851   2.141   7.870   4.874  0.1205 -0.0589  0.0924
  294MOL  Cl10635852   2.283   7.976   4.853  0.0187  0.1078  0.2670
  294MOL   H10735853   2.173   7.761   4.692 -0.1644 -1.2247  1.7226
  294MOL   H10835854   2.001   7.763   4.752  0.3284  0.4055  2.3479
  294MOL   H10935855   2.066   7.937   4.916  0.2658  1.9034 -2.6579
  294MOL   C11035856   2.185   7.759   4.975  0.8437 -0.3962  0.3526
  294MOL   C11135857   2.213   7.816   5.116  0.6965 -0.2050 -0.5409
  294MOL  Cl11235858   2.286   7.685   5.212  0.0088 -0.0568  0.0295
  294MOL   H11335859   2.272   7.705   4.939  1.6800  0.2146  1.4347
  294MOL   H11435860   2.099   7.693   4.987 -0.9892  1.5621 -1.5619
  294MOL   H11535861   2.293   7.890   5.119 -0.4164  0.9868 -0.2088
  294MOL   C11635862   2.088   7.886   5.188 -0.6681 -0.1007 -0.1305
  294MOL   C11735863   1.980   7.785   5.224 -0.0609 -0.1227 -0.1536
  294MOL  Cl11835864   1.869   7.869   5.330  0.2538  0.2948 -0.0582
  294MOL   H11935865   2.036   7.958   5.125 -1.3612  0.9702  1.6585
  294MOL   H12035866   2.119   7.936   5.279 -2.2736  3.2168 -1.3448
  294MOL   H12135867   1.927   7.740   5.141  0.4935 -2.7379  0.8814
  294MOL   H12235868   2.015   7.701   5.284 -0.5550  1.5683  2.5788
  295MOL     C135869   0.256   5.522   3.361  0.2049 -0.6763 -0.2961
  295MOL     C235870   0.283   5.385   3.288 -0.0303 -0.3773 -0.3371
  295MOL    Cl335871   0.127   5.324   3.218  0.1770 -0.0274  0.2923
  295MOL     H435872   0.181   5.503   3.438  1.3330 -4.2814  0.0043
  295MOL     H535873   0.343   5.557   3.415 -0.0288  1.1507 -1.0576
  295MOL     H635874   0.345   5.403   3.200  0.8709 -1.7560 -0.0006
  295MOL     H735875   0.222   5.595   3.287  2.1816  0.3496 -0.2192
  295MOL     C835876   0.337   5.275   3.382  0.8093  0.1197  0.0651
  295MOL     C935877   0.464   5.302   3.468  0.4145  0.1439 -0.3133
  295MOL   Cl1035878   0.614   5.291   3.364  0.0617  0.1775  0.3615
  295MOL    H1135879   0.353   5.190   3.315  0.0891  0.0766 -0.0535
  295MOL    H1235880   0.264   5.243   3.456 -1.5654  1.0639 -1.7951
  295MOL    H1335881   0.459   5.403   3.508 -0.4655 -0.0820  0.1603
  295MOL    C1435882   0.485   5.222   3.595  0.4116  0.8599  0.1194
  295MOL    C1535883   0.503   5.066   3.586 -0.0405  0.0534 -0.1795
  295MOL   Cl1635884   0.348   4.986   3.526  0.3182 -0.0395 -0.3980
  295MOL    H1735885   0.401   5.246   3.659 -0.0125 -0.5678  0.1185
  295MOL    H1835886   0.573   5.256   3.649  1.9534 -2.0402 -0.4386
  295MOL    H1935887   0.587   5.048   3.520  1.2057  1.1801  1.0616
  295MOL    C2035888   0.542   4.994   3.720 -0.7370 -0.3807  0.0598
  295MOL    C2135889   0.668   5.051   3.789 -0.4889  0.4735 -0.5517
  295MOL   Cl2235890   0.803   5.044   3.679  0.2687  0.0362  0.0123
  295MOL    H2335891   0.563   4.893   3.684 -0.4068  0.1320 -1.2085
  295MOL    H2435892   0.456   4.992   3.787  0.7134 -0.4046  1.9679
  295MOL    H2535893   0.674   5.157   3.813  4.3946 -0.0148  0.8930
  295MOL    C2635894   0.708   4.967   3.924  0.4060 -0.5778  1.4412
  295MOL    C2735895   0.596   4.949   4.030 -0.0725  0.0832 -0.1846
  295MOL   Cl2835896   0.603   5.091   4.128 -0.2155  0.4429 -0.0877
  295MOL    H2935897   0.782   5.027   3.977  0.6541 -0.9735  1.5428
  295MOL    H3035898   0.766   4.875   3.920  2.0285  0.4654 -1.0964
  295MOL    H3135899   0.498   4.938   3.983 -0.7621  1.0039  1.0114
  295MOL    C3235900   0.623   4.830   4.120 -0.4101 -0.9826  0.0503
  295MOL    C3335901   0.635   4.690   4.058 -0.2592  0.0377 -0.0342
  295MOL   Cl3435902   0.515   4.667   3.925  0.8022  0.3017  0.1838
  295MOL    H3535903   0.549   4.828   4.200 -1.4445 -1.1011 -0.9176
  295MOL    H3635904   0.704   4.847   4.192 -0.9064 -0.9749  0.6163
  295MOL    H3735905   0.734   4.672   4.019 -0.6998 -1.8507 -0.3384
  295MOL    C3835906   0.600   4.577   4.162  0.2739 -0.3352 -0.2050
  295MOL    C3935907   0.681   4.583   4.282 -0.0312 -0.4172  0.0593
  295MOL   Cl4035908   0.853   4.563   4.237 -0.1462 -0.1782 -0.0417
  295MOL    H4135909   0.620   4.484   4.110 -1.0835 -0.2573 -0.8773
  295MOL    H4235910   0.495   4.580   4.189  0.3512 -0.0909  0.0692
  295MOL    H4335911   0.663   4.677   4.334 -0.5783 -1.5968  2.0975
  295MOL    C4435912   0.660   4.472   4.380  0.4301  0.0807  0.2771
  295MOL    C4535913   0.525   4.479   4.451  0.7679  0.3505 -0.4778
  295MOL   Cl4635914   0.519   4.627   4.548  0.4083  0.1908 -0.4589
  295MOL    H4735915   0.737   4.466   4.456  1.1416 -2.0295 -0.5913
  295MOL    H4835916   0.675   4.384   4.318  2.1461  0.5142  0.0557
  295MOL    H4935917   0.430   4.487   4.398 -0.7235 -0.4697  1.9938
  295MOL    C5035918   0.518   4.369   4.564 -0.9265 -0.2821  0.1570
  295MOL    C5135919   0.494   4.230   4.529  0.6936  0.3516  0.4712
  295MOL   Cl5235920   0.328   4.203   4.463  0.4350 -0.3269 -0.1143
  295MOL    H5335921   0.439   4.416   4.622  1.2829  1.5121  1.8177
  295MOL    H5435922   0.604   4.372   4.631 -1.4053 -0.3734  0.7846
  295MOL    H5535923   0.553   4.196   4.445 -0.9544  1.3993 -1.1526
  295MOL    C5635924   0.503   4.124   4.645 -0.0020  0.5060 -0.2368
  295MOL    C5735925   0.429   4.135   4.783 -0.5153 -0.3718  0.8901
  295MOL   Cl5835926   0.470   4.278   4.880  0.2938  0.2763  0.2172
  295MOL    H5935927   0.610   4.117   4.667  0.2793 -1.4981 -2.1218
  295MOL    H6035928   0.481   4.030   4.594  2.1169 -0.3276  0.2985
  295MOL    H6135929   0.327   4.164   4.759  0.4634  0.0776 -3.0243
  295MOL    C6235930   0.418   4.002   4.869  0.5409  0.1495  0.2806
  295MOL    C6335931   0.541   3.971   4.952  0.1514 -0.0422  0.0821
  295MOL   Cl6435932   0.680   3.922   4.843 -0.0399 -0.2493 -0.0014
  295MOL    H6535933   0.404   3.922   4.796  1.6214  1.6222 -1.5685
  295MOL    H6635934   0.322   4.004   4.921 -0.5366  1.7992 -1.6819
  295MOL    H6735935   0.567   4.065   5.001  1.9733 -0.8593  0.7210
  295MOL    C6835936   0.526   3.865   5.059 -0.2465 -0.2471 -0.0984
  295MOL    C6935937   0.647   3.855   5.151  1.0645 -0.0402 -0.4241
  295MOL   Cl7035938   0.642   3.697   5.232  0.3169  0.3964 -0.0368
  295MOL    H7135939   0.501   3.774   5.005  1.0968 -0.4869 -0.3332
  295MOL    H7235940   0.432   3.882   5.110 -0.5505 -0.4367 -0.5910
  295MOL    H7335941   0.737   3.865   5.091  0.9620  2.1245 -0.2843
  295MOL    C7435942   0.647   3.968   5.264  0.0258  0.3181  0.7601
  295MOL    C7535943   0.766   3.993   5.355  0.7545 -0.3768 -0.2649
  295MOL   Cl7635944   0.719   4.114   5.477 -0.1139  0.0556 -0.0317
  295MOL    H7735945   0.570   3.944   5.337 -0.8335  2.9065  0.7461
  295MOL    H7835946   0.609   4.066   5.238  0.3332  0.9076  2.4203
  295MOL    H7935947   0.782   3.901   5.412 -1.8936 -0.1078  0.9784
  295MOL    C8035948   0.894   4.043   5.279  0.4654 -0.3289 -0.1268
  295MOL    C8135949   1.034   3.985   5.326  0.0134 -0.2391 -0.3278
  295MOL   Cl8235950   1.024   3.809   5.337 -0.3376  0.1209 -0.3518
  295MOL    H8335951   0.883   4.151   5.280  1.0993 -0.2409 -1.3072
  295MOL    H8435952   0.877   4.024   5.173  2.0896  1.6616 -0.7636
  295MOL    H8535953   1.099   4.011   5.242 -1.0067  1.0589 -0.7351
  295MOL    C8635954   1.098   4.040   5.449 -0.2759 -0.4551 -0.3231
  295MOL    C8735955   1.102   4.197   5.459  0.6661 -0.0146  0.3079
  295MOL   Cl8835956   1.220   4.250   5.333  0.1689  0.1540 -0.2801
  295MOL    H8935957   1.197   3.999   5.470 -0.1844  0.6637  1.5661
  295MOL    H9035958   1.045   3.998   5.535  0.5960 -1.9897 -0.5150
  295MOL    H9135959   1.008   4.249   5.438 -0.3776 -2.5008 -1.3992
  295MOL    C9235960   1.144   4.260   5.588  0.4340 -0.2052  0.3728
  295MOL    C9335961   1.278   4.199   5.648  0.0307 -0.4765 -0.2751
  295MOL   Cl9435962   1.250   4.081   5.774  0.0390  0.1809  0.0669
  295MOL    H9535963   1.059   4.264   5.656  0.7971 -2.5554  1.0008
  295MOL    H9635964   1.160   4.364   5.558 -2.9490  0.0648 -0.6382
  295MOL    H9735965   1.333   4.134   5.580 -1.4469 -1.3241 -0.6865
  295MOL    C9835966   1.373   4.314   5.696 -0.2496 -0.1894 -0.0780
  295MOL    C9935967   1.518   4.268   5.724  0.2323 -0.9050  0.2443
  295MOL  Cl10035968   1.594   4.403   5.807 -0.0201  0.2114 -0.0204
  295MOL   H10135969   1.342   4.370   5.784 -0.2222 -1.9326  1.0615
  295MOL   H10235970   1.367   4.403   5.634 -0.5930 -0.0333  0.1739
  295MOL   H10335971   1.511   4.175   5.781 -1.5727 -2.3763 -2.2325
  295MOL   C10435972   1.592   4.240   5.601  0.3366  0.1448  0.8809
  295MOL   C10535973   1.736   4.194   5.609  0.1094  0.0270 -0.1319
  295MOL  Cl10635974   1.804   4.173   5.441  0.0104  0.1136 -0.5635
  295MOL   H10735975   1.588   4.331   5.541 -0.5091  1.2149  2.5225
  295MOL   H10835976   1.547   4.162   5.539  2.6545 -0.0930 -0.5707
  295MOL   H10935977   1.789   4.272   5.664 -0.6396  2.6708 -3.0275
  295MOL   C11035978   1.763   4.057   5.683 -0.0437  0.0653  0.4280
  295MOL   C11135979   1.782   4.061   5.838  0.1763  0.1801  0.0736
  295MOL  Cl11235980   1.931   4.156   5.869 -0.1012  0.1800 -0.0799
  295MOL   H11335981   1.854   4.015   5.641 -0.8068 -0.2772 -0.9307
  295MOL   H11435982   1.679   3.991   5.664  0.8296 -0.6571 -1.0129
  295MOL   H11535983   1.713   4.126   5.891 -0.4148  0.8025 -1.4336
  295MOL   C11635984   1.800   3.923   5.905 -0.1583 -0.1799 -0.1319
  295MOL   C11735985   1.678   3.827   5.898 -0.2651  0.3859  0.9120
  295MOL  Cl11835986   1.538   3.889   5.984  0.1553  0.0339  0.5162
  295MOL   H11935987   1.831   3.913   6.009 -1.2145 -0.3647  0.1655
  295MOL   H12035988   1.875   3.865   5.851 -0.7749 -2.8779  1.7948
  295MOL   H12135989   1.666   3.812   5.791  2.5294  0.7296  0.5039
  295MOL   H12235990   1.710   3.732   5.942  0.8113  0.2784 -0.0649
  296MOL     C135991   3.410   7.463   6.360 -0.0663 -0.6792  0.1820
  296MOL     C235992   3.262   7.473   6.320 -0.2539 -0.0047 -0.5774
  296MOL    Cl335993   3.198   7.634   6.354 -0.1000 -0.0784  0.0105
  296MOL     H435994   3.418   7.482   6.467  1.4103 -0.1073 -0.0239
  296MOL     H535995   3.456   7.368   6.331  0.0038 -0.7604  0.5578
  296MOL     H635996   3.245   7.454   6.214 -0.8404 -3.2352  0.0424
  296MOL     H735997   3.473   7.538   6.311  1.6740 -3.2687 -1.6947
  296MOL     C835998   3.170   7.386   6.414 -1.0860  0.4155 -0.4237
  296MOL     C935999   3.192   7.234   6.419 -0.0125 -0.0129 -0.0052
  296MOL   Cl1036000   3.229   7.172   6.251  0.4125 -0.0698  0.0325
  296MOL    H1136001   3.066   7.418   6.401 -1.2092  1.2293  2.1587
  296MOL    H1236002   3.192   7.414   6.517  0.6976 -1.5203 -0.2653
  296MOL    H1336003   3.284   7.218   6.476 -0.5184 -0.4421  0.6993
  296MOL    C1436004   3.070   7.149   6.470  0.1449  0.1325 -0.0251
  296MOL    C1536005   3.041   7.169   6.626 -0.3982  0.2540  0.2789
  296MOL   Cl1636006   3.182   7.103   6.713  0.5115  0.0631  0.0843
  296MOL    H1736007   3.097   7.044   6.458  3.0125  0.7592  0.5362
  296MOL    H1836008   2.983   7.169   6.408  0.9034 -2.1704 -1.8934
  296MOL    H1936009   3.030   7.274   6.652  0.4884  0.6507 -0.8930
  296MOL    C2036010   2.911   7.090   6.661  0.1463 -0.4863 -0.3799
  296MOL    C2136011   2.863   7.076   6.805  1.0139  0.1867 -0.6125
  296MOL   Cl2236012   2.701   7.011   6.819 -0.1425  0.0645 -0.1470
  296MOL    H2336013   2.901   6.990   6.618 -0.2704 -0.1759 -1.0192
  296MOL    H2436014   2.848   7.144   6.589  1.2137 -0.3921 -1.2528
  296MOL    H2536015   2.924   6.998   6.852 -0.5567  1.0560  3.0842
  296MOL    C2636016   2.869   7.210   6.880  0.4557  0.2426 -0.0868
  296MOL    C2736017   2.809   7.233   7.019  0.0588 -0.0555 -0.9277
  296MOL   Cl2836018   2.786   7.407   7.049 -0.0044 -0.3930  0.1129
  296MOL    H2936019   2.820   7.287   6.820  1.8332 -0.8025 -2.6459
  296MOL    H3036020   2.971   7.249   6.880 -0.6073  3.1615  0.4528
  296MOL    H3136021   2.711   7.186   7.031  0.4469 -1.1604 -2.0012
  296MOL    C3236022   2.901   7.170   7.121  0.1048 -0.2280 -0.3693
  296MOL    C3336023   2.887   7.225   7.264  0.3148  0.0443 -0.1694
  296MOL   Cl3436024   3.007   7.135   7.353  0.2899  0.0705  0.2784
  296MOL    H3536025   3.005   7.195   7.102 -0.4977  1.1146 -2.0491
  296MOL    H3636026   2.882   7.063   7.118  1.4542 -0.5258  0.9852
  296MOL    H3736027   2.917   7.330   7.265 -0.4620  0.2693 -0.2804
  296MOL    C3836028   2.749   7.202   7.330  0.5354  0.0411  0.4859
  296MOL    C3936029   2.732   7.238   7.477  0.4332  0.1493  0.0968
  296MOL   Cl4036030   2.558   7.206   7.526  0.0142  0.3006  0.1130
  296MOL    H4136031   2.720   7.099   7.307  3.2499 -0.2049 -2.0860
  296MOL    H4236032   2.677   7.259   7.271 -1.5864 -1.4574  1.5654
  296MOL    H4336033   2.801   7.175   7.534  0.2790  0.0662  0.1904
  296MOL    C4436034   2.756   7.386   7.505 -0.0602 -0.6662  0.1351
  296MOL    C4536035   2.753   7.414   7.655 -0.0818  0.2534  0.4915
  296MOL   Cl4636036   2.672   7.562   7.679  0.3029  0.0065 -0.5227
  296MOL    H4736037   2.677   7.438   7.450 -0.0609 -1.3217 -0.4847
  296MOL    H4836038   2.848   7.432   7.469  0.5162  0.4124  2.8427
  296MOL    H4936039   2.690   7.339   7.704 -1.5186  1.0827 -0.0369
  296MOL    C5036040   2.897   7.435   7.721 -0.5414  0.5322  0.5244
  296MOL    C5136041   2.981   7.300   7.728 -0.2323 -0.5694  0.2848
  296MOL   Cl5236042   2.887   7.183   7.822  0.1817  0.0795 -0.2313
  296MOL    H5336043   2.881   7.461   7.825  1.2491 -0.3977  1.0623
  296MOL    H5436044   2.969   7.510   7.690  0.2071 -1.1137 -1.8927
  296MOL    H5536045   2.982   7.268   7.624  1.8659 -2.1240  0.7478
  296MOL    C5636046   3.125   7.297   7.792  0.6558  0.3446  0.5200
  296MOL    C5736047   3.133   7.338   7.945 -0.2762 -0.3775 -1.1108
  296MOL   Cl5836048   3.177   7.513   7.951  0.4665 -0.0874 -0.3743
  296MOL    H5936049   3.187   7.366   7.735  2.1535 -0.7388  0.8244
  296MOL    H6036050   3.162   7.196   7.775  1.7939  1.0032 -1.1047
  296MOL    H6136051   3.039   7.334   8.001  1.1166 -1.5463  1.2391
  296MOL    C6236052   3.241   7.261   8.020  0.4421 -0.3415 -0.4696
  296MOL    C6336053   3.236   7.108   8.014  0.5830  0.2813  0.8628
  296MOL   Cl6436054   3.075   7.068   8.062  0.2301  0.2181  0.0993
  296MOL    H6536055   3.240   7.307   8.119  0.3809 -0.2556 -0.5102
  296MOL    H6636056   3.337   7.283   7.973  1.5299 -0.3655  1.7130
  296MOL    H6736057   3.252   7.064   7.916 -1.7635  2.6450 -0.6059
  296MOL    C6836058   3.328   7.039   8.109  0.1698  0.4539 -0.0416
  296MOL    C6936059   3.335   6.882   8.100  0.2326 -0.4932  0.2008
  296MOL   Cl7036060   3.432   6.819   8.243  0.1370  0.1351  0.1713
  296MOL    H7136061   3.302   7.070   8.210  0.5757 -2.4625  0.9932
  296MOL    H7236062   3.430   7.070   8.085  0.2680 -0.6018 -1.0310
  296MOL    H7336063   3.233   6.847   8.118  0.2738 -1.0877 -0.6931
  296MOL    C7436064   3.389   6.808   7.977  0.0957  0.7611 -0.6054
  296MOL    C7536065   3.283   6.728   7.894 -0.4585 -0.3867  1.0477
  296MOL   Cl7636066   3.208   6.591   7.986  0.1850 -0.0387 -0.3961
  296MOL    H7736067   3.471   6.741   8.001 -0.0140  0.0436 -2.2241
  296MOL    H7836068   3.429   6.891   7.920  1.8305 -0.6595 -1.4920
  296MOL    H7936069   3.203   6.799   7.876 -0.9518 -1.3653 -0.7613
  296MOL    C8036070   3.328   6.679   7.760  1.5152  0.6413 -0.1733
  296MOL    C8136071   3.210   6.621   7.670  0.4633  0.2508 -0.5936
  296MOL   Cl8236072   3.267   6.487   7.562 -0.0831  0.4019  0.1560
  296MOL    H8336073   3.391   6.594   7.786  0.0266 -0.5912 -0.4911
  296MOL    H8436074   3.381   6.749   7.696  0.7524  1.9929  0.6311
  296MOL    H8536075   3.137   6.564   7.728 -0.2100 -0.1690 -1.8390
  296MOL    C8636076   3.144   6.718   7.567  0.0363 -0.2559 -0.0949
  296MOL    C8736077   3.071   6.841   7.620 -0.5156  0.3441  0.5508
  296MOL   Cl8836078   3.183   6.969   7.659 -0.4238 -0.4960 -0.2264
  296MOL    H8936079   3.076   6.657   7.508  0.9391 -0.2040 -1.1944
  296MOL    H9036080   3.226   6.740   7.499 -0.3459 -0.2143 -0.5411
  296MOL    H9136081   3.010   6.877   7.537  0.5595 -0.6574 -0.7036
  296MOL    C9236082   2.973   6.814   7.730  0.3154  0.0314  0.1498
  296MOL    C9336083   2.833   6.747   7.696  0.0348  0.1037 -0.0178
  296MOL   Cl9436084   2.740   6.855   7.584 -0.2467 -0.0701 -0.3207
  296MOL    H9536085   2.942   6.916   7.749  3.7799  1.2564 -0.5393
  296MOL    H9636086   3.014   6.798   7.830  1.8407 -0.7120 -0.5715
  296MOL    H9736087   2.864   6.658   7.641 -1.1068  0.8638 -1.9121
  296MOL    C9836088   2.748   6.712   7.822 -0.2485 -0.1651  0.7166
  296MOL    C9936089   2.813   6.594   7.898 -0.0721  1.0122 -0.3517
  296MOL  Cl10036090   2.792   6.445   7.794  0.0840 -0.2655 -0.1046
  296MOL   H10136091   2.644   6.698   7.792 -0.1831 -1.3715  1.0538
  296MOL   H10236092   2.747   6.800   7.887  1.3435  1.0217 -0.8262
  296MOL   H10336093   2.921   6.600   7.912 -0.0430  1.2399 -0.6666
  296MOL   C10436094   2.748   6.569   8.035 -0.7035 -0.8790 -0.2408
  296MOL   C10536095   2.751   6.686   8.139  0.1152 -0.4692  0.7414
  296MOL  Cl10636096   2.919   6.707   8.189 -0.1151  0.1951 -0.0382
  296MOL   H10736097   2.796   6.482   8.080  0.3323  0.3468  1.0573
  296MOL   H10836098   2.642   6.558   8.013 -1.0711  0.5966  0.7122
  296MOL   H10936099   2.722   6.778   8.088  0.7523 -2.0765 -2.6844
  296MOL   C11036100   2.650   6.663   8.257 -0.7039  0.1865  0.0824
  296MOL   C11136101   2.512   6.602   8.225 -0.3304  0.0251  0.6876
  296MOL  Cl11236102   2.429   6.713   8.118 -0.2845  0.2061 -0.3900
  296MOL   H11336103   2.641   6.752   8.319 -1.2278 -0.3320  0.7712
  296MOL   H11436104   2.694   6.594   8.329  1.4497  0.3630 -1.0438
  296MOL   H11536105   2.514   6.508   8.171 -2.2532 -0.0863  0.7472
  296MOL   C11636106   2.427   6.577   8.352  0.0527  0.1128 -0.0480
  296MOL   C11736107   2.360   6.698   8.407 -0.0901 -0.1990 -1.0269
  296MOL  Cl11836108   2.240   6.647   0.006 -0.2685 -0.1694 -0.0745
  296MOL   H11936109   2.488   6.525   8.426 -0.5081 -0.9135 -0.2890
  296MOL   H12036110   2.344   6.512   8.323 -0.1882  1.1398 -1.7332
  296MOL   H12136111   2.424   6.774   8.453 -1.6172  0.2684  0.3523
  296MOL   H12236112   2.306   6.768   8.343  1.2070  0.8213 -1.0365
  297MOL     C136113   0.905   3.914   1.818 -0.3568  0.5238  0.4156
  297MOL     C236114   0.859   3.885   1.961 -0.2745  0.3812 -0.6025
  297MOL    Cl336115   0.680   3.900   1.991 -0.4074  0.3383 -0.3878
  297MOL     H436116   0.867   3.839   1.750  1.2787  0.0290  0.0232
  297MOL     H536117   0.862   4.007   1.781  1.4543  1.8226  1.4782
  297MOL     H636118   0.891   3.784   1.985  0.6627  0.8677  0.2317
  297MOL     H736119   1.012   3.926   1.802 -0.3927 -1.2628 -1.2161
  297MOL     C836120   0.939   3.976   2.066  0.0778 -0.9839 -0.5769
  297MOL     C936121   0.894   4.123   2.084  0.2261  0.1987  0.8004
  297MOL   Cl1036122   0.977   4.222   1.956  0.0500  0.2440 -0.3089
  297MOL    H1136123   1.047   3.972   2.055  0.0305  1.0176 -1.9891
  297MOL    H1236124   0.924   3.924   2.161  0.2058  1.6418  0.9434
  297MOL    H1336125   0.787   4.130   2.067  0.2366 -0.5693  0.3848
  297MOL    C1436126   0.918   4.188   2.222 -0.6878  0.0911 -0.3582
  297MOL    C1536127   1.063   4.197   2.286  0.0887  0.8069 -0.1621
  297MOL   Cl1636128   1.127   4.034   2.319 -0.0083 -0.0570  0.1476
  297MOL    H1736129   0.842   4.138   2.283 -0.7280 -1.6474 -1.7895
  297MOL    H1836130   0.892   4.294   2.213  0.7580  0.5773  0.9386
  297MOL    H1936131   1.127   4.235   2.207 -0.5907  0.6747 -0.7864
  297MOL    C2036132   1.066   4.293   2.414 -0.5744  0.6244  0.5916
  297MOL    C2136133   1.208   4.331   2.457 -0.6571  0.1551 -0.5552
  297MOL   Cl2236134   1.288   4.408   2.316  0.2490  0.6633  0.1020
  297MOL    H2336135   1.011   4.254   2.500  2.1166  1.9043  2.9701
  297MOL    H2436136   1.006   4.379   2.386 -0.7582 -0.3754 -2.3280
  297MOL    H2536137   1.202   4.410   2.532 -2.0424 -0.6181  0.1722
  297MOL    C2636138   1.280   4.212   2.520 -0.0704 -0.7114 -0.2247
  297MOL    C2736139   1.400   4.263   2.605 -0.3300  0.2029 -0.3137
  297MOL   Cl2836140   1.495   4.114   2.648 -0.0087  0.0874 -0.0593
  297MOL    H2936141   1.322   4.149   2.441  0.1757 -1.9952  0.9198
  297MOL    H3036142   1.205   4.159   2.580 -1.5258  0.0055 -1.3594
  297MOL    H3136143   1.467   4.314   2.535 -0.4559 -1.1984 -1.4854
  297MOL    C3236144   1.383   4.350   2.734  0.8619 -0.5624  0.6132
  297MOL    C3336145   1.291   4.297   2.842 -0.0742 -0.2028 -0.3255
  297MOL   Cl3436146   1.117   4.292   2.787 -0.1210 -0.4510 -0.0238
  297MOL    H3536147   1.351   4.451   2.708 -1.6370 -2.0103 -2.2574
  297MOL    H3636148   1.485   4.363   2.771  2.6106 -1.6211 -3.5530
  297MOL    H3736149   1.309   4.191   2.860  1.2504 -0.2165 -1.5741
  297MOL    C3836150   1.297   4.388   2.976 -0.1422 -1.3175 -0.3629
  297MOL    C3936151   1.234   4.316   3.100 -0.3347  0.2432  0.1853
  297MOL   Cl4036152   1.057   4.313   3.097 -0.1302 -0.1663  0.2321
  297MOL    H4136153   1.263   4.489   2.956  1.5732 -0.4261  1.1477
  297MOL    H4236154   1.405   4.380   2.989 -0.0678 -0.8376 -0.6796
  297MOL    H4336155   1.270   4.213   3.104  0.1445  0.3263 -1.4509
  297MOL    C4436156   1.284   4.379   3.231  0.7841  0.7552  0.5823
  297MOL    C4536157   1.271   4.529   3.263  0.5987  0.6467  0.1097
  297MOL   Cl4636158   1.379   4.561   3.399  0.2261 -0.4182 -0.0160
  297MOL    H4736159   1.389   4.349   3.241  1.2428  2.3548  0.7597
  297MOL    H4836160   1.237   4.323   3.312  0.2851  0.8560  0.3579
  297MOL    H4936161   1.302   4.580   3.172  0.8765 -0.5769 -0.5016
  297MOL    C5036162   1.123   4.576   3.302 -0.7324 -0.0189 -0.0116
  297MOL    C5136163   1.095   4.726   3.275  0.4389  0.4839  0.0602
  297MOL   Cl5236164   0.953   4.765   3.374 -0.0039 -0.2740  0.1567
  297MOL    H5336165   1.113   4.550   3.408 -1.5563  3.1963  0.7514
  297MOL    H5436166   1.047   4.511   3.260  0.7662 -3.0105  1.7273
  297MOL    H5536167   1.178   4.787   3.313  1.5757 -1.2092  0.3704
  297MOL    C5636168   1.062   4.753   3.124  0.0319 -0.5560 -0.2700
  297MOL    C5736169   1.069   4.905   3.083  0.3495 -0.1308  0.3595
  297MOL   Cl5836170   0.951   4.999   3.177  0.0508 -0.2318 -0.0680
  297MOL    H5936171   0.969   4.701   3.102 -0.1728  0.7758 -2.8186
  297MOL    H6036172   1.136   4.702   3.062 -0.7004 -1.1192 -0.6848
  297MOL    H6136173   1.165   4.953   3.100  2.0172 -2.2121 -2.5661
  297MOL    C6236174   1.039   4.929   2.925 -0.0025 -0.3143  0.3028
  297MOL    C6336175   1.155   4.870   2.831  0.4119  0.3811  0.1815
  297MOL   Cl6436176   1.317   4.919   2.897 -0.2043  0.3946  0.1180
  297MOL    H6536177   1.014   5.035   2.914  1.8883  0.1103 -0.0987
  297MOL    H6636178   0.948   4.873   2.901 -0.0408  0.5023 -1.5594
  297MOL    H6736179   1.143   4.762   2.833  2.3017  0.1867  1.7790
  297MOL    C6836180   1.140   4.924   2.687  0.2535 -0.1380 -0.7622
  297MOL    C6936181   1.022   4.865   2.606  0.3829 -0.2336  0.4402
  297MOL   Cl7036182   1.050   4.696   2.562  0.0475  0.0005 -0.0231
  297MOL    H7136183   1.233   4.892   2.639 -0.2629 -0.8366 -1.3148
  297MOL    H7236184   1.123   5.032   2.692 -2.2447 -0.5464 -0.0180
  297MOL    H7336185   0.933   4.868   2.669 -1.6132  1.5319 -2.3462
  297MOL    C7436186   0.979   4.946   2.474 -0.1006 -0.0011  0.3108
  297MOL    C7536187   0.907   5.078   2.502  0.3153  0.3835 -0.0343
  297MOL   Cl7636188   0.754   5.061   2.596  0.4438 -0.2109  0.1113
  297MOL    H7736189   0.903   4.885   2.423  1.3548 -2.4470  0.9643
  297MOL    H7836190   1.064   4.961   2.408 -0.3139  1.4383  0.3465
  297MOL    H7936191   0.969   5.141   2.566 -1.1156  1.2803  0.4838
  297MOL    C8036192   0.882   5.160   2.368  0.0002 -0.1749 -0.1430
  297MOL    C8136193   0.763   5.259   2.368 -0.1402 -0.3930  0.8167
  297MOL   Cl8236194   0.724   5.311   2.201  0.0516 -0.3579  0.0161
  297MOL    H8336195   0.851   5.093   2.288  1.8234 -0.3815 -0.6822
  297MOL    H8436196   0.972   5.203   2.324  0.3882 -1.5830 -0.7595
  297MOL    H8536197   0.670   5.211   2.399  0.0323 -1.9654 -0.9534
  297MOL    C8636198   0.794   5.386   2.457  0.9803  0.3417  1.0169
  297MOL    C8736199   0.901   5.485   2.408  0.5053  0.3065  0.9541
  297MOL   Cl8836200   1.063   5.427   2.449  0.0879 -0.0034  0.0944
  297MOL    H8936201   0.813   5.352   2.559  2.8357 -2.5191 -0.2129
  297MOL    H9036202   0.700   5.440   2.461  1.6736  1.5278  2.0943
  297MOL    H9136203   0.901   5.493   2.299  1.4308  0.5142  0.9702
  297MOL    C9236204   0.879   5.624   2.470 -0.3553 -0.0682 -0.2362
  297MOL    C9336205   0.766   5.720   2.429  0.1023  0.0657 -0.3901
  297MOL   Cl9436206   0.805   5.785   2.264  0.1538  0.2044 -0.1405
  297MOL    H9536207   0.974   5.678   2.472  0.4179 -1.4041 -0.3047
  297MOL    H9636208   0.882   5.595   2.575  2.1888  1.4899  0.1698
  297MOL    H9736209   0.669   5.669   2.429 -1.5778  3.1244  1.2676
  297MOL    C9836210   0.751   5.845   2.529  0.2535 -0.6517 -0.1636
  297MOL    C9936211   0.635   5.945   2.496  0.5448 -0.3730  0.4248
  297MOL  Cl10036212   0.648   6.088   2.605 -0.2701 -0.5252  0.0586
  297MOL   H10136213   0.834   5.905   2.566 -1.6892 -0.5288  4.3009
  297MOL   H10236214   0.713   5.805   2.623 -2.5563  0.5205 -0.7440
  297MOL   H10336215   0.650   5.987   2.396 -4.9428  2.9278  0.7608
  297MOL   C10436216   0.491   5.887   2.499 -0.1141 -0.2584 -0.4151
  297MOL   C10536217   0.388   5.978   2.422 -0.2526 -0.0254  0.6963
  297MOL  Cl10636218   0.235   5.922   2.485  0.2394  0.2380  0.3613
  297MOL   H10736219   0.469   5.866   2.604  2.4510 -1.8243 -0.1630
  297MOL   H10836220   0.490   5.792   2.446 -1.4634  0.0430 -0.9581
  297MOL   H10936221   0.410   6.077   2.461  3.0290 -0.1868 -0.6239
  297MOL   C11036222   0.394   5.968   2.271  0.0023  0.1780  0.8232
  297MOL   C11136223   0.315   6.085   2.200  0.0248  0.2611  0.5312
  297MOL  Cl11236224   0.142   6.054   2.198  0.1901  0.1892  0.0099
  297MOL   H11336225   0.355   5.871   2.240 -1.1174  1.6085 -2.6042
  297MOL   H11436226   0.497   5.973   2.237 -0.5635 -0.8175 -1.0873
  297MOL   H11536227   0.338   6.181   2.248 -0.6307 -0.5736  2.5601
  297MOL   C11636228   0.342   6.105   2.045 -0.7083 -0.8032 -0.0591
  297MOL   C11736229   0.284   6.237   1.999  0.0149 -0.4811  0.4477
  297MOL  Cl11836230   0.357   6.379   2.073  0.1588  0.0702 -0.0446
  297MOL   H11936231   0.301   6.024   1.984 -1.1403 -0.3763 -0.3379
  297MOL   H12036232   0.451   6.101   2.034 -0.6299 -1.6346  0.9994
  297MOL   H12136233   0.306   6.234   1.892 -0.4368 -1.4466  0.3714
  297MOL   H12236234   0.175   6.241   1.993  0.1258  2.7321 -0.1281
  298MOL     C136235   6.267   6.047   1.628 -0.5124  0.2861 -1.1955
  298MOL     C236236   6.290   6.038   1.476  0.7566 -0.1579 -0.3476
  298MOL    Cl336237   6.356   5.879   1.445  0.3330 -0.2863  0.1713
  298MOL     H436238   6.356   6.053   1.691 -0.6756 -0.0186 -0.9282
  298MOL     H536239   6.193   6.125   1.646 -1.4615 -1.5728  3.6948
  298MOL     H636240   6.195   6.030   1.423 -0.7960 -1.0980  2.5000
  298MOL     H736241   6.222   5.952   1.656  0.2003  0.3497  0.2244
  298MOL     C836242   6.396   6.139   1.415  0.3128 -0.2044  0.5763
  298MOL     C936243   6.351   6.284   1.413  0.6077 -0.2431 -0.1980
  298MOL   Cl1036244   6.239   6.298   1.274  0.2523  0.1609  0.2495
  298MOL    H1136245   6.418   6.116   1.311  0.4428  2.7674 -0.0983
  298MOL    H1236246   6.486   6.131   1.476  1.1612  2.2352 -0.3137
  298MOL    H1336247   6.298   6.312   1.504  0.9830 -3.7524  1.1895
  298MOL    C1436248   6.468   6.375   1.397  0.0827  0.0067  0.3358
  298MOL    C1536249   6.471   6.501   1.476 -0.5921 -0.6130 -0.3866
  298MOL   Cl1636250   6.484   6.466   1.650  0.2183 -0.2125  0.1662
  298MOL    H1736251   6.497   6.405   1.296 -3.4949 -2.3905 -1.5205
  298MOL    H1836252   6.554   6.324   1.440  0.8068  1.4327  0.6029
  298MOL    H1936253   6.567   6.547   1.453 -1.6286  1.3576 -0.8925
  298MOL    C2036254   6.357   6.605   1.458 -0.1229 -0.1281 -0.5024
  298MOL    C2136255   6.339   6.649   1.314  0.0385  0.5142  0.0750
  298MOL   Cl2236256   6.486   6.741   1.262  0.0599  0.1881  0.2766
  298MOL    H2336257   6.378   6.691   1.523 -0.6292  1.0304 -1.8389
  298MOL    H2436258   6.267   6.553   1.492  1.1434 -2.2383 -0.3125
  298MOL    H2536259   6.333   6.567   1.241 -1.9763  0.8471 -0.1431
  298MOL    C2636260   6.216   6.734   1.293 -0.2720 -0.1614 -0.4896
  298MOL    C2736261   6.190   6.853   1.391 -0.6256  0.0896  0.1343
  298MOL   Cl2836262   6.059   6.791   1.498 -0.1900  0.1497  0.3381
  298MOL    H2936263   6.131   6.667   1.299 -0.1869 -0.3264 -1.0924
  298MOL    H3036264   6.218   6.767   1.189 -0.1715  0.1030 -0.4051
  298MOL    H3136265   6.280   6.871   1.450  1.7510 -0.4689 -3.1424
  298MOL    C3236266   6.142   6.977   1.318  0.3646  0.3279 -0.5663
  298MOL    C3336267   6.245   7.080   1.270  0.4221 -0.1751 -0.4155
  298MOL   Cl3436268   6.323   7.145   1.410  0.1655 -0.1402 -0.5252
  298MOL    H3536269   6.077   7.029   1.388 -0.3222 -0.9811 -0.2161
  298MOL    H3636270   6.084   6.948   1.230 -1.3778 -0.1566  0.7147
  298MOL    H3736271   6.330   7.041   1.214  1.6932 -0.4474  1.6495
  298MOL    C3836272   6.186   7.205   1.198  0.2307  0.0792 -0.1508
  298MOL    C3936273   6.144   7.193   1.052 -0.3482  0.3347  0.1317
  298MOL   Cl4036274   6.205   7.336   0.968 -0.0325 -0.3986  0.4780
  298MOL    H4136275   6.267   7.277   1.196  0.1729  0.1203 -1.1491
  298MOL    H4236276   6.105   7.238   1.264  2.0882  1.9762  1.2457
  298MOL    H4336277   6.189   7.100   1.016 -0.4573  0.0834  0.6343
  298MOL    C4436278   5.993   7.172   1.044  0.4576  0.5051 -0.7196
  298MOL    C4536279   5.931   7.181   0.908  0.5770  0.2217  0.0053
  298MOL   Cl4636280   5.750   7.155   0.940  0.3147 -0.2784  0.3192
  298MOL    H4736281   5.943   7.253   1.098  0.6130 -0.5151  0.9913
  298MOL    H4836282   5.968   7.075   1.087  2.1315 -0.0955 -1.0635
  298MOL    H4936283   5.939   7.283   0.872 -2.1553  0.3343 -0.3869
  298MOL    C5036284   5.978   7.071   0.804 -0.3735 -0.2122  0.2310
  298MOL    C5136285   5.929   7.091   0.660 -0.1801 -0.1256  0.1890
  298MOL   Cl5236286   6.012   6.984   0.555 -0.1664  0.3818 -0.3352
  298MOL    H5336287   5.954   6.967   0.830 -0.6850 -0.0058  0.7798
  298MOL    H5436288   6.086   7.083   0.795 -0.6234  1.2911 -0.7888
  298MOL    H5536289   5.827   7.055   0.649  0.7270 -2.7046 -0.1226
  298MOL    C5636290   5.946   7.233   0.603 -0.2075  0.4136  0.4553
  298MOL    C5736291   5.819   7.321   0.602 -0.6285 -0.6296 -0.0984
  298MOL   Cl5836292   5.700   7.258   0.489 -0.6812 -0.2151 -0.1497
  298MOL    H5936293   5.964   7.222   0.496 -1.3450  0.5243  0.2366
  298MOL    H6036294   6.022   7.282   0.664  0.5599 -0.3810  0.1473
  298MOL    H6136295   5.759   7.320   0.693 -0.5294  0.3085 -0.0265
  298MOL    C6236296   5.843   7.470   0.571  0.2878 -0.0853 -0.2753
  298MOL    C6336297   5.910   7.549   0.683  0.3134 -0.7252 -0.0396
  298MOL   Cl6436298   5.808   7.547   0.825  0.0089 -0.1520  0.2622
  298MOL    H6536299   5.744   7.512   0.554  0.1500 -0.5127 -0.5274
  298MOL    H6636300   5.892   7.479   0.474  1.5629 -0.7573  0.2843
  298MOL    H6736301   6.000   7.494   0.711  0.5229 -1.5376 -2.2281
  298MOL    C6836302   5.928   7.691   0.648 -0.1634 -0.0836  0.0287
  298MOL    C6936303   6.061   7.753   0.717  0.6749  0.3127 -0.4554
  298MOL   Cl7036304   6.202   7.656   0.665 -0.1813 -0.0821 -0.0254
  298MOL    H7136305   5.841   7.750   0.676 -0.5571 -0.6273 -0.0419
  298MOL    H7236306   5.934   7.708   0.541 -2.8622 -0.1633 -0.1685
  298MOL    H7336307   6.082   7.851   0.674 -0.0011 -0.7193 -3.2287
  298MOL    C7436308   6.064   7.765   0.867 -0.3709  0.3001  0.2100
  298MOL    C7536309   5.961   7.844   0.950 -0.2522 -0.5140 -0.2735
  298MOL   Cl7636310   5.949   8.002   0.872 -0.1062 -0.4077  0.1539
  298MOL    H7736311   6.161   7.808   0.890 -0.7268  0.3868  1.5566
  298MOL    H7836312   6.058   7.662   0.902  1.7833 -0.2402 -0.9191
  298MOL    H7936313   5.865   7.793   0.938  0.2341 -1.3885 -0.5149
  298MOL    C8036314   5.996   7.872   1.098  0.4575  0.4352 -0.4121
  298MOL    C8136315   6.019   7.747   1.174  0.5507 -0.1976 -0.3549
  298MOL   Cl8236316   5.866   7.663   1.197  0.0253  0.5202  0.3462
  298MOL    H8336317   5.915   7.924   1.149 -0.2648 -1.5904  0.5917
  298MOL    H8436318   6.076   7.945   1.106 -1.2139  2.1499  1.1652
  298MOL    H8536319   6.095   7.688   1.122 -0.6443 -1.1149 -1.0878
  298MOL    C8636320   6.081   7.775   1.315 -0.1456 -0.0959  0.4455
  298MOL    C8736321   6.120   7.648   1.400 -0.5940 -0.7336  0.5846
  298MOL   Cl8836322   6.143   7.705   1.571 -0.1375 -0.1494  0.1630
  298MOL    H8936323   6.003   7.824   1.374 -0.7351  0.4750 -0.7911
  298MOL    H9036324   6.168   7.841   1.315 -0.0448 -0.2215  1.3291
  298MOL    H9136325   6.027   7.591   1.404 -1.2654  0.3005  0.0123
  298MOL    C9236326   6.227   7.550   1.362 -0.0647 -0.9396 -1.0314
  298MOL    C9336327   6.369   7.603   1.344 -0.9840  0.2144  0.0174
  298MOL   Cl9436328   6.376   7.698   1.190  0.2923  0.0706 -0.0104
  298MOL    H9536329   6.203   7.501   1.268 -0.7510 -2.2798 -0.1697
  298MOL    H9636330   6.240   7.472   1.437  0.3175  0.4177  0.3278
  298MOL    H9736331   6.390   7.673   1.425 -0.3662 -1.3022  1.1986
  298MOL    C9836332   6.483   7.497   1.348  0.9611  0.3215  0.2157
  298MOL    C9936333   6.518   7.432   1.480 -0.1872  0.6148  0.0634
  298MOL  Cl10036334   6.599   7.544   1.595  0.0899 -0.3309  0.2656
  298MOL   H10136335   6.573   7.548   1.313  0.8892  1.9948  2.3960
  298MOL   H10236336   6.464   7.419   1.273 -1.1661 -0.2559  1.3220
  298MOL   H10336337   6.426   7.390   1.521 -0.9916  1.9066 -0.3831
  298MOL   C10436338   6.625   7.318   1.454 -0.1098 -0.1466  0.2591
  298MOL   C10536339   6.679   7.230   1.561  0.5768 -0.1861 -0.4728
  298MOL  Cl10636340   6.777   7.102   1.491  0.0377 -0.3055 -0.3322
  298MOL   H10736341   6.710   7.362   1.402 -1.3581  1.5388 -0.3888
  298MOL   H10836342   6.582   7.256   1.375 -0.2212  1.9348 -1.3691
  298MOL   H10936343   6.750   7.291   1.617 -0.3174  3.5334 -3.2249
  298MOL   C11036344   6.595   7.156   1.666 -0.0855 -0.7552 -0.1677
  298MOL   C11136345   6.675   7.103   1.792  0.2754 -0.7672  0.4982
  298MOL  Cl11236346   6.761   6.946   1.761  0.0441  0.3591 -0.2108
  298MOL   H11336347   6.549   7.075   1.610 -1.0721  0.2256 -0.7964
  298MOL   H11436348   6.515   7.224   1.695  1.3485  0.3348  1.3646
  298MOL   H11536349   6.750   7.167   1.837  2.8201 -0.6614 -3.6054
  298MOL   C11636350   6.581   7.073   1.902 -0.4572  0.4263 -0.5503
  298MOL   C11736351   6.563   7.194   1.990  0.2301 -0.4737  0.2798
  298MOL  Cl11836352   6.403   7.195   2.075 -0.2220 -0.0962 -0.1176
  298MOL   H11936353   6.615   6.981   1.951  2.9652  2.4343  0.9866
  298MOL   H12036354   6.483   7.037   1.870 -1.0909  0.3905  1.3579
  298MOL   H12136355   6.635   7.210   2.070  1.6191  1.8345 -1.3773
  298MOL   H12236356   6.556   7.284   1.929 -2.3237 -0.5148  0.4615
  299MOL     C136357   6.439   1.838   2.458  0.0813 -0.3961  0.0347
  299MOL     C236358   6.362   1.706   2.459  0.2321  0.1696  0.0464
  299MOL    Cl336359   6.385   1.632   2.292 -0.0487 -0.1117  0.1561
  299MOL     H436360   6.429   1.887   2.555 -1.4719 -2.5161  0.9842
  299MOL     H536361   6.545   1.823   2.438  0.4004  1.7487 -0.0128
  299MOL     H636362   6.420   1.654   2.535 -0.2762  0.4074  0.5965
  299MOL     H736363   6.401   1.903   2.379 -1.0760 -2.7382 -1.3834
  299MOL     C836364   6.215   1.721   2.496 -0.0191 -0.1412  0.0432
  299MOL     C936365   6.153   1.589   2.540  0.9550 -0.8298  0.0705
  299MOL   Cl1036366   5.974   1.595   2.510 -0.2084 -0.4033 -0.3347
  299MOL    H1136367   6.174   1.757   2.402  2.1039 -0.2286 -0.9400
  299MOL    H1236368   6.205   1.792   2.578  1.8779  0.6531 -0.3936
  299MOL    H1336369   6.178   1.510   2.470 -0.6479 -0.8232 -0.5418
  299MOL    C1436370   6.174   1.537   2.683 -0.9780 -0.2076  0.3439
  299MOL    C1536371   6.091   1.412   2.742  0.0430  0.2308 -0.0169
  299MOL   Cl1636372   6.180   1.370   2.877  0.1027 -0.1117  0.1842
  299MOL    H1736373   6.170   1.614   2.759 -1.3036 -0.4471  0.5703
  299MOL    H1836374   6.280   1.513   2.688 -0.7025  1.1658  1.6490
  299MOL    H1936375   5.991   1.445   2.773 -0.0693  0.0551 -0.1904
  299MOL    C2036376   6.086   1.298   2.636  0.2899  0.6365  0.6092
  299MOL    C2136377   5.985   1.184   2.669 -0.6129 -0.7508 -0.6115
  299MOL   Cl2236378   5.818   1.257   2.674  0.0243 -0.0423 -0.1333
  299MOL    H2336379   6.187   1.257   2.627 -0.4791 -1.3024  0.4923
  299MOL    H2436380   6.047   1.322   2.537 -1.2547 -1.4310  0.6669
  299MOL    H2536381   5.988   1.112   2.587 -1.3743  0.4530 -1.7127
  299MOL    C2636382   6.005   1.109   2.810 -0.6063  0.1003  0.3300
  299MOL    C2736383   6.137   1.034   2.813  0.8341  0.2146  0.1590
  299MOL   Cl2836384   6.127   0.901   2.691 -0.1174 -0.0211  0.0567
  299MOL    H2936385   5.924   1.040   2.836  0.9200 -2.2070 -0.8674
  299MOL    H3036386   6.007   1.182   2.891 -1.6004 -1.7066  2.0590
  299MOL    H3136387   6.218   1.095   2.774  0.8230 -1.1940 -2.1267
  299MOL    C3236388   6.181   0.966   2.944 -0.0273  0.3523  1.0450
  299MOL    C3336389   6.326   0.922   2.944  0.9151  0.3422  0.3166
  299MOL   Cl3436390   6.339   0.770   3.038 -0.1587  0.4266 -0.2491
  299MOL    H3536391   6.123   0.874   2.955 -0.1395  0.1023 -1.4940
  299MOL    H3636392   6.145   1.014   3.035 -3.2169  1.3114 -0.6715
  299MOL    H3736393   6.351   0.893   2.841  0.2719 -1.2771  0.5988
  299MOL    C3836394   6.422   1.020   3.006 -0.1698 -0.5555 -0.0996
  299MOL    C3936395   6.573   0.979   2.996 -0.1995  0.6951  0.1779
  299MOL   Cl4036396   6.663   1.070   3.125  0.1847 -0.2904 -0.6126
  299MOL    H4136397   6.393   1.032   3.110  0.0487 -1.2598  0.0427
  299MOL    H4236398   6.398   1.118   2.963  0.2050 -1.3784 -2.2740
  299MOL    H4336399   6.571   0.874   3.024 -1.3914  1.1646  1.9324
  299MOL    C4436400   6.635   0.996   2.863 -0.1320  0.0090 -0.7894
  299MOL    C4536401   6.645   1.145   2.823  0.3498  0.2829 -0.2669
  299MOL   Cl4636402   6.500   1.178   2.723 -0.4867  0.2197  0.0471
  299MOL    H4736403   6.577   0.930   2.799 -1.1781 -1.1281  1.2747
  299MOL    H4836404   6.739   0.961   2.867 -0.3338 -0.3533  3.1165
  299MOL    H4936405   6.628   1.210   2.909  0.2233 -0.0915 -0.0058
  299MOL    C5036406   6.760   1.183   2.746  0.1558 -0.3648 -0.2419
  299MOL    C5136407   6.794   1.330   2.761 -0.0262 -0.2041 -0.2626
  299MOL   Cl5236408   6.870   1.358   2.920 -0.0285  0.0154 -0.2247
  299MOL    H5336409   6.756   1.151   2.642  0.9599  0.5579 -0.5685
  299MOL    H5436410   6.850   1.138   2.788  1.6036  2.5511 -0.0722
  299MOL    H5536411   6.875   1.322   2.689 -0.1718 -0.9219 -0.3477
  299MOL    C5636412   6.709   1.449   2.704  0.8869  0.0567 -0.3396
  299MOL    C5736413   6.773   1.582   2.739 -0.2119  0.7480 -0.5439
  299MOL   Cl5836414   6.659   1.711   2.703 -0.0362 -0.1687 -0.1485
  299MOL    H5936415   6.618   1.437   2.762  0.8183  0.6511 -0.3217
  299MOL    H6036416   6.686   1.438   2.598  0.5688  1.6488 -0.4480
  299MOL    H6136417   6.788   1.584   2.847 -0.4112  0.4292 -0.5109
  299MOL    C6236418   6.909   1.606   2.667 -0.0392  0.0654  0.1405
  299MOL    C6336419   6.961   1.756   2.691 -0.2021 -0.5740  0.8509
  299MOL   Cl6436420   7.069   1.797   2.548  0.2277 -0.1243  0.1120
  299MOL    H6536421   6.906   1.587   2.560  1.0739  0.2748  0.0661
  299MOL    H6636422   6.981   1.534   2.705  0.6177  1.0221  0.7487
  299MOL    H6736423   6.883   1.832   2.687  1.6984  1.3797 -0.3394
  299MOL    C6836424   7.052   1.763   2.816 -0.2945  0.2889 -0.9394
  299MOL    C6936425   6.983   1.758   2.949 -0.1580  0.3211 -0.5042
  299MOL   Cl7036426   6.861   1.893   2.948  0.0335  0.2180 -0.0442
  299MOL    H7136427   7.111   1.855   2.818 -1.9056  1.3891 -2.8313
  299MOL    H7236428   7.122   1.680   2.806 -0.0224  0.2197  1.1687
  299MOL    H7336429   6.931   1.665   2.968  0.6375 -0.5355 -2.3911
  299MOL    C7436430   7.082   1.783   3.071 -0.4650  0.0065 -0.1394
  299MOL    C7536431   7.196   1.686   3.082 -0.2436 -0.1193  0.3693
  299MOL   Cl7636432   7.128   1.518   3.117 -0.0772 -0.0435  0.3825
  299MOL    H7736433   7.028   1.782   3.165  0.3224  0.4226  0.3220
  299MOL    H7836434   7.125   1.883   3.073 -1.3000  0.3546  2.4757
  299MOL    H7936435   7.253   1.681   2.990 -1.6653  0.2462 -0.5379
  299MOL    C8036436   7.291   1.723   3.196  0.2927 -0.6464 -0.1432
  299MOL    C8136437   7.415   1.630   3.202  0.0328  0.2420  0.0200
  299MOL   Cl8236438   7.441   1.570   3.360  0.5126 -0.0913 -0.2894
  299MOL    H8336439   7.242   1.727   3.293 -1.8544 -3.1182 -1.0602
  299MOL    H8436440   7.338   1.818   3.170 -0.3153  0.0386  1.2409
  299MOL    H8536441   7.398   1.534   3.153 -1.1141  1.4005 -1.8957
  299MOL    C8636442   7.552   1.703   3.175 -0.4516 -0.3514  0.7494
  299MOL    C8736443   7.592   1.728   3.030  0.4653  0.4197 -0.1477
  299MOL   Cl8836444   7.481   1.834   2.942  0.2976 -0.1427  0.1494
  299MOL    H8936445   7.625   1.632   3.214 -0.9833 -0.0120  2.3903
  299MOL    H9036446   7.550   1.802   3.220 -1.0190  0.0217 -0.0693
  299MOL    H9136447   7.690   1.776   3.031  1.2749 -1.1994 -1.0894
  299MOL    C9236448   7.604   1.596   2.948  0.1620  0.4134  0.2854
  299MOL    C9336449   7.677   1.608   2.813  0.9216  0.0736 -0.2916
  299MOL   Cl9436450   7.651   1.465   2.714 -0.1871 -0.1434  0.3411
  299MOL    H9536451   7.503   1.557   2.932  0.8954 -0.9047 -1.2898
  299MOL    H9636452   7.643   1.518   3.013  1.1525  3.8225  3.9246
  299MOL    H9736453   7.634   1.691   2.756  0.7943  0.1292 -0.1149
  299MOL    C9836454   7.830   1.623   2.834 -0.3614  0.5288  0.5046
  299MOL    C9936455   7.881   1.752   2.769 -0.2568  0.4010  0.0009
  299MOL  Cl10036456   7.874   1.728   2.592  0.0730  0.0144  0.1602
  299MOL   H10136457   7.886   1.543   2.786 -2.6340  0.3546 -2.0194
  299MOL   H10236458   7.847   1.625   2.941 -0.1703 -0.3774  0.5001
  299MOL   H10336459   7.815   1.831   2.806  0.0565  1.8224 -2.3952
  299MOL   C10436460   8.028   1.784   2.803 -0.1373  0.0265  0.0593
  299MOL   C10536461   8.093   1.911   2.752 -0.1941  0.4285  0.0568
  299MOL  Cl10636462   8.267   1.877   2.751 -0.2040 -0.2702  0.2832
  299MOL   H10736463   8.085   1.697   2.771  2.6026  1.0923  1.8598
  299MOL   H10836464   8.035   1.781   2.912  0.1739  2.2205  0.1252
  299MOL   H10936465   8.060   1.913   2.648 -2.9540  0.8082  0.8978
  299MOL   C11036466   8.056   2.037   2.826 -0.3491 -0.2493 -0.2943
  299MOL   C11136467   8.076   2.170   2.757 -0.2944  0.1511  0.0088
  299MOL  Cl11236468   8.056   2.299   2.872  0.1728 -0.1268 -0.1828
  299MOL   H11336469   8.125   2.044   2.910  2.1718 -1.2421 -2.2007
  299MOL   H11436470   7.959   2.027   2.876 -0.9557 -1.6052 -1.7228
  299MOL   H11536471   8.176   2.192   2.718  0.1022 -0.7638  0.4969
  299MOL   C11636472   7.974   2.188   2.651  0.4135 -0.1029 -0.3250
  299MOL   C11736473   7.949   2.332   2.603 -0.2568 -0.8925 -0.0411
  299MOL  Cl11836474   7.879   2.326   2.436 -0.2528 -0.1651  0.0299
  299MOL   H11936475   7.879   2.161   2.697  0.1114  2.0684  0.3658
  299MOL   H12036476   7.999   2.124   2.566  1.9174  0.0433  0.0053
  299MOL   H12136477   7.877   2.384   2.666  0.3629 -1.4738  1.1748
  299MOL   H12236478   8.046   2.379   2.585 -0.8541  0.1403 -0.5723
  300MOL     C136479   4.904   8.116   6.141  0.1772  0.5549 -0.5834
  300MOL     C236480   4.847   8.201   6.256 -0.1281 -0.1745  0.6186
  300MOL    Cl336481   4.839   8.099   6.402 -0.1131 -0.0675  0.4826
  300MOL     H436482   4.929   8.172   6.051  2.0194  0.6022 -0.0621
  300MOL     H536483   4.998   8.065   6.162  0.1188  0.7081  0.0753
  300MOL     H636484   4.913   8.283   6.285  0.0150  0.2022 -0.7671
  300MOL     H736485   4.826   8.045   6.113  0.9456 -0.6567  0.3281
  300MOL     C836486   4.711   8.258   6.222  0.2878 -0.2406  0.0919
  300MOL     C936487   4.715   8.391   6.127 -1.1136 -0.0647 -0.1022
  300MOL   Cl1036488   4.763   0.005   6.225  0.2103  0.0997 -0.1648
  300MOL    H1136489   4.663   8.290   6.314 -1.2632 -0.9071 -0.4767
  300MOL    H1236490   4.643   8.185   6.179  1.2903  0.8419 -3.5409
  300MOL    H1336491   4.791   8.375   6.050  0.3310  0.1579  1.2495
  300MOL    C1436492   4.584   8.421   6.050 -0.0603 -0.2302  0.1227
  300MOL    C1536493   4.557   8.326   5.924  0.7983  0.9738  0.9206
  300MOL   Cl1636494   4.693   8.333   5.809 -0.3000  0.1462 -0.0639
  300MOL    H1736495   4.579   8.520   6.004  0.3148 -0.2494  0.0368
  300MOL    H1836496   4.510   8.403   6.128 -1.5782 -1.3007 -1.5247
  300MOL    H1936497   4.555   8.220   5.952 -0.8358  0.0557 -2.4184
  300MOL    C2036498   4.427   8.368   5.854  0.1201 -0.2095  0.1767
  300MOL    C2136499   4.304   8.347   5.947  0.4865  0.0522  0.0332
  300MOL   Cl2236500   4.292   8.185   6.007 -0.0606  0.0100 -0.0831
  300MOL    H2336501   4.415   8.319   5.757 -1.2903 -1.0680  0.7564
  300MOL    H2436502   4.431   8.475   5.839 -0.3957 -0.1131  0.6807
  300MOL    H2536503   4.313   8.408   6.037 -1.0470 -1.9618  1.5880
  300MOL    C2636504   4.175   8.392   5.874 -0.3009 -0.0779 -0.1810
  300MOL    C2736505   4.046   8.381   5.956  0.3898 -0.0653 -0.0109
  300MOL   Cl2836506   3.914   8.463   5.862  0.1356 -0.4223  0.5379
  300MOL    H2936507   4.177   8.331   5.783  0.7091  0.3443 -0.4482
  300MOL    H3036508   4.185   8.496   5.842 -0.5398  0.1381  0.4455
  300MOL    H3136509   4.011   8.278   5.959  1.7344 -0.6574 -3.3123
  300MOL    C3236510   4.047   8.434   6.100  0.1699  0.4523  1.1840
  300MOL    C3336511   3.907   8.457   6.159  0.6390 -0.6380 -0.1815
  300MOL   Cl3436512   3.941   0.013   6.315  0.5160  0.0834 -0.0579
  300MOL    H3536513   4.097   0.006   6.098 -0.4888  0.7769 -0.1386
  300MOL    H3636514   4.114   8.386   6.172 -0.9014  0.7358  2.3813
  300MOL    H3736515   3.854   0.007   6.102  0.0818 -1.9722 -1.4666
  300MOL    C3836516   3.827   8.325   6.188  0.0561 -0.1700  0.5720
  300MOL    C3936517   3.688   8.325   6.256 -0.6201 -0.0035 -0.3410
  300MOL   Cl4036518   3.675   8.152   6.320 -0.0914 -0.4215 -0.3916
  300MOL    H4136519   3.900   8.260   6.236  0.0342  0.4893  1.5161
  300MOL    H4236520   3.809   8.273   6.094  1.0899  0.1912  0.1650
  300MOL    H4336521   3.696   8.395   6.339  1.2497  3.2311 -3.1230
  300MOL    C4436522   3.574   8.368   6.170 -0.6109  0.9938 -0.1814
  300MOL    C4536523   3.434   8.364   6.243  0.2018  0.3224 -0.5091
  300MOL   Cl4636524   3.305   8.354   6.118  0.1916 -0.6033 -0.3873
  300MOL    H4736525   3.569   8.297   6.087 -1.7922 -0.5018  1.1548
  300MOL    H4836526   3.593   8.471   6.139 -1.8434  1.1206 -0.5216
  300MOL    H4936527   3.426   8.274   6.304  0.4820  0.7864  0.2211
  300MOL    C5036528   3.406   8.493   6.317 -0.4155 -0.2391  0.6010
  300MOL    C5136529   3.282   8.498   6.407 -0.3308  0.0809  0.4445
  300MOL   Cl5236530   3.274   0.129   6.502  0.2950 -0.1111 -0.1101
  300MOL    H5336531   3.419   0.033   6.230 -0.2181  0.4021  1.1147
  300MOL    H5436532   3.493   8.501   6.381  0.1370 -0.6878 -0.0944
  300MOL    H5536533   3.190   8.501   6.349 -0.7216  1.6273  1.1121
  300MOL    C5636534   3.273   8.382   6.512  0.0308 -0.4965  0.6168
  300MOL    C5736535   3.129   8.357   6.574  0.7877  0.7731 -0.2011
  300MOL   Cl5836536   3.149   8.247   6.716  0.1657 -0.0585  0.2199
  300MOL    H5936537   3.349   8.413   6.584 -0.4361  0.7621  0.5849
  300MOL    H6036538   3.298   8.282   6.477 -1.0439 -0.4709 -0.2549
  300MOL    H6136539   3.085   8.446   6.620 -1.6863 -1.5904  2.1515
  300MOL    C6236540   3.023   8.293   6.474  1.1482  1.0128 -0.0066
  300MOL    C6336541   2.883   8.285   6.542 -0.6843 -0.1025 -0.8369
  300MOL   Cl6436542   2.779   8.179   6.439 -0.0494 -0.3648 -0.1058
  300MOL    H6536543   3.055   8.194   6.442 -1.5189 -0.1132  0.6635
  300MOL    H6636544   3.019   8.352   6.383 -1.3582 -1.7743 -1.8006
  300MOL    H6736545   2.896   8.227   6.633  0.3602  2.1597  0.4936
  300MOL    C6836546   2.814   8.425   6.568 -0.2936 -0.3251 -0.3181
  300MOL    C6936547   2.799   8.455   6.711  0.6149  0.4806  0.3757
  300MOL   Cl7036548   2.671   8.349   6.764  0.1881 -0.3155 -0.2048
  300MOL    H7136549   2.716   8.440   6.523  0.4696 -1.2174 -2.3271
  300MOL    H7236550   2.875   8.493   6.509 -1.8661 -0.0995 -1.7121
  300MOL    H7336551   2.883   8.422   6.773  0.3165  0.0517  0.5504
  300MOL    C7436552   2.748   0.077   6.731 -0.7110  0.2236 -0.3895
  300MOL    C7536553   2.850   0.190   6.713  0.2975  0.4423 -0.6486
  300MOL   Cl7636554   2.889   0.233   6.542  0.1174  0.0897 -0.1972
  300MOL    H7736555   2.700   0.081   6.829  2.5718 -2.0675  1.4282
  300MOL    H7836556   2.668   0.098   6.661 -1.1798  1.2732  0.4371
  300MOL    H7936557   2.798   0.274   6.758  1.3951  0.2333  1.0830
  300MOL    C8036558   2.989   0.179   6.789 -0.2609  0.2028  0.8223
  300MOL    C8136559   2.965   0.175   6.943 -0.5943  0.0838  0.0607
  300MOL   Cl8236560   2.883   0.322   6.989 -0.3481  0.1485  0.0554
  300MOL    H8336561   3.050   0.264   6.759 -2.1462  1.8430  1.4993
  300MOL    H8436562   3.041   0.090   6.755 -1.0306  0.9223 -2.3956
  300MOL    H8536563   2.904   0.090   6.972 -1.0352 -0.0431 -1.2016
  300MOL    C8636564   3.098   0.172   7.026  0.7065 -0.4441  0.8792
  300MOL    C8736565   3.186   0.048   6.996  0.3827  0.9244 -0.1931
  300MOL   Cl8836566   3.110   8.422   7.035  0.0495 -0.1931  0.0884
  300MOL    H8936567   3.070   0.175   7.132  0.7174 -2.7083  0.9695
  300MOL    H9036568   3.146   0.267   7.003 -1.9996 -0.0510 -3.4968
  300MOL    H9136569   3.210   0.048   6.890  0.0240  1.3437 -0.2750
  300MOL    C9236570   3.326   0.064   7.063 -1.0852 -0.0080 -0.7280
  300MOL    C9336571   3.424   8.471   7.038 -0.2935 -0.1065  0.2335
  300MOL   Cl9436572   3.585   8.505   7.094  0.3911  0.2296 -0.3367
  300MOL    H9536573   3.306   0.084   7.168 -0.9620  1.2881 -0.9345
  300MOL    H9636574   3.370   0.154   7.020 -0.4339 -0.1071 -0.2752
  300MOL    H9736575   3.387   8.384   7.091 -0.6308 -0.9086 -1.2967
  300MOL    C9836576   3.428   8.435   6.887 -0.3940 -0.4970 -0.6846
  300MOL    C9936577   3.516   8.310   6.855  1.1171 -0.6479 -0.3400
  300MOL  Cl10036578   3.481   8.161   6.943  0.2165 -0.4974 -0.4416
  300MOL   H10136579   3.461   8.522   6.831  0.5738 -0.7706 -0.5394
  300MOL   H10236580   3.325   8.408   6.862 -1.1474 -0.1167  1.8596
  300MOL   H10336581   3.494   8.277   6.753 -1.2090  1.4143 -0.5384
  300MOL   C10436582   3.663   8.331   6.844  0.6126 -0.2969  0.0567
  300MOL   C10536583   3.711   8.461   6.772 -0.3676 -0.1375  0.3653
  300MOL  Cl10636584   3.630   8.483   6.617 -0.1037  0.1548  0.0534
  300MOL   H10736585   3.707   8.251   6.783  0.3134 -1.1236  0.9205
  300MOL   H10836586   3.712   8.318   6.940  1.5284  0.2866 -0.3193
  300MOL   H10936587   3.687   0.028   6.825 -0.4964  0.2103 -0.3028
  300MOL   C11036588   3.864   8.455   6.754 -0.5244 -0.6445 -0.7577
  300MOL   C11136589   3.942   0.046   6.683  0.1181  0.2042 -0.6500
  300MOL  Cl11236590   4.115   8.519   6.680 -0.3108 -0.2072 -0.0243
  300MOL   H11336591   3.880   8.357   6.710 -0.6364 -0.8386 -0.3660
  300MOL   H11436592   3.906   8.441   6.853 -1.7829 -0.0825 -0.1361
  300MOL   H11536593   3.910   0.049   6.579 -1.1631 -1.6050 -0.3365
  300MOL   C11636594   3.919   0.189   6.748 -0.3481 -0.0683 -0.2470
  300MOL   C11736595   4.011   0.293   6.692  0.0740 -0.7770 -0.3023
  300MOL  Cl11836596   3.953   0.363   6.538 -0.3217 -0.1065 -0.1875
  300MOL   H11936597   3.940   0.187   6.855 -2.8595  0.0199  0.2698
  300MOL   H12036598   3.815   0.219   6.740  0.5592  3.0507 -1.1674
  300MOL   H12136599   4.018   0.381   6.756 -1.4973  0.5465 -1.8961
  300MOL   H12236600   4.112   0.260   6.667  0.3489  0.1893 -0.5244
  301MOL     C136601   7.322   2.935   6.253  1.1922  0.6213 -0.0893
  301MOL     C236602   7.451   2.962   6.331  0.6091 -0.4178 -0.6188
  301MOL    Cl336603   7.420   2.928   6.506  0.0852 -0.2659  0.0618
  301MOL     H436604   7.248   3.013   6.271 -0.9200 -1.3305 -0.0173
  301MOL     H536605   7.363   2.968   6.158 -0.1730  0.3655 -0.7706
  301MOL     H636606   7.526   2.890   6.297 -0.1689 -1.6627  0.2373
  301MOL     H736607   7.280   2.836   6.237 -3.0242  2.0389  1.3541
  301MOL     C836608   7.507   3.106   6.324  0.3223  0.7189  0.1656
  301MOL     C936609   7.539   3.153   6.182  0.0091 -0.1520  0.7194
  301MOL   Cl1036610   7.661   3.042   6.115 -0.4844 -0.4223 -0.0560
  301MOL    H1136611   7.593   3.101   6.392  0.2240 -0.1539  0.2251
  301MOL    H1236612   7.433   3.175   6.365 -0.6553 -0.7984  1.0146
  301MOL    H1336613   7.449   3.150   6.120  1.3025  0.3014 -1.2391
  301MOL    C1436614   7.612   3.283   6.187  0.5615 -0.0532 -0.4360
  301MOL    C1536615   7.531   3.409   6.228  0.7873 -0.9696 -0.0265
  301MOL   Cl1636616   7.454   3.467   6.076  0.1427 -0.0507 -0.4140
  301MOL    H1736617   7.663   3.308   6.094 -2.0906  2.0816 -1.3824
  301MOL    H1836618   7.691   3.277   6.262 -0.6181 -2.0218  0.6946
  301MOL    H1936619   7.450   3.390   6.299  1.6846 -0.9910  0.9893
  301MOL    C2036620   7.617   3.516   6.296  0.4578 -0.0119 -0.0980
  301MOL    C2136621   7.556   3.656   6.308  0.2881 -0.3223 -0.0569
  301MOL   Cl2236622   7.684   3.756   6.382  0.0623  0.2548 -0.0040
  301MOL    H2336623   7.709   3.534   6.241  0.6682 -1.0835 -0.1071
  301MOL    H2436624   7.637   3.475   6.395  3.9401 -0.6100 -0.9979
  301MOL    H2536625   7.544   3.695   6.207  0.4747  0.9338  0.3907
  301MOL    C2636626   7.430   3.663   6.393  0.1626  0.4270  0.5006
  301MOL    C2736627   7.373   3.811   6.395  0.1660  0.0136 -0.6273
  301MOL   Cl2836628   7.326   3.856   6.561  0.0020 -0.0963  0.3890
  301MOL    H2936629   7.467   3.623   6.487  2.0736  1.8334  0.3994
  301MOL    H3036630   7.356   3.595   6.351  0.4340  0.0967  0.5556
  301MOL    H3136631   7.439   3.894   6.366 -2.5124  2.7209  0.7661
  301MOL    C3236632   7.247   3.833   6.308  0.4479  0.1053 -0.1250
  301MOL    C3336633   7.285   3.875   6.165 -0.3668 -0.5963  0.7170
  301MOL   Cl3436634   7.358   4.034   6.165  0.1007 -0.0778  0.0045
  301MOL    H3536635   7.192   3.919   6.347  0.4289  0.0992 -0.1375
  301MOL    H3636636   7.186   3.743   6.303  1.4024 -0.4986 -0.9471
  301MOL    H3736637   7.357   3.799   6.133  0.7409 -0.2068  2.2294
  301MOL    C3836638   7.166   3.862   6.061  0.4458 -0.4008  0.1540
  301MOL    C3936639   7.135   3.730   5.991 -0.5896  0.1311 -0.4614
  301MOL   Cl4036640   7.257   3.700   5.871  0.2704  0.0531  0.2677
  301MOL    H4136641   7.164   3.935   5.979  1.3726  0.5356  0.9465
  301MOL    H4236642   7.074   3.889   6.112 -0.1246 -0.5538 -0.7788
  301MOL    H4336643   7.142   3.648   6.062 -1.1233 -0.1343 -0.7114
  301MOL    C4436644   6.998   3.714   5.930  0.4052 -0.7256 -0.0576
  301MOL    C4536645   6.882   3.676   6.027 -0.3971  0.3173  0.0695
  301MOL   Cl4636646   6.842   3.810   6.143 -0.1238 -0.2826  0.1575
  301MOL    H4736647   6.997   3.645   5.845 -0.4806 -0.0330 -0.6267
  301MOL    H4836648   6.970   3.811   5.888  0.7744 -0.5444  0.1218
  301MOL    H4936649   6.793   3.666   5.965  0.8004 -0.3188 -1.5799
  301MOL    C5036650   6.895   3.547   6.115 -0.2836  0.1507  0.1026
  301MOL    C5136651   6.927   3.411   6.049  0.7883 -0.6296 -0.2399
  301MOL   Cl5236652   6.806   3.400   5.918  0.1579 -0.1529  0.3821
  301MOL    H5336653   6.800   3.537   6.168  1.7630 -1.7101  3.6045
  301MOL    H5436654   6.972   3.566   6.190  0.0632 -1.6423  0.2322
  301MOL    H5536655   7.024   3.403   6.001  1.4975 -0.0178  1.0706
  301MOL    C5636656   6.907   3.295   6.150 -0.3371 -0.2487 -0.5230
  301MOL    C5736657   6.988   3.314   6.281  0.0840 -0.1352  0.6066
  301MOL   Cl5836658   7.157   3.287   6.244 -0.5699  0.3143  0.0207
  301MOL    H5936659   6.903   3.193   6.111  0.2092 -0.3210 -0.3948
  301MOL    H6036660   6.802   3.301   6.176 -0.0189  2.9866  0.1409
  301MOL    H6136661   6.992   3.413   6.326  0.9561 -0.4228  1.1803
  301MOL    C6236662   6.944   3.207   6.383 -1.1239  0.2545  0.5459
  301MOL    C6336663   6.813   3.219   6.465 -0.4048  0.0233  0.1657
  301MOL   Cl6436664   6.671   3.146   6.381 -0.0974 -0.2145  0.0218
  301MOL    H6536665   7.030   3.199   6.449 -0.5479 -1.0875 -0.3426
  301MOL    H6636666   6.944   3.110   6.333 -0.1798  1.7156 -2.3746
  301MOL    H6736667   6.829   3.155   6.552  0.0562 -1.2784 -0.8605
  301MOL    C6836668   6.775   3.365   6.507  0.2262 -0.1197  0.7179
  301MOL    C6936669   6.863   3.430   6.612  0.4469  0.0646 -0.0764
  301MOL   Cl7036670   6.862   3.312   6.760 -0.0797  0.0319  0.1727
  301MOL    H7136671   6.674   3.365   6.550 -1.0104  0.1337 -2.1160
  301MOL    H7236672   6.760   3.428   6.419 -2.1714 -0.1851  1.0368
  301MOL    H7336673   6.965   3.429   6.576 -0.4293  0.9857 -2.6346
  301MOL    C7436674   6.820   3.564   6.669 -0.0548 -0.0300  0.1412
  301MOL    C7536675   6.838   3.673   6.561  0.7227 -0.4342 -0.5735
  301MOL   Cl7636676   7.000   3.689   6.500 -0.5534 -0.0538  0.1251
  301MOL    H7736677   6.876   3.598   6.756  1.5859 -0.0376 -0.8872
  301MOL    H7836678   6.716   3.561   6.701  0.0181  1.0685  0.5005
  301MOL    H7936679   6.777   3.629   6.482 -2.2591  2.7094 -0.1390
  301MOL    C8036680   6.783   3.807   6.603 -0.9061  0.1016 -0.1494
  301MOL    C8136681   6.627   3.819   6.621  0.6536  0.1171  0.0475
  301MOL   Cl8236682   6.557   3.797   6.459 -0.2236 -0.0760 -0.2089
  301MOL    H8336683   6.810   3.886   6.533  0.8063 -0.1527  0.1998
  301MOL    H8436684   6.834   3.838   6.694  0.8696 -3.0078 -0.0102
  301MOL    H8536685   6.588   3.743   6.689  0.2952 -1.0999 -1.4877
  301MOL    C8636686   6.591   3.957   6.673 -0.7718  0.5027  0.1230
  301MOL    C8736687   6.459   3.973   6.742 -0.3841  0.0636 -0.0184
  301MOL   Cl8836688   6.415   3.844   6.851 -0.1139  0.1363  0.0697
  301MOL    H8936689   6.594   4.027   6.589 -0.1582  1.2900  0.7872
  301MOL    H9036690   6.667   3.978   6.748 -0.6242  0.9091 -0.1374
  301MOL    H9136691   6.468   4.060   6.807 -1.6792 -0.2381  0.5871
  301MOL    C9236692   6.340   3.991   6.651  0.0703  0.2157 -0.5628
  301MOL    C9336693   6.336   4.118   6.567  0.1912 -0.8368  0.8589
  301MOL   Cl9436694   6.377   4.265   6.662 -0.0602  0.1997 -0.1079
  301MOL    H9536695   6.249   3.988   6.711  1.3220 -1.8161  1.3068
  301MOL    H9636696   6.328   3.898   6.594 -0.4896  0.3967 -0.7435
  301MOL    H9736697   6.420   4.106   6.499 -1.0323  0.4120 -0.9241
  301MOL    C9836698   6.208   4.149   6.487 -0.0481  0.7036 -0.8241
  301MOL    C9936699   6.158   4.038   6.394 -0.4805  0.0125  0.5773
  301MOL  Cl10036700   6.300   3.974   6.302 -0.6509 -0.0711  0.1887
  301MOL   H10136701   6.238   4.236   6.429 -1.9927  2.9809  1.4927
  301MOL   H10236702   6.125   4.185   6.548  0.5727 -1.3533  1.2758
  301MOL   H10336703   6.117   3.952   6.446 -2.1686  1.3058  1.4605
  301MOL   C10436704   6.062   4.087   6.283 -0.1302  0.1285  0.2305
  301MOL   C10536705   5.916   4.099   6.332  0.2963 -0.2407  0.5852
  301MOL  Cl10636706   5.849   3.937   6.342  0.0084  0.1446  0.1793
  301MOL   H10736707   6.058   4.019   6.199 -2.4916 -0.8727  1.1222
  301MOL   H10836708   6.097   4.180   6.238 -1.0944 -0.6339 -2.1736
  301MOL   H10936709   5.912   4.148   6.429 -3.7771  0.9220 -0.0933
  301MOL   C11036710   5.836   4.190   6.236  0.2399  0.2359  0.1671
  301MOL   C11136711   5.686   4.199   6.274  0.0127  0.0379 -0.3775
  301MOL  Cl11236712   5.593   4.288   6.144  0.0205 -0.0823  0.1041
  301MOL   H11336713   5.839   4.141   6.138 -3.9026 -1.0060  0.5485
  301MOL   H11436714   5.886   4.286   6.220  0.3175  0.1926  0.1497
  301MOL   H11536715   5.643   4.099   6.273 -2.2972  0.9961 -0.2380
  301MOL   C11636716   5.657   4.270   6.409 -0.1494  0.1990  0.2870
  301MOL   C11736717   5.533   4.229   6.484  0.0259 -0.0878  0.8956
  301MOL  Cl11836718   5.577   4.079   6.563  0.1382 -0.0841  0.4673
  301MOL   H11936719   5.674   4.377   6.401  0.2808 -0.0122 -2.1844
  301MOL   H12036720   5.729   4.237   6.483 -0.5634 -0.0283  0.5959
  301MOL   H12136721   5.492   4.300   6.557 -0.5641 -0.8182  1.2862
  301MOL   H12236722   5.454   4.215   6.410 -0.0849 -0.8777  1.1531
  302MOL     C136723   4.864   2.961   4.963 -0.5371 -0.0366 -0.4273
  302MOL     C236724   4.823   3.071   4.860  1.3744 -0.4272  0.2235
  302MOL    Cl336725   4.688   3.158   4.929  0.0392  0.3342  0.2365
  302MOL     H436726   4.943   2.892   4.932 -0.6609 -2.4438  4.1284
  302MOL     H536727   4.886   3.003   5.061 -0.9445 -0.8152  0.0076
  302MOL     H636728   4.906   3.141   4.852  2.4045 -1.8264 -1.8089
  302MOL     H736729   4.785   2.887   4.975  0.0383 -0.5079  0.5684
  302MOL     C836730   4.793   3.015   4.717  0.2546  0.2665 -0.9571
  302MOL     C936731   4.915   2.954   4.635  0.0231 -0.6187  0.0414
  302MOL   Cl1036732   5.044   3.082   4.628  0.2055 -0.1845  0.1392
  302MOL    H1136733   4.745   3.092   4.656 -3.0101 -1.6589 -0.9337
  302MOL    H1236734   4.715   2.942   4.737  0.2506  0.1385 -1.4239
  302MOL    H1336735   4.951   2.875   4.700  1.0355 -0.0450  0.1888
  302MOL    C1436736   4.888   2.904   4.488 -0.8667 -0.5674 -0.4536
  302MOL    C1536737   4.828   2.770   4.464  0.0898  0.1465  0.1850
  302MOL   Cl1636738   4.881   2.652   4.576 -0.1936  0.5777  0.1122
  302MOL    H1736739   4.984   2.904   4.437 -2.0017  2.3592 -2.7186
  302MOL    H1836740   4.831   2.981   4.437 -0.3935 -0.5842 -1.0045
  302MOL    H1936741   4.726   2.782   4.501  0.2148  2.0026 -0.0397
  302MOL    C2036742   4.822   2.725   4.318  0.0906 -0.2081  0.5197
  302MOL    C2136743   4.955   2.688   4.245  0.1463 -0.2751 -0.0940
  302MOL   Cl2236744   5.037   2.844   4.201 -0.4545 -0.2119  0.2409
  302MOL    H2336745   4.778   2.800   4.252  1.1490  0.1837  0.2455
  302MOL    H2436746   4.752   2.642   4.313  0.2366 -0.2424 -1.8577
  302MOL    H2536747   5.020   2.651   4.325  0.9084 -0.8861 -0.9928
  302MOL    C2636748   4.934   2.588   4.129  0.0312 -0.1207 -0.2682
  302MOL    C2736749   5.051   2.527   4.062 -0.0949 -1.3985  0.0971
  302MOL   Cl2836750   5.010   2.375   3.980 -0.1537  0.0167  0.1815
  302MOL    H2936751   4.879   2.639   4.049 -1.1729 -1.2242 -0.1543
  302MOL    H3036752   4.866   2.513   4.169  1.6854 -0.8752  1.1843
  302MOL    H3136753   5.078   2.604   3.990 -1.9934 -1.2150 -0.4411
  302MOL    C3236754   5.182   2.504   4.151 -0.0990  0.0364  0.7202
  302MOL    C3336755   5.290   2.614   4.138 -0.3187  0.0366 -0.4225
  302MOL   Cl3436756   5.347   2.625   3.971  0.4008  0.1820  0.4537
  302MOL    H3536757   5.227   2.407   4.130 -0.6435 -0.1158  0.2483
  302MOL    H3636758   5.154   2.500   4.256  0.5449 -0.1544  0.8844
  302MOL    H3736759   5.253   2.715   4.153 -0.2882  0.3251 -2.1948
  302MOL    C3836760   5.415   2.599   4.229  0.4675 -1.3667 -0.2619
  302MOL    C3936761   5.391   2.610   4.380 -0.6683 -0.8248  0.1596
  302MOL   Cl4036762   5.315   2.769   4.409  0.2190  0.0027 -0.1102
  302MOL    H4136763   5.486   2.674   4.194 -0.6350 -0.4207 -0.5331
  302MOL    H4236764   5.466   2.506   4.206  0.7744 -1.2626 -0.0170
  302MOL    H4336765   5.310   2.539   4.399 -2.1740  0.8421 -0.0053
  302MOL    C4436766   5.508   2.585   4.478  0.5168  0.3115 -0.3286
  302MOL    C4536767   5.552   2.435   4.479 -0.2266  0.0587  0.2730
  302MOL   Cl4636768   5.424   2.339   4.556  0.3461 -0.5156 -0.0861
  302MOL    H4736769   5.474   2.610   4.578 -1.3855  0.5802 -1.0125
  302MOL    H4836770   5.601   2.637   4.456 -0.2169  2.3439  1.2818
  302MOL    H4936771   5.567   2.384   4.384 -2.7209  0.0784 -0.1695
  302MOL    C5036772   5.676   2.434   4.568 -0.3843  0.4592  0.4966
  302MOL    C5136773   5.814   2.463   4.492  0.4648 -0.5769  0.4365
  302MOL   Cl5236774   5.858   2.318   4.398 -0.0964  0.1618  0.0142
  302MOL    H5336775   5.689   2.338   4.619  2.1480 -0.3196 -1.5277
  302MOL    H5436776   5.673   2.505   4.651 -0.7530  1.0235 -0.0002
  302MOL    H5536777   5.800   2.535   4.412 -0.2067  0.0504  1.1165
  302MOL    C5636778   5.926   2.508   4.591 -0.0894 -0.2351  0.6448
  302MOL    C5736779   5.915   2.660   4.634 -0.2160  1.1638 -0.2668
  302MOL   Cl5836780   5.941   2.769   4.499  0.3325  0.1848  0.1755
  302MOL    H5936781   6.024   2.485   4.548  0.2041  2.7707 -0.3555
  302MOL    H6036782   5.922   2.445   4.681  1.1377 -2.7293 -0.9861
  302MOL    H6136783   5.813   2.674   4.668 -0.6409  0.1393 -1.0885
  302MOL    C6236784   6.012   2.697   4.750 -0.2704  0.0548 -0.3419
  302MOL    C6336785   6.020   2.848   4.786 -0.4978  0.4583 -0.0611
  302MOL   Cl6436786   6.133   2.858   4.923 -0.0666  0.2958 -0.0703
  302MOL    H6536787   6.113   2.661   4.732 -0.8060 -1.8665  0.3987
  302MOL    H6636788   5.987   2.642   4.840 -2.9121  0.3991 -0.8095
  302MOL    H6736789   6.057   2.911   4.706 -0.2649  1.9127  1.1633
  302MOL    C6836790   5.886   2.922   4.818  0.3714 -0.7181 -0.4052
  302MOL    C6936791   5.890   3.074   4.835 -0.1344  0.5348  0.0150
  302MOL   Cl7036792   5.896   3.148   4.676  0.3033 -0.3319  0.3873
  302MOL    H7136793   5.846   2.881   4.911 -0.0371 -0.8712 -0.6454
  302MOL    H7236794   5.808   2.897   4.746  0.1220  2.1814 -1.2028
  302MOL    H7336795   5.795   3.100   4.881 -0.2221 -2.2429  1.4800
  302MOL    C7436796   6.004   3.134   4.916  0.7176 -1.1275 -0.0348
  302MOL    C7536797   5.994   3.287   4.934 -0.2372  0.5668  0.1597
  302MOL   Cl7636798   6.124   3.327   5.047 -0.0504 -0.2876  0.1413
  302MOL    H7736799   6.095   3.120   4.857  2.5924 -0.6673  2.6682
  302MOL    H7836800   6.020   3.076   5.007 -0.0221 -2.2457 -0.6120
  302MOL    H7936801   6.022   3.334   4.840 -1.0193  1.4308  0.3444
  302MOL    C8036802   5.861   3.349   4.966  0.2881  0.1392 -0.6011
  302MOL    C8136803   5.850   3.501   4.959  0.2374  0.4073 -0.2888
  302MOL   Cl8236804   5.918   3.561   4.802 -0.0255  0.0060  0.0424
  302MOL    H8336805   5.818   3.302   5.054  0.4862 -1.3445 -1.2785
  302MOL    H8436806   5.789   3.318   4.890 -1.3052  1.9367  0.1391
  302MOL    H8536807   5.749   3.541   4.958  0.8609  2.1051  1.9223
  302MOL    C8636808   5.921   3.573   5.071  0.1621 -0.2268  0.1731
  302MOL    C8736809   5.878   3.719   5.108  0.0512  0.9917 -0.2401
  302MOL   Cl8836810   5.702   3.707   5.149 -0.1879 -0.2105  0.4548
  302MOL    H8936811   6.025   3.562   5.039 -0.2845  0.5398 -1.6072
  302MOL    H9036812   5.910   3.511   5.160  2.5601 -2.9135 -1.3194
  302MOL    H9136813   5.924   3.734   5.205  0.0601 -0.6866  0.0415
  302MOL    C9236814   5.914   3.825   5.002  0.3479  0.0530 -0.2912
  302MOL    C9336815   5.918   3.978   5.051  0.5030 -0.0687  0.7986
  302MOL   Cl9436816   5.752   4.031   5.086  0.4278 -0.0465  0.0432
  302MOL    H9536817   5.854   3.813   4.912 -1.1515 -0.2714  0.7394
  302MOL    H9636818   6.009   3.793   4.958  0.2668  2.2078 -2.0576
  302MOL    H9736819   5.973   3.992   5.145  2.5583  1.2332 -0.5589
  302MOL    C9836820   5.985   4.075   4.949 -0.0845 -0.2159 -0.3185
  302MOL    C9936821   6.132   4.051   4.909 -0.8119 -0.6914 -0.1452
  302MOL  Cl10036822   6.235   4.160   5.002 -0.2329  0.2838  0.0594
  302MOL   H10136823   5.982   4.173   4.996 -1.9211  0.2846 -1.4170
  302MOL   H10236824   5.920   4.076   4.862 -1.0552 -2.2386  0.3476
  302MOL   H10336825   6.163   3.950   4.934 -3.1373 -1.2852  0.4563
  302MOL   C10436826   6.154   4.079   4.763  0.4423 -0.2427  0.6293
  302MOL   C10536827   6.263   3.991   4.693  0.5972 -0.0991  0.3026
  302MOL  Cl10636828   6.415   3.965   4.792  0.0419 -0.5293  0.1070
  302MOL   H10736829   6.169   4.186   4.747 -1.3317 -0.1524 -0.5481
  302MOL   H10836830   6.067   4.048   4.705 -0.0064  1.3285  0.4483
  302MOL   H10936831   6.217   3.892   4.687  0.7128 -0.0929 -0.7747
  302MOL   C11036832   6.308   4.042   4.555 -0.2308 -0.9156  0.0662
  302MOL   C11136833   6.430   3.961   4.490  0.4991 -0.5707 -0.3762
  302MOL  Cl11236834   6.485   4.065   4.355  0.1477  0.1632 -0.6366
  302MOL   H11336835   6.352   4.140   4.574 -0.0180 -0.9573 -0.2153
  302MOL   H11436836   6.219   4.034   4.492  0.3689 -0.7587 -0.8100
  302MOL   H11536837   6.517   3.962   4.554  0.5988 -0.0919 -0.5186
  302MOL   C11636838   6.396   3.821   4.435  0.0968 -0.1058 -0.5953
  302MOL   C11736839   6.518   3.738   4.387 -0.5119  0.1480  0.0336
  302MOL  Cl11836840   6.464   3.572   4.369 -0.0279  0.1008 -0.4795
  302MOL   H11936841   6.321   3.827   4.355  0.5455  4.3157 -0.7742
  302MOL   H12036842   6.344   3.769   4.516 -0.6772  1.5271 -0.0245
  302MOL   H12136843   6.566   3.772   4.296 -0.1750 -1.9846 -0.6208
  302MOL   H12236844   6.603   3.744   4.455  0.4728 -1.8223 -0.9799
  303MOL     C136845   5.302   8.434   3.019 -0.6954 -0.3498 -0.1880
  303MOL     C236846   5.286   0.035   2.940  0.2796  0.1005  0.2380
  303MOL    Cl336847   5.194   0.147   3.046 -0.3508  0.1033  0.1783
  303MOL     H436848   5.374   8.445   3.100 -1.9718 -2.5141  1.2962
  303MOL     H536849   5.209   8.403   3.067 -0.7683 -1.6111 -1.0980
  303MOL     H636850   5.386   0.076   2.928  0.3637  0.2039  1.2215
  303MOL     H736851   5.343   8.349   2.963 -2.0902 -0.6728 -0.7539
  303MOL     C836852   5.206   0.009   2.807 -0.4382  0.3827 -0.5136
  303MOL     C936853   5.181   0.120   2.710  0.0388 -0.0749 -0.4821
  303MOL   Cl1036854   5.059   0.060   2.596 -0.2239 -0.4842 -0.0736
  303MOL    H1136855   5.108   8.494   2.833 -0.9251  1.4009 -0.7608
  303MOL    H1236856   5.244   8.443   2.762  0.5658  0.0097  1.0465
  303MOL    H1336857   5.124   0.199   2.760 -0.2958 -0.7361  0.1882
  303MOL    C1436858   5.314   0.181   2.644 -0.3896  0.0270 -0.1748
  303MOL    C1536859   5.305   0.327   2.596  0.2666 -1.1318 -0.4593
  303MOL   Cl1636860   5.461   0.364   2.520  0.0129 -0.3341  0.1827
  303MOL    H1736861   5.345   0.117   2.561 -2.2062  1.2594 -1.8538
  303MOL    H1836862   5.400   0.162   2.708 -0.7287  0.9864  0.5709
  303MOL    H1936863   5.231   0.329   2.516  0.1681 -0.5983 -0.3542
  303MOL    C2036864   5.277   0.440   2.701  0.2659  0.6731 -0.4468
  303MOL    C2136865   5.294   0.582   2.632 -0.0995 -0.5475 -0.3861
  303MOL   Cl2236866   5.244   0.694   2.760 -0.0041  0.1561  0.2032
  303MOL    H2336867   5.346   0.425   2.784 -0.0743 -2.4166 -0.6660
  303MOL    H2436868   5.178   0.432   2.745 -0.2887 -0.3773 -1.8625
  303MOL    H2536869   5.397   0.608   2.608 -0.7333  1.6190 -0.8453
  303MOL    C2636870   5.205   0.615   2.511 -0.2407 -0.3252  0.5547
  303MOL    C2736871   5.228   0.758   2.448 -0.1107  0.1075 -0.5441
  303MOL   Cl2836872   5.107   0.806   2.334 -0.5290  0.2051 -0.8839
  303MOL    H2936873   5.098   0.605   2.533 -0.0132 -1.3118  1.2216
  303MOL    H3036874   5.215   0.537   2.437 -0.3736 -0.7294  0.9613
  303MOL    H3136875   5.208   0.823   2.533  0.5933 -0.0415 -0.2628
  303MOL    C3236876   5.369   0.789   2.382 -0.0610  0.2261 -0.0982
  303MOL    C3336877   5.398   0.743   2.233 -0.2201 -0.2925 -0.2910
  303MOL   Cl3436878   5.527   0.614   2.236 -0.0553 -0.1180 -0.1911
  303MOL    H3536879   5.445   0.749   2.449  1.9656  1.2927 -1.7160
  303MOL    H3636880   5.374   0.898   2.378 -1.7828  0.3919  1.2949
  303MOL    H3736881   5.308   0.696   2.193  0.2944 -1.5160 -0.0239
  303MOL    C3836882   5.441   0.865   2.147  0.4278  0.0951  0.0300
  303MOL    C3936883   5.512   0.834   2.013  0.2890  0.3991 -0.0521
  303MOL   Cl4036884   5.679   0.788   2.049 -0.4714 -0.0916  0.3054
  303MOL    H4136885   5.519   0.912   2.207 -0.2429  0.5316  0.5630
  303MOL    H4236886   5.355   0.931   2.134  0.2916  0.6706  3.3480
  303MOL    H4336887   5.462   0.745   1.974 -1.7747  1.4742  0.1140
  303MOL    C4436888   5.519   0.944   1.908 -0.5881  0.0435 -0.3201
  303MOL    C4536889   5.380   0.990   1.849 -0.5385  0.7622  0.2814
  303MOL   Cl4636890   5.299   0.847   1.766  0.0668  0.3964 -0.1667
  303MOL    H4736891   5.574   0.897   1.826 -1.1519 -2.1621  0.5236
  303MOL    H4836892   5.577   1.027   1.948  1.9499 -2.8340  2.2756
  303MOL    H4936893   5.317   1.023   1.931  1.0284 -2.1373  2.8009
  303MOL    C5036894   5.397   1.107   1.752 -0.1301  0.3917  0.0435
  303MOL    C5136895   5.345   1.241   1.807 -0.1041  0.2258 -0.3565
  303MOL   Cl5236896   5.407   1.261   1.974 -0.5069  0.4145  0.3017
  303MOL    H5336897   5.353   1.094   1.653  1.2436 -1.7199 -0.3276
  303MOL    H5436898   5.502   1.117   1.726 -0.8228 -1.5197 -3.9328
  303MOL    H5536899   5.394   1.322   1.753 -0.9026  1.5918  0.9374
  303MOL    C5636900   5.194   1.259   1.798  0.2565  0.1235 -0.1524
  303MOL    C5736901   5.135   1.398   1.847  0.1299  0.4773  0.3713
  303MOL   Cl5836902   4.957   1.406   1.821 -0.5322  0.1000  0.0908
  303MOL    H5936903   5.148   1.170   1.841  1.8213 -1.4509 -1.6550
  303MOL    H6036904   5.169   1.254   1.692 -4.3149  1.6436  0.7562
  303MOL    H6136905   5.151   1.412   1.954  0.4493  2.7740  0.0508
  303MOL    C6236906   5.200   1.522   1.786  0.6206 -0.3492 -0.3325
  303MOL    C6336907   5.148   1.647   1.850 -0.3661  0.3433 -0.5934
  303MOL   Cl6436908   5.177   1.784   1.742 -0.3800  0.3261  0.4847
  303MOL    H6536909   5.169   1.520   1.682 -0.6524 -3.1382  0.0660
  303MOL    H6636910   5.309   1.519   1.781  0.6093 -1.0922 -0.2052
  303MOL    H6736911   5.041   1.641   1.868 -0.1153 -0.3423  0.6922
  303MOL    C6836912   5.216   1.677   1.987  0.3413 -0.1341 -0.1516
  303MOL    C6936913   5.142   1.781   2.073 -0.2355  0.2985  0.0106
  303MOL   Cl7036914   5.248   1.805   2.209  0.5198  0.1187  0.0006
  303MOL    H7136915   5.318   1.709   1.966 -0.0226  0.1563 -1.5181
  303MOL    H7236916   5.230   1.587   2.048  2.9097  0.4099  0.0954
  303MOL    H7336917   5.137   1.869   2.008 -0.2762 -0.9882 -1.7598
  303MOL    C7436918   5.004   1.727   2.123 -0.4967 -0.0558  0.3203
  303MOL    C7536919   4.926   1.815   2.222  0.3031 -0.3077 -0.2856
  303MOL   Cl7636920   4.777   1.714   2.265 -0.1081  0.1107  0.2936
  303MOL    H7736921   5.011   1.625   2.158  2.8931  0.2613  0.7047
  303MOL    H7836922   4.935   1.718   2.038  0.3496  1.1208 -0.5153
  303MOL    H7936923   4.983   1.833   2.314  2.0947  2.6958 -1.9124
  303MOL    C8036924   4.881   1.948   2.154  0.2207  0.0783  0.1715
  303MOL    C8136925   4.980   2.072   2.157 -0.6034 -0.0851  0.4088
  303MOL   Cl8236926   5.002   2.091   2.332 -0.2296 -0.3319  0.1775
  303MOL    H8336927   4.794   1.983   2.209  0.7069  0.0061  0.9949
  303MOL    H8436928   4.855   1.934   2.049  0.2465  2.2220 -0.1361
  303MOL    H8536929   5.081   2.051   2.122 -0.4781  2.7282 -1.0623
  303MOL    C8636930   4.918   2.207   2.106 -0.0099  0.1652 -0.2932
  303MOL    C8736931   5.023   2.318   2.102  0.0511 -0.0482  0.0093
  303MOL   Cl8836932   4.956   2.475   2.163 -0.3993 -0.4377 -0.0949
  303MOL    H8936933   4.815   2.220   2.139 -0.1348 -0.6260 -0.3699
  303MOL    H9036934   4.898   2.180   2.002 -0.2397 -1.8534  0.2433
  303MOL    H9136935   5.109   2.301   2.166  1.0119  1.0286 -0.9652
  303MOL    C9236936   5.075   2.361   1.962  0.0964  0.5263 -0.1566
  303MOL    C9336937   5.147   2.254   1.879  0.5899  0.3133 -0.3014
  303MOL   Cl9436938   5.298   2.223   1.975 -0.0593  0.0997  0.4072
  303MOL    H9536939   5.155   2.434   1.970  0.7007 -0.4488  3.3012
  303MOL    H9636940   5.002   2.415   1.901 -1.0399 -1.0512 -0.2211
  303MOL    H9736941   5.092   2.159   1.874  2.0791 -0.5545 -0.3551
  303MOL    C9836942   5.191   2.293   1.736  0.9223 -0.7053 -0.5622
  303MOL    C9936943   5.072   2.344   1.645  0.2141  0.5553  0.2070
  303MOL  Cl10036944   4.943   2.211   1.636  0.2422 -0.3535  0.1914
  303MOL   H10136945   5.222   2.205   1.681  0.9065 -0.7119 -0.5609
  303MOL   H10236946   5.271   2.367   1.744 -0.7407  1.3827 -2.4771
  303MOL   H10336947   5.023   2.434   1.679 -2.4893 -0.6647 -0.3248
  303MOL   C10436948   5.111   2.359   1.492  0.6688  0.7644  0.0339
  303MOL   C10536949   5.186   2.486   1.464 -0.0414  0.2406 -0.1614
  303MOL  Cl10636950   5.079   2.625   1.503 -0.1520  0.4125  0.0468
  303MOL   H10736951   5.026   2.355   1.424  0.6190  1.5412  0.0408
  303MOL   H10836952   5.170   2.272   1.466 -1.5796 -1.2488  1.4796
  303MOL   H10936953   5.267   2.492   1.537  0.6220 -1.1410 -0.7571
  303MOL   C11036954   5.233   2.502   1.318  0.0871  0.2718  0.5700
  303MOL   C11136955   5.361   2.580   1.307 -0.0482 -0.2898 -0.1294
  303MOL  Cl11236956   5.322   2.756   1.303  0.1149  0.0961 -0.2325
  303MOL   H11336957   5.156   2.531   1.246 -0.0534 -0.5271  0.3935
  303MOL   H11436958   5.265   2.403   1.285 -0.8566 -0.4228  1.6910
  303MOL   H11536959   5.421   2.578   1.397 -1.3485 -2.0397  0.7225
  303MOL   C11636960   5.435   2.550   1.177  0.5303 -0.2346 -0.2871
  303MOL   C11736961   5.576   2.609   1.162 -0.8683  0.2696  0.7412
  303MOL  Cl11836962   5.682   2.538   1.044 -0.1742  0.1034  0.2906
  303MOL   H11936963   5.383   2.584   1.087 -1.1831  1.3762  1.2736
  303MOL   H12036964   5.446   2.442   1.180  1.1085 -0.1421  1.3469
  303MOL   H12136965   5.577   2.715   1.138 -2.4088  0.0503 -0.3731
  303MOL   H12236966   5.627   2.589   1.256 -0.6337  0.8204  0.7324
  304MOL     C136967   0.822   1.158   3.351  0.0243 -0.7005  0.0360
  304MOL     C236968   0.811   1.044   3.250 -0.6627 -0.5374  0.5072
  304MOL    Cl336969   0.797   1.113   3.092  0.2633 -0.1907  0.0367
  304MOL     H436970   0.832   1.128   3.455 -0.2161 -1.1545 -0.0677
  304MOL     H536971   0.905   1.226   3.331 -1.0168  0.4907 -0.2869
  304MOL     H636972   0.904   0.986   3.250  0.1555  0.7321 -0.8549
  304MOL     H736973   0.725   1.207   3.357  0.9534  1.0211  1.5230
  304MOL     C836974   0.694   0.948   3.262 -0.0092 -0.0783 -0.1595
  304MOL     C936975   0.694   0.876   3.394 -0.7428 -0.2771  0.2219
  304MOL   Cl1036976   0.845   0.782   3.420  0.1142 -0.0223 -0.2355
  304MOL    H1136977   0.709   0.876   3.182 -0.6602 -0.0108 -0.3413
  304MOL    H1236978   0.593   0.989   3.256  0.2075  0.5791  0.6844
  304MOL    H1336979   0.700   0.942   3.480 -0.7306 -1.7039  1.3271
  304MOL    C1436980   0.579   0.774   3.421 -0.7187  0.2309 -0.1811
  304MOL    C1536981   0.448   0.840   3.464 -0.1278 -0.5698  0.3516
  304MOL   Cl1636982   0.469   0.948   3.600  0.2593 -0.1269 -0.1014
  304MOL    H1736983   0.617   0.705   3.497 -0.9536 -0.3398 -0.5785
  304MOL    H1836984   0.573   0.705   3.336 -0.9795  1.2741 -1.0247
  304MOL    H1936985   0.421   0.902   3.378  0.5635 -0.8324 -0.0600
  304MOL    C2036986   0.340   0.740   3.511  0.7791 -0.4390 -0.3826
  304MOL    C2136987   0.292   0.648   3.397 -0.0790 -0.3238  0.6345
  304MOL   Cl2236988   0.240   0.740   3.248  0.1121  0.3459 -0.2177
  304MOL    H2336989   0.253   0.786   3.558  2.8973  1.9482  1.3369
  304MOL    H2436990   0.381   0.672   3.586  0.0106 -0.3181  0.1502
  304MOL    H2536991   0.384   0.594   3.374  0.0292 -0.8634  2.2925
  304MOL    C2636992   0.168   0.555   3.428 -0.1860  0.1394  0.0640
  304MOL    C2736993   0.202   0.432   3.513 -0.5618 -0.0674 -0.7044
  304MOL   Cl2836994   0.337   0.331   3.448  0.2816 -0.1326 -0.0290
  304MOL    H2936995   0.133   0.511   3.335 -0.0626 -0.8246  0.4675
  304MOL    H3036996   0.082   0.615   3.456 -0.9934  0.1797 -2.3741
  304MOL    H3136997   0.242   0.475   3.605  0.2206 -1.2373 -0.4861
  304MOL    C3236998   0.082   0.338   3.542 -0.0226  0.0975 -1.0560
  304MOL    C3336999   8.498   0.410   3.624 -0.3987  0.0893  0.2119
  304MOL   Cl3437000   0.045   0.438   3.782  0.2973 -0.0266  0.1733
  304MOL    H3537001   0.112   0.245   3.590 -0.3423 -0.4680 -1.9287
  304MOL    H3637002   0.040   0.296   3.451 -0.7093 -1.5792  0.0060
  304MOL    H3737003   8.470   0.502   3.574  0.8458  1.1767  1.4713
  304MOL    C3837004   8.372   0.329   3.645 -0.1818  0.4908  0.7393
  304MOL    C3937005   8.254   0.401   3.720  0.3807 -0.3793 -0.5439
  304MOL   Cl4037006   8.131   0.278   3.766  0.0761 -0.0006  0.0456
  304MOL    H4137007   8.407   0.242   3.700  0.9576 -0.0103 -0.7288
  304MOL    H4237008   8.333   0.300   3.547  0.2820 -0.9730  0.9810
  304MOL    H4337009   8.287   0.435   3.818  2.9617 -2.9086 -0.4413
  304MOL    C4437010   8.178   0.512   3.643  0.4453 -0.0702 -0.2799
  304MOL    C4537011   8.120   0.493   3.504  0.0725 -0.3541 -0.0090
  304MOL   Cl4637012   8.244   0.477   3.375 -0.0185 -0.1449 -0.0559
  304MOL    H4737013   8.242   0.600   3.638  0.5913 -0.1413  0.2819
  304MOL    H4837014   8.092   0.530   3.708 -0.3929 -1.3379 -1.0237
  304MOL    H4937015   8.065   0.399   3.505 -1.0893  0.2644 -2.5844
  304MOL    C5037016   8.023   0.608   3.469  0.2895 -0.7123  0.0750
  304MOL    C5137017   7.937   0.589   3.339  0.1779  0.2334  0.9697
  304MOL   Cl5237018   7.957   0.731   3.231  0.4132  0.0387  0.1680
  304MOL    H5337019   8.082   0.699   3.456 -0.5009 -0.2336 -0.2487
  304MOL    H5437020   7.969   0.630   3.561 -0.1399  2.3193 -0.8300
  304MOL    H5537021   7.984   0.506   3.286 -1.5816  0.7885 -1.5816
  304MOL    C5637022   7.791   0.549   3.355  1.3471  0.1317 -0.1893
  304MOL    C5737023   7.760   0.438   3.457  0.0426 -0.3369 -0.6722
  304MOL   Cl5837024   7.844   0.282   3.416 -0.1104  0.0937 -0.1462
  304MOL    H5937025   7.753   0.520   3.257  0.0009  0.5407  0.1970
  304MOL    H6037026   7.738   0.636   3.393 -1.2069 -0.4203 -2.3602
  304MOL    H6137027   7.809   0.455   3.553 -0.9908 -0.2244 -0.1555
  304MOL    C6237028   7.613   0.401   3.472  0.3245 -0.2760  0.0016
  304MOL    C6337029   7.565   0.317   3.591 -0.3167 -0.2228 -0.3037
  304MOL   Cl6437030   7.446   0.197   3.535 -0.2481 -0.0399 -0.1958
  304MOL    H6537031   7.595   0.358   3.374 -1.0286  1.5346 -0.5800
  304MOL    H6637032   7.563   0.498   3.468  0.1436 -0.4352 -1.6809
  304MOL    H6737033   7.653   0.263   3.626  1.0975  0.2675 -2.9652
  304MOL    C6837034   7.514   0.400   3.714 -0.3722  0.2368 -0.3625
  304MOL    C6937035   7.482   0.313   3.835 -0.0686 -0.3366  0.0547
  304MOL   Cl7037036   7.420   0.415   3.972  0.6602  0.2848  0.0750
  304MOL    H7137037   7.420   0.450   3.689 -0.8887  0.2074  1.4278
  304MOL    H7237038   7.582   0.479   3.745 -0.2098 -0.1673  0.3270
  304MOL    H7337039   7.407   0.236   3.814 -0.9162  0.6180 -0.4338
  304MOL    C7437040   7.592   0.224   3.897  0.1712  0.6585 -0.4978
  304MOL    C7537041   7.722   0.292   3.954 -0.4068  0.6269  0.5667
  304MOL   Cl7637042   7.815   0.394   3.838 -0.2463 -0.1103  0.0611
  304MOL    H7737043   7.617   0.152   3.818 -1.7022 -1.2556  0.6058
  304MOL    H7837044   7.559   0.174   3.988  3.9314 -0.1881  0.4884
  304MOL    H7937045   7.690   0.362   4.031 -0.5194 -1.6069  2.6168
  304MOL    C8037046   7.818   0.185   4.025 -0.7351 -0.2201  0.5716
  304MOL    C8137047   7.867   0.077   3.927 -0.1788  0.7078  0.2765
  304MOL   Cl8237048   7.753   8.464   3.924  0.1830  0.2438 -0.0537
  304MOL    H8337049   7.781   0.143   4.118  0.4044  0.1272  1.1915
  304MOL    H8437050   7.902   0.246   4.057  1.0732 -1.1524 -2.1694
  304MOL    H8537051   7.872   0.122   3.828  4.0976  1.8765  0.9376
  304MOL    C8637052   8.004   0.018   3.963  0.0722  0.1592  0.3154
  304MOL    C8737053   8.091   8.486   3.843 -0.0608  0.1108 -0.1589
  304MOL   Cl8837054   8.038   8.319   3.797 -0.1593  0.0461 -0.0776
  304MOL    H8937055   7.991   8.458   4.030  0.8899 -0.3664 -0.1882
  304MOL    H9037056   8.069   0.097   4.002  2.9098 -0.6398 -2.5922
  304MOL    H9137057   8.063   0.027   3.762 -1.0656  0.6820  0.6444
  304MOL    C9237058   8.245   8.479   3.848 -0.0841 -0.4543  0.5916
  304MOL    C9337059   8.314   8.382   3.953 -0.9470 -0.1257  0.3505
  304MOL   Cl9437060   8.313   8.466   4.117  0.1340 -0.0305  0.0565
  304MOL    H9537061   8.274   0.052   3.887  0.8972 -0.1057 -0.9725
  304MOL    H9637062   8.289   8.464   3.750 -0.6230  1.3146  0.0453
  304MOL    H9737063   8.252   8.293   3.958  0.1736 -0.8657  1.1114
  304MOL    C9837064   8.457   8.332   3.925 -0.8626  0.3770  0.4485
  304MOL    C9937065   8.471   8.265   3.788 -0.3050 -0.0784  0.1846
  304MOL  Cl10037066   8.378   8.116   3.774  0.0704 -0.0533 -0.1030
  304MOL   H10137067   8.489   8.257   3.996  2.8526 -0.4444 -1.9583
  304MOL   H10237068   8.522   8.419   3.933  0.4458 -0.4806 -0.7463
  304MOL   H10337069   8.444   8.334   3.708 -2.4460  1.3311  2.0660
  304MOL   C10437070   0.097   8.238   3.743 -0.0118  0.0865 -0.0060
  304MOL   C10537071   0.172   8.143   3.837  0.6657  0.4492 -0.4686
  304MOL  Cl10637072   0.249   8.244   3.963  0.0908  0.0024  0.1227
  304MOL   H10737073   0.141   8.338   3.744 -1.0419  0.5667 -0.9180
  304MOL   H10837074   0.097   8.211   3.638 -0.9491  0.8465 -0.2127
  304MOL   H10937075   0.100   8.085   3.895  2.0250 -2.3346 -1.4584
  304MOL   C11037076   0.277   8.049   3.772 -0.3780 -0.7875 -0.4391
  304MOL   C11137077   0.373   8.110   3.685  0.3656  0.2715  0.0653
  304MOL  Cl11237078   0.434   7.980   3.579 -0.2254 -0.1762 -0.2388
  304MOL   H11337079   0.214   7.986   3.709 -0.1317 -1.5291  0.0482
  304MOL   H11437080   0.329   7.985   3.845  0.3503  0.8142  0.4782
  304MOL   H11537081   0.340   8.196   3.626  1.1136  0.4974 -0.0370
  304MOL   C11637082   0.498   8.163   3.760 -0.2672 -0.0786  0.1718
  304MOL   C11737083   0.616   8.196   3.669  0.1832  0.1129  0.4230
  304MOL  Cl11837084   0.735   8.286   3.758 -0.2018  0.0584  0.0343
  304MOL   H11937085   0.529   8.100   3.844  1.9104  0.5007 -0.1749
  304MOL   H12037086   0.477   8.262   3.800 -0.1203 -0.1133  0.3363
  304MOL   H12137087   0.660   8.100   3.641  0.6800 -0.2235  2.3222
  304MOL   H12237088   0.595   8.245   3.574  0.1222 -2.5144 -0.9725
  305MOL     C137089   3.139   6.134   3.870 -0.3239 -0.6207  0.4551
  305MOL     C237090   3.276   6.063   3.869 -0.5908  0.6045 -0.5775
  305MOL    Cl337091   3.236   5.916   3.792 -0.4646 -0.1970 -0.5186
  305MOL     H437092   3.058   6.081   3.920 -1.9535  0.5316 -0.9018
  305MOL     H537093   3.150   6.231   3.919 -0.8759 -0.2075 -0.2350
  305MOL     H637094   3.353   6.104   3.805  0.4734 -0.1918  0.1737
  305MOL     H737095   3.113   6.145   3.765 -0.5038  0.0284  0.5674
  305MOL     C837096   3.332   6.039   4.009  0.9342 -0.1239  0.5118
  305MOL     C937097   3.400   6.162   4.067  0.9749  0.3140  0.8685
  305MOL   Cl1037098   3.572   6.169   4.016 -0.2642 -0.3302 -0.6790
  305MOL    H1137099   3.408   5.961   4.006  1.9342  0.8281  0.6038
  305MOL    H1237100   3.253   5.997   4.072  0.7325  0.0424  0.3709
  305MOL    H1337101   3.360   6.248   4.014  3.0409  0.1617 -1.0041
  305MOL    C1437102   3.383   6.167   4.221  0.3566  0.4440 -0.0735
  305MOL    C1537103   3.461   6.276   4.295 -0.1669 -0.7367  0.2335
  305MOL   Cl1637104   3.431   6.248   4.466  0.1518 -0.0015  0.3703
  305MOL    H1737105   3.405   6.070   4.264  2.7174  0.6804 -0.7075
  305MOL    H1837106   3.281   6.184   4.255  1.0965  2.0624  1.3859
  305MOL    H1937107   3.568   6.260   4.278  0.5152  2.0437  1.5354
  305MOL    C2037108   3.423   6.420   4.247  0.0442 -1.1395  0.4744
  305MOL    C2137109   3.517   6.525   4.317 -0.0412  0.0995 -0.3035
  305MOL   Cl2237110   3.444   6.691   4.307 -0.0775  0.5534  0.4775
  305MOL    H2337111   3.320   6.445   4.275 -0.3797 -2.5269  0.2329
  305MOL    H2437112   3.442   6.434   4.141  2.8304  1.5867  1.2738
  305MOL    H2537113   3.515   6.510   4.425  0.8927  1.5627 -0.0614
  305MOL    C2637114   3.658   6.537   4.252  0.1202 -0.1924  0.1044
  305MOL    C2737115   3.749   6.665   4.283 -0.1362  0.3484 -0.6061
  305MOL   Cl2837116   3.891   6.662   4.184  0.1841  0.2649  0.0243
  305MOL    H2937117   3.640   6.552   4.146  0.3767 -0.4821  0.0172
  305MOL    H3037118   3.716   6.445   4.262 -1.3645 -1.1667 -0.0210
  305MOL    H3137119   3.693   6.745   4.235  0.3960  0.6436 -0.7406
  305MOL    C3237120   3.786   6.693   4.431  0.7488  0.2378 -0.6821
  305MOL    C3337121   3.805   6.846   4.453 -0.7309  0.1980 -0.1053
  305MOL   Cl3437122   3.962   6.896   4.378  0.2322  0.0456  0.0369
  305MOL    H3537123   3.871   6.630   4.457  1.0147  0.8930  0.0590
  305MOL    H3637124   3.713   6.649   4.499  0.1501  0.5471 -1.1182
  305MOL    H3737125   3.730   6.915   4.414 -1.8936 -0.5828  0.7336
  305MOL    C3837126   3.817   6.872   4.603 -0.5651  0.1530  0.1735
  305MOL    C3937127   3.673   6.876   4.672  0.2474 -0.3229 -0.2765
  305MOL   Cl4037128   3.575   7.003   4.598 -0.4314  0.1614 -0.1110
  305MOL    H4137129   3.862   6.970   4.622 -1.7207  0.7374 -0.0318
  305MOL    H4237130   3.884   6.797   4.644 -0.1796 -0.7179 -1.9523
  305MOL    H4337131   3.621   6.783   4.650 -0.2429  0.0528 -0.7112
  305MOL    C4437132   3.671   6.903   4.824  0.6562  0.1285  0.0289
  305MOL    C4537133   3.733   6.798   4.923 -0.0347 -0.0171 -0.0632
  305MOL   Cl4637134   3.663   6.636   4.891 -0.0605 -0.0086  0.5753
  305MOL    H4737135   3.572   6.929   4.862  0.4851 -1.1578  0.4947
  305MOL    H4837136   3.730   6.994   4.840  1.8699 -0.7696  0.7318
  305MOL    H4937137   3.841   6.788   4.908  0.1712  0.4760  1.0778
  305MOL    C5037138   3.700   6.848   5.063 -0.0766 -0.1367 -0.5365
  305MOL    C5137139   3.798   6.780   5.164 -0.1713 -0.0725  0.1019
  305MOL   Cl5237140   3.697   6.705   5.295  0.2471  0.0702 -0.2828
  305MOL    H5337141   3.596   6.818   5.077 -0.7186  1.5704 -1.5250
  305MOL    H5437142   3.704   6.957   5.061 -0.3510 -0.1432 -2.3937
  305MOL    H5537143   3.863   6.702   5.123  0.6526  0.9396 -0.5314
  305MOL    C5637144   3.895   6.886   5.226  0.1584 -0.2789 -0.5666
  305MOL    C5737145   4.023   6.922   5.150  0.6880  0.4357 -0.2236
  305MOL   Cl5837146   4.117   6.772   5.116  0.2749 -0.2523 -0.2071
  305MOL    H5937147   3.929   6.838   5.318  0.8404  0.7701 -0.2611
  305MOL    H6037148   3.836   6.972   5.255  2.9060  0.3576  3.6167
  305MOL    H6137149   3.994   6.949   5.048  0.0936 -1.9269 -0.7177
  305MOL    C6237150   4.100   7.028   5.226 -0.2036  0.0659  0.4039
  305MOL    C6337151   4.043   7.160   5.194  1.2053 -0.2459  0.0063
  305MOL   Cl6437152   4.031   7.198   5.018  0.0057  0.0798  0.0846
  305MOL    H6537153   4.200   7.026   5.185 -1.4561  2.0327 -2.9292
  305MOL    H6637154   4.099   7.008   5.334 -0.3156  0.4341  0.4729
  305MOL    H6737155   3.941   7.148   5.231  2.1083  0.7042  2.9803
  305MOL    C6837156   4.101   7.280   5.265 -0.4357 -0.5777 -1.3427
  305MOL    C6937157   4.014   7.410   5.270 -0.1326  0.1663 -0.6867
  305MOL   Cl7037158   4.118   7.543   5.333 -0.0512  0.4900 -0.1797
  305MOL    H7137159   4.197   7.310   5.223  0.1223 -1.1979 -0.5351
  305MOL    H7237160   4.128   7.260   5.369  0.5691  1.2626 -1.2301
  305MOL    H7337161   3.992   7.447   5.170 -3.3996  1.0313  0.2916
  305MOL    C7437162   3.896   7.391   5.370  0.0671  0.3414  0.0464
  305MOL    C7537163   3.799   7.510   5.385 -0.5176  0.3120 -1.0084
  305MOL   Cl7637164   3.697   7.488   5.537 -0.2443 -0.1290 -0.3256
  305MOL    H7737165   3.932   7.369   5.471 -1.7349 -3.0305  0.0477
  305MOL    H7837166   3.840   7.300   5.349  1.1533 -0.1463 -0.8234
  305MOL    H7937167   3.865   7.593   5.411  0.8248 -1.1859  0.5093
  305MOL    C8037168   3.718   7.530   5.260  0.3337  0.6756 -0.3065
  305MOL    C8137169   3.661   7.673   5.228  0.2558 -0.4239  0.1125
  305MOL   Cl8237170   3.549   7.653   5.091  0.1439  0.0624  0.4402
  305MOL    H8337171   3.645   7.449   5.256  0.6767  0.3169  0.6126
  305MOL    H8437172   3.775   7.500   5.172 -0.9935 -0.2041 -0.8848
  305MOL    H8537173   3.594   7.700   5.310  0.1659  1.5871 -0.6115
  305MOL    C8637174   3.780   7.774   5.188 -0.8758  0.0818 -0.9481
  305MOL    C8737175   3.720   7.898   5.122 -0.3772  0.0942 -0.1907
  305MOL   Cl8837176   3.855   8.007   5.080  0.1001 -0.2322  0.5986
  305MOL    H8937177   3.849   7.720   5.124  2.0235  0.9876  1.3077
  305MOL    H9037178   3.830   7.796   5.282 -0.8790  0.8187 -1.1181
  305MOL    H9137179   3.673   7.871   5.027 -1.0473  0.1195  0.1353
  305MOL    C9237180   3.605   7.975   5.201  0.5822 -0.0021  0.6070
  305MOL    C9337181   3.661   8.066   5.322  0.5607 -0.3769  0.2467
  305MOL   Cl9437182   3.723   7.983   5.465 -0.0698  0.2551  0.0582
  305MOL    H9537183   3.527   7.905   5.231 -0.7418  0.7947 -0.9296
  305MOL    H9637184   3.564   8.030   5.117  1.1364  0.4867  0.6550
  305MOL    H9737185   3.735   8.131   5.275 -1.8225  1.4629 -1.1310
  305MOL    C9837186   3.565   8.181   5.363  0.5494 -0.3848  0.1676
  305MOL    C9937187   3.442   8.155   5.456  0.4957  0.3094  0.0819
  305MOL  Cl10037188   3.320   8.082   5.350  0.0145  0.0520  0.3385
  305MOL   H10137189   3.528   8.243   5.282 -2.4368 -2.1119  0.1364
  305MOL   H10237190   3.627   8.249   5.420 -1.6200  1.6202  0.1956
  305MOL   H10337191   3.468   8.080   5.531 -0.4494 -0.1702 -0.0622
  305MOL   C10437192   3.390   8.282   5.532 -0.4283  0.3276  0.7007
  305MOL   C10537193   3.485   8.350   5.639 -0.4435  0.6751  0.0679
  305MOL  Cl10637194   3.526   8.236   5.769 -0.1557  0.1555  0.1467
  305MOL   H10737195   3.301   8.261   5.592 -2.0061 -0.5154 -1.8761
  305MOL   H10837196   3.363   8.365   5.467  0.7069 -0.9100 -1.3951
  305MOL   H10937197   3.582   8.374   5.596  0.2235 -0.8309  0.7061
  305MOL   C11037198   3.415   8.478   5.700  0.4545  0.0899  0.2202
  305MOL   C11137199   3.514   0.050   5.765 -0.5629 -0.5782  0.2297
  305MOL  Cl11237200   3.411   0.175   5.850 -0.0249 -0.2396 -0.4768
  305MOL   H11337201   3.347   8.431   5.771  0.0293 -1.3942 -1.1194
  305MOL   H11437202   3.351   0.003   5.628 -0.6953  0.3053  1.3784
  305MOL   H11537203   3.584   0.006   5.835 -2.1484 -0.8611  1.6768
  305MOL   C11637204   3.587   0.139   5.657  0.1882  0.0124  0.0052
  305MOL   C11737205   3.705   0.223   5.698 -0.3074  0.3322  0.2998
  305MOL  Cl11837206   3.793   0.267   5.548 -0.1225 -0.1840 -0.2883
  305MOL   H11937207   3.515   0.198   5.600  0.9700  0.9303 -0.0408
  305MOL   H12037208   3.626   0.072   5.581 -1.1454  0.0240 -0.7113
  305MOL   H12137209   3.665   0.311   5.748  0.5542 -0.1621  1.8766
  305MOL   H12237210   3.773   0.175   5.768 -1.9123  1.5214  2.7352
  306MOL     C137211   0.392   1.011   5.144  0.1778 -0.5146 -0.6093
  306MOL     C237212   0.495   0.908   5.182  0.4802 -0.8479 -0.4269
  306MOL    Cl337213   0.458   0.853   5.349 -0.0264 -0.0867  0.1009
  306MOL     H437214   0.424   1.062   5.053 -1.7609  2.2042  0.1565
  306MOL     H537215   0.288   0.982   5.132 -0.1243  0.2400  0.0818
  306MOL     H637216   0.494   0.826   5.110 -3.9152 -1.8683  0.6526
  306MOL     H737217   0.387   1.068   5.237 -1.6265 -0.6005 -0.6357
  306MOL     C837218   0.641   0.955   5.158  0.2111  0.1573  0.3458
  306MOL     C937219   0.746   0.833   5.156  0.3785  0.1470 -0.6356
  306MOL   Cl1037220   0.822   0.821   5.310 -0.4778  0.2083 -0.4573
  306MOL    H1137221   0.684   1.021   5.234  3.4928 -0.1329 -1.1443
  306MOL    H1237222   0.645   1.013   5.066 -1.0692 -0.9108 -0.3981
  306MOL    H1337223   0.685   0.745   5.137  0.3388  0.0545 -0.0895
  306MOL    C1437224   0.864   0.852   5.051  0.0243 -0.2496  0.1065
  306MOL    C1537225   0.830   0.837   4.904  0.6475 -0.0672  0.3800
  306MOL   Cl1637226   0.739   0.679   4.882 -0.4451  0.0840 -0.0521
  306MOL    H1737227   0.947   0.784   5.067  1.4615  1.0438 -1.6524
  306MOL    H1837228   0.902   0.954   5.063 -0.8507 -0.0152  1.0009
  306MOL    H1937229   0.757   0.912   4.875 -0.6614 -1.8982 -1.2157
  306MOL    C2037230   0.940   0.839   4.802  0.4889  0.6536  0.7743
  306MOL    C2137231   0.901   0.808   4.655  0.0908  0.3786 -0.3340
  306MOL   Cl2237232   1.044   0.778   4.559 -0.0215 -0.5333 -0.0836
  306MOL    H2337233   1.004   0.754   4.828 -1.4057 -1.2086 -0.4946
  306MOL    H2437234   0.992   0.935   4.803  1.7162  0.0989 -2.7112
  306MOL    H2537235   0.854   0.710   4.656  1.2967 -0.2156 -0.8049
  306MOL    C2637236   0.828   0.926   4.592  0.1431 -0.3098  0.3597
  306MOL    C2737237   0.743   0.881   4.464  0.0507 -0.3081 -0.3014
  306MOL   Cl2837238   0.711   1.022   4.366 -0.3482  0.1295 -0.0722
  306MOL    H2937239   0.900   0.999   4.557  1.1798 -1.6523 -0.3486
  306MOL    H3037240   0.763   0.986   4.656  0.9018  2.0241 -1.0251
  306MOL    H3137241   0.811   0.818   4.407  2.3504 -0.2382  2.2510
  306MOL    C3237242   0.612   0.792   4.499 -0.0224 -0.9249  0.7122
  306MOL    C3337243   0.491   0.866   4.566 -0.1761 -0.3486 -0.0506
  306MOL   Cl3437244   0.514   0.889   4.742 -0.0179  0.0500 -0.1254
  306MOL    H3537245   0.656   0.705   4.547  2.7369  0.7100  1.2571
  306MOL    H3637246   0.597   0.757   4.396 -1.3078  1.5452  0.0279
  306MOL    H3737247   0.491   0.968   4.526  1.2985  0.4099  1.7633
  306MOL    C3837248   0.355   0.794   4.552 -0.0375  0.4786  0.3650
  306MOL    C3937249   0.230   0.861   4.613  0.1937 -0.6373  0.0770
  306MOL   Cl4037250   0.089   0.749   4.588  0.1848  0.0463 -0.0343
  306MOL    H4137251   0.362   0.697   4.601 -1.3001 -0.7102 -1.7306
  306MOL    H4237252   0.344   0.763   4.448  2.9446  0.1633  0.0843
  306MOL    H4337253   0.239   0.872   4.721  1.5316 -0.4390 -0.0451
  306MOL    C4437254   0.188   1.000   4.555 -0.4132  0.0310  0.1641
  306MOL    C4537255   0.063   1.071   4.613  0.1426 -0.3675  0.2505
  306MOL   Cl4637256   0.033   1.212   4.506 -0.0370  0.3782  0.3330
  306MOL    H4737257   0.180   0.991   4.446 -1.3309  1.1690  0.1197
  306MOL    H4837258   0.280   1.055   4.577  0.1927 -1.7684  2.2960
  306MOL    H4937259   8.498   1.011   4.607 -0.4662  0.5049  0.5296
  306MOL    C5037260   0.101   1.130   4.755  0.3780 -0.1970 -0.0204
  306MOL    C5137261   8.508   1.160   4.852  0.2284  0.3207 -0.0713
  306MOL   Cl5237262   8.416   1.305   4.783  0.3346 -0.1179 -0.5209
  306MOL    H5337263   0.170   1.214   4.743 -0.1000 -0.1323 -2.5744
  306MOL    H5437264   0.152   1.049   4.807 -0.4150 -0.9874 -0.4752
  306MOL    H5537265   8.439   1.075   4.848 -2.0212  2.1870 -2.8419
  306MOL    C5637266   0.025   1.184   4.994  0.5386 -0.3992  0.2050
  306MOL    C5737267   8.460   1.136   5.111 -0.2801  0.0986  0.2867
  306MOL   Cl5837268   8.480   0.958   5.149 -0.3015 -0.3677  0.4381
  306MOL    H5937269   0.049   1.290   5.004 -0.9584  0.2746 -3.0130
  306MOL    H6037270   0.117   1.131   5.019  0.8592  0.0123 -0.1032
  306MOL    H6137271   8.505   1.184   5.199  1.1828 -1.9295  0.6606
  306MOL    C6237272   8.313   1.191   5.082  0.4467 -0.3358  0.1087
  306MOL    C6337273   8.227   1.205   5.206 -0.2706 -0.1223 -0.4787
  306MOL   Cl6437274   8.061   1.247   5.170  0.1623  0.1505  0.3958
  306MOL    H6537275   8.268   1.121   5.012 -2.6704  2.5016 -0.8587
  306MOL    H6637276   8.320   1.288   5.034 -0.4958  0.5884  1.8018
  306MOL    H6737277   8.226   1.107   5.254  0.9084 -0.4249 -1.0512
  306MOL    C6837278   8.281   1.322   5.298 -0.0082 -0.5520 -0.0610
  306MOL    C6937279   8.224   1.337   5.449 -0.4566 -0.1760 -0.4601
  306MOL   Cl7037280   8.245   1.505   5.493 -0.0906 -0.2822 -0.0627
  306MOL    H7137281   8.257   1.420   5.257 -0.4908  1.0000  3.6604
  306MOL    H7237282   8.389   1.327   5.310 -0.0873 -0.3263  0.6008
  306MOL    H7337283   8.117   1.324   5.456  0.0077 -3.3869  1.2599
  306MOL    C7437284   8.301   1.254   5.550 -0.1202  0.8088  0.2397
  306MOL    C7537285   8.266   1.277   5.697  0.1889  0.0497 -0.2919
  306MOL   Cl7637286   8.401   1.207   5.798 -0.1102 -0.4763  0.5305
  306MOL    H7737287   8.401   1.298   5.541 -1.0886  2.7993 -0.9251
  306MOL    H7837288   8.311   1.146   5.537  1.3673  0.7884  1.3716
  306MOL    H7937289   8.277   1.381   5.729 -0.0141 -0.1973  0.6161
  306MOL    C8037290   8.128   1.221   5.740 -0.8274  0.5610 -0.2144
  306MOL    C8137291   8.063   1.308   5.843  0.2231  0.5241 -0.4538
  306MOL   Cl8237292   8.154   1.284   6.000  0.2118  0.0778 -0.1648
  306MOL    H8337293   8.146   1.117   5.767 -0.1607  0.0830 -2.3474
  306MOL    H8437294   8.061   1.212   5.654 -1.9173 -2.0692  0.8550
  306MOL    H8537295   8.075   1.412   5.813 -1.0097  0.5347 -0.9461
  306MOL    C8637296   7.920   1.262   5.877  0.6749  0.2869  0.5141
  306MOL    C8737297   7.840   1.349   5.981  0.4311 -0.4293  0.6048
  306MOL   Cl8837298   7.849   1.527   5.951  0.2859  0.1669 -0.2015
  306MOL    H8937299   7.917   1.155   5.897  1.0855  0.3588  0.9532
  306MOL    H9037300   7.867   1.277   5.783  2.3737  2.2224 -0.1681
  306MOL    H9137301   7.735   1.333   5.955  1.0108  1.1651 -3.1513
  306MOL    C9237302   7.850   1.304   6.127  0.2449 -1.1661 -0.3025
  306MOL    C9337303   7.817   1.161   6.153 -0.2996  0.6658  0.1707
  306MOL   Cl9437304   7.656   1.114   6.088 -0.2222 -0.2203 -0.1965
  306MOL    H9537305   7.789   1.372   6.185  1.4341 -2.2986  2.3621
  306MOL    H9637306   7.946   1.328   6.171 -0.1945 -0.3232  0.1968
  306MOL    H9737307   7.892   1.112   6.091 -1.7706  0.9439 -1.8791
  306MOL    C9837308   7.824   1.114   6.302  0.5570 -0.1460 -0.1196
  306MOL    C9937309   7.822   0.961   6.345 -0.1166  0.1143  0.3407
  306MOL  Cl10037310   7.660   0.882   6.347  0.2189 -0.0609  0.2712
  306MOL   H10137311   7.744   1.167   6.354 -0.3228 -0.5950 -1.0051
  306MOL   H10237312   7.923   1.145   6.334  0.4158  2.2522 -1.8511
  306MOL   H10337313   7.883   0.915   6.267  0.1855 -0.6620  1.0345
  306MOL   C10437314   7.878   0.941   6.483 -0.7016 -0.3079 -0.1847
  306MOL   C10537315   7.916   0.798   6.515 -0.4864 -0.5270  0.5806
  306MOL  Cl10637316   7.923   0.780   6.694 -0.0781 -0.2514 -0.5149
  306MOL   H10737317   7.804   0.957   6.561 -1.0056 -2.8894  0.0863
  306MOL   H10837318   7.960   1.005   6.516  1.1856 -3.1492  0.7378
  306MOL   H10937319   7.831   0.737   6.485  0.0855 -1.2501  0.4024
  306MOL   C11037320   8.049   0.747   6.449  0.7896 -0.3882 -0.0220
  306MOL   C11137321   8.072   0.600   6.471  0.0853 -0.1604  0.0440
  306MOL  Cl11237322   8.245   0.566   6.432 -0.1370  0.0402 -0.3179
  306MOL   H11337323   8.135   0.811   6.470  2.0673 -1.2986 -2.3159
  306MOL   H11437324   8.038   0.748   6.341  0.7085 -2.5998 -0.0398
  306MOL   H11537325   8.068   0.572   6.576 -0.3691 -1.1135 -0.2137
  306MOL   C11637326   7.981   0.507   6.384 -0.0030  0.2507 -0.4345
  306MOL   C11737327   8.015   0.359   6.398  0.0597  0.4460 -0.9828
  306MOL  Cl11837328   7.927   0.274   6.273 -0.0737  0.3365  0.5603
  306MOL   H11937329   7.989   0.534   6.279  0.7717  4.3396  0.5877
  306MOL   H12037330   7.877   0.521   6.415 -0.1452  0.4859 -1.0179
  306MOL   H12137331   8.120   0.338   6.379  0.2268  0.7347 -0.3787
  306MOL   H12237332   7.987   0.315   6.493  2.0892  2.1103  0.4446
  307MOL     C137333   3.402   3.554   2.637  0.0488  0.0059  0.3749
  307MOL     C237334   3.253   3.566   2.594  0.1438 -0.5155 -0.0861
  307MOL    Cl337335   3.184   3.693   2.700  0.1901  0.1189 -0.2722
  307MOL     H437336   3.450   3.467   2.593 -0.7596  0.3171 -1.1544
  307MOL     H537337   3.462   3.637   2.601 -2.3347  1.4360 -0.4597
  307MOL     H637338   3.241   3.624   2.503 -0.9464  1.1984  1.1209
  307MOL     H737339   3.410   3.540   2.745 -0.4553  1.1440  0.5737
  307MOL     C837340   3.175   3.432   2.591  0.0292  0.0660  0.0261
  307MOL     C937341   3.144   3.381   2.442 -0.3949 -0.1696  0.6551
  307MOL   Cl1037342   3.059   3.502   2.339  0.2965  0.1030 -0.0422
  307MOL    H1137343   3.082   3.435   2.649  0.8209  0.4386  1.3005
  307MOL    H1237344   3.235   3.363   2.651 -2.1893 -0.9252  1.1697
  307MOL    H1337345   3.244   3.363   2.402 -1.1944 -1.3477 -0.8853
  307MOL    C1437346   3.063   3.251   2.444  0.3127  0.0640  1.3517
  307MOL    C1537347   3.017   3.196   2.307  0.4804  0.3846 -0.3139
  307MOL   Cl1637348   2.880   3.079   2.336  0.1966  0.4196  0.3240
  307MOL    H1737349   2.969   3.266   2.498 -0.7441 -1.6014  0.0133
  307MOL    H1837350   3.099   3.173   2.511  0.5562 -0.4851  0.5786
  307MOL    H1937351   2.968   3.276   2.252 -2.5309  0.2811  2.0532
  307MOL    C2037352   3.125   3.126   2.225  0.3313  0.5511  0.8709
  307MOL    C2137353   3.092   3.030   2.105 -0.2917  0.3770  0.0584
  307MOL   Cl2237354   3.248   2.948   2.050  0.4074 -0.6403  0.0085
  307MOL    H2337355   3.181   3.065   2.297  0.7221 -1.4656 -1.0745
  307MOL    H2437356   3.194   3.204   2.193 -0.2971  0.5066 -0.6308
  307MOL    H2537357   3.038   2.939   2.134 -0.6003  0.6943  0.4853
  307MOL    C2637358   3.045   3.111   1.980  0.2008 -0.0360 -0.2739
  307MOL    C2737359   2.984   3.018   1.867 -0.2559  0.4278  0.0502
  307MOL   Cl2837360   2.849   2.913   1.921 -0.3376 -0.0919 -0.2352
  307MOL    H2937361   3.131   3.169   1.946  0.2308 -0.8001 -1.5276
  307MOL    H3037362   2.978   3.192   2.011  1.2374  0.0199  1.9004
  307MOL    H3137363   2.930   3.081   1.796  1.2649  1.1649 -0.4803
  307MOL    C3237364   3.066   2.923   1.783 -0.0106  0.2043  0.4641
  307MOL    C3337365   3.180   2.982   1.714 -0.4132 -1.0080 -0.2528
  307MOL   Cl3437366   3.124   3.115   1.609  0.1639  0.0240 -0.1624
  307MOL    H3537367   3.005   2.873   1.707  0.5958  1.7313 -1.0521
  307MOL    H3637368   3.100   2.842   1.848  1.6641 -2.7952 -3.8876
  307MOL    H3737369   3.255   3.029   1.777 -2.9480  2.4595  0.2937
  307MOL    C3837370   3.257   2.887   1.626  0.2887 -0.3667  0.4285
  307MOL    C3937371   3.361   2.793   1.691  0.8158  0.2009  0.3897
  307MOL   Cl4037372   3.496   2.897   1.749 -0.2661  0.4712 -0.3289
  307MOL    H4137373   3.311   2.933   1.543 -0.8120 -0.6196 -0.4389
  307MOL    H4237374   3.196   2.810   1.579  1.9022 -1.4203  0.0204
  307MOL    H4337375   3.314   2.756   1.782  0.6508 -2.3565 -0.6944
  307MOL    C4437376   3.424   2.685   1.595 -0.6723 -0.3769 -0.2992
  307MOL    C4537377   3.555   2.614   1.648  0.0448  0.1032  0.6047
  307MOL   Cl4637378   3.695   2.669   1.553  0.1884 -0.1432 -0.0236
  307MOL    H4737379   3.437   2.710   1.490  2.1506 -1.2672 -0.2181
  307MOL    H4837380   3.350   2.605   1.597 -0.8083 -0.2344  1.7037
  307MOL    H4937381   3.575   2.647   1.750  1.5826  0.7191  0.1212
  307MOL    C5037382   3.558   2.460   1.656 -0.2976  0.3339 -0.2087
  307MOL    C5137383   3.686   2.394   1.722  1.2627  0.1746  0.1547
  307MOL   Cl5237384   3.682   2.221   1.671  0.1490 -0.0036 -0.4673
  307MOL    H5337385   3.542   2.430   1.553 -0.5155 -2.1811  0.5171
  307MOL    H5437386   3.467   2.421   1.701  1.1887 -2.6349  0.4080
  307MOL    H5537387   3.758   2.444   1.657  1.1860  1.0935  0.7818
  307MOL    C5637388   3.707   2.422   1.869 -0.3733  0.0307  0.1613
  307MOL    C5737389   3.836   2.368   1.936 -0.1316  0.1203  0.4790
  307MOL   Cl5837390   3.829   2.412   2.107 -0.0295 -0.2823  0.0796
  307MOL    H5937391   3.624   2.386   1.930 -0.3830  1.0540  0.7728
  307MOL    H6037392   3.705   2.528   1.892  0.6755 -0.0445  0.6272
  307MOL    H6137393   3.821   2.260   1.926 -1.1393  0.3283 -0.3290
  307MOL    C6237394   3.963   2.435   1.872  0.0430 -0.0822 -0.7323
  307MOL    C6337395   4.101   2.417   1.946  0.4883 -0.1482  0.5791
  307MOL   Cl6437396   4.188   2.564   1.881  0.1917 -0.4004 -0.0573
  307MOL    H6537397   3.945   2.541   1.857  0.9892  0.1330 -0.3860
  307MOL    H6637398   3.967   2.386   1.775 -0.3393 -0.2759 -0.6535
  307MOL    H6737399   4.098   2.443   2.052  3.3183 -3.3649  1.5055
  307MOL    C6837400   4.165   2.292   1.903 -0.0016 -0.6358 -0.5335
  307MOL    C6937401   4.096   2.157   1.945  0.7626 -0.0171  0.3958
  307MOL   Cl7037402   4.097   2.138   2.122 -0.5102  0.0806 -0.2171
  307MOL    H7137403   4.268   2.289   1.939 -0.2130 -0.4093  0.0892
  307MOL    H7237404   4.173   2.299   1.794  0.2673 -0.7266 -0.5211
  307MOL    H7337405   3.989   2.155   1.927  0.8349  0.4451 -0.0846
  307MOL    C7437406   4.148   2.024   1.894 -0.2980  0.6871  0.0393
  307MOL    C7537407   4.137   1.990   1.742  0.2477  0.0950  0.5946
  307MOL   Cl7637408   4.258   2.084   1.650  0.0434  0.0788 -0.2946
  307MOL    H7737409   4.111   1.941   1.954  2.1617 -0.2138  0.3720
  307MOL    H7837410   4.252   2.018   1.926 -0.3237 -1.9009 -0.2997
  307MOL    H7937411   4.168   1.885   1.736  0.0518  0.1642 -2.3217
  307MOL    C8037412   3.996   2.015   1.679 -0.2469  0.0758  0.1285
  307MOL    C8137413   3.873   1.927   1.712 -0.0662 -0.6693  0.5278
  307MOL   Cl8237414   3.835   1.962   1.882 -0.2840 -0.0546  0.2095
  307MOL    H8337415   4.009   1.984   1.576 -2.2584 -1.0494  0.1955
  307MOL    H8437416   3.964   2.118   1.666 -1.6223 -0.3447  0.1426
  307MOL    H8537417   3.786   1.947   1.650  1.0473  0.0759 -0.8037
  307MOL    C8637418   3.900   1.768   1.698  0.0006  0.0071 -0.2118
  307MOL    C8737419   3.925   1.727   1.555 -0.0481 -0.1755 -0.0701
  307MOL   Cl8837420   3.769   1.734   1.486 -0.0808  0.5312  0.4983
  307MOL    H8937421   3.816   1.712   1.740 -1.6579  1.7790 -1.0965
  307MOL    H9037422   3.973   1.725   1.766  1.0751  0.8032 -0.8560
  307MOL    H9137423   3.985   1.795   1.494 -0.3926 -0.2359 -0.4797
  307MOL    C9237424   3.991   1.594   1.537 -0.1684 -0.0281 -0.1269
  307MOL    C9337425   4.144   1.585   1.579  1.2273 -0.1301 -0.2880
  307MOL   Cl9437426   4.227   1.717   1.494  0.3678  0.0439 -0.0179
  307MOL    H9537427   3.982   1.585   1.429 -0.0456  1.8195 -0.3098
  307MOL    H9637428   3.939   1.507   1.577  1.2457 -0.1591  1.4881
  307MOL    H9737429   4.157   1.591   1.688 -0.1764 -2.6133  0.0386
  307MOL    C9837430   4.220   1.449   1.536  0.6359  0.0242 -0.4886
  307MOL    C9937431   4.368   1.425   1.578 -0.0025  0.8124  0.8270
  307MOL  Cl10037432   4.411   1.267   1.533 -0.1446 -0.0458  0.1822
  307MOL   H10137433   4.213   1.443   1.427  1.2537  1.6628 -0.6292
  307MOL   H10237434   4.167   1.359   1.567 -0.1357  0.2882 -1.0490
  307MOL   H10337435   4.434   1.490   1.520 -0.4931  0.1937 -0.4454
  307MOL   C10437436   4.393   1.444   1.726  0.1470  0.1160  0.5841
  307MOL   C10537437   4.543   1.428   1.772  0.2735  0.4731 -0.0858
  307MOL  Cl10637438   4.548   1.285   1.879  0.0366  0.4324 -0.1698
  307MOL   H10737439   4.332   1.361   1.761  0.6557 -0.3646  0.3369
  307MOL   H10837440   4.367   1.543   1.764 -0.5990 -0.5736  1.9071
  307MOL   H10937441   4.610   1.409   1.687  0.1671  0.4657 -0.1679
  307MOL   C11037442   4.592   1.557   1.838  0.0121  0.6766  0.4081
  307MOL   C11137443   4.597   1.673   1.736 -0.2796 -0.7791 -0.0653
  307MOL  Cl11237444   4.731   1.658   1.625  0.1520  0.1429 -0.2962
  307MOL   H11337445   4.691   1.531   1.876 -0.0366 -0.0781  0.0232
  307MOL   H11437446   4.524   1.580   1.920  0.3883  0.6857  0.7181
  307MOL   H11537447   4.506   1.678   1.677  0.7200 -1.8734 -1.7310
  307MOL   C11637448   4.607   1.806   1.815 -0.0131  0.1017 -0.3021
  307MOL   C11737449   4.610   1.927   1.729 -0.4354 -0.1971  0.0383
  307MOL  Cl11837450   4.589   2.071   1.839 -0.2043 -0.2591  0.2144
  307MOL   H11937451   4.684   1.799   1.892 -0.8819 -1.8453  0.4468
  307MOL   H12037452   4.516   1.819   1.874  0.9839  0.2911  1.2059
  307MOL   H12137453   4.709   1.933   1.684 -0.6262 -1.7123 -0.6470
  307MOL   H12237454   4.529   1.925   1.655  0.8931 -1.8945 -1.4316
  308MOL     C137455   0.729   4.233   2.906 -0.5217 -0.6079  0.2348
  308MOL     C237456   0.722   4.135   2.790 -0.1456  0.5485 -0.5646
  308MOL    Cl337457   0.810   4.201   2.652 -0.3314 -0.0145  0.1143
  308MOL     H437458   0.668   4.321   2.886  1.4258  0.5178 -0.9162
  308MOL     H537459   0.702   4.181   2.998  2.0471 -0.5229  1.0747
  308MOL     H637460   0.768   4.039   2.810 -0.3514  0.7011  0.6885
  308MOL     H737461   0.832   4.267   2.916  0.6986 -3.5386 -1.7388
  308MOL     C837462   0.572   4.123   2.741  0.0754  0.0290 -0.2116
  308MOL     C937463   0.467   4.053   2.834  0.7246 -0.0252  0.0117
  308MOL   Cl1037464   0.525   3.885   2.847 -0.2521  0.0268  0.0668
  308MOL    H1137465   0.546   4.075   2.646 -2.0772  1.2350 -0.2658
  308MOL    H1237466   0.545   4.226   2.716  0.4807  0.2042  0.0673
  308MOL    H1337467   0.467   4.095   2.934 -1.4908 -0.6288  0.3133
  308MOL    C1437468   0.332   4.061   2.763 -0.0126  0.2629 -0.2322
  308MOL    C1537469   0.205   4.003   2.833  0.4794  0.3707  0.0996
  308MOL   Cl1637470   0.095   3.943   2.704 -0.1018 -0.1694 -0.0477
  308MOL    H1737471   0.349   3.989   2.683 -1.4407 -2.0689  1.5086
  308MOL    H1837472   0.308   4.153   2.708  1.9944  0.6810 -0.4542
  308MOL    H1937473   0.245   3.915   2.884  1.1380 -0.1856 -1.3459
  308MOL    C2037474   0.133   4.107   2.927  0.4557  0.1942  0.3655
  308MOL    C2137475   0.001   4.054   2.987 -0.1547 -0.1030  0.2723
  308MOL   Cl2237476   8.447   4.182   3.080  0.1634  0.0391  0.0478
  308MOL    H2337477   0.106   4.195   2.869  0.4410  0.5429  0.9005
  308MOL    H2437478   0.188   4.139   3.016  0.0714  0.1556  0.6158
  308MOL    H2537479   8.455   4.050   2.904  0.1811  2.4338 -0.1822
  308MOL    C2637480   0.002   3.912   3.057 -0.0840  0.5377 -0.4560
  308MOL    C2737481   0.073   3.899   3.190  0.1748 -0.2709 -1.1264
  308MOL   Cl2837482   0.246   3.878   3.167  0.0822  0.1731  0.2967
  308MOL    H2937483   0.041   3.835   2.992  0.6262  0.3088  0.2419
  308MOL    H3037484   8.426   3.876   3.076  0.9308 -1.6946  0.8632
  308MOL    H3137485   0.057   3.991   3.247  0.0619 -0.9008 -0.1175
  308MOL    C3237486   0.035   3.781   3.274 -0.4579 -0.0194 -0.1773
  308MOL    C3337487   8.487   3.810   3.408 -0.0016 -0.0808 -0.6232
  308MOL   Cl3437488   0.074   3.891   3.522 -0.0032  0.1550  0.0563
  308MOL    H3537489   0.110   3.702   3.282 -0.5778 -0.0408  0.7557
  308MOL    H3637490   8.480   3.729   3.220 -1.0628  0.2712  0.4431
  308MOL    H3737491   8.409   3.885   3.396  0.3055 -0.0357 -2.5237
  308MOL    C3837492   8.448   3.681   3.476 -0.1217 -0.3723  0.2586
  308MOL    C3937493   8.358   3.707   3.604 -0.1374  1.0472 -0.2191
  308MOL   Cl4037494   8.368   3.553   3.692 -0.1346  0.3329 -0.0658
  308MOL    H4137495   0.012   3.622   3.495  1.9135  1.9965 -1.6684
  308MOL    H4237496   8.381   3.634   3.404  2.1834 -2.2795 -0.7253
  308MOL    H4337497   8.417   3.778   3.661  1.5273  0.6406 -1.4122
  308MOL    C4437498   8.212   3.753   3.573 -0.4512  0.5121 -1.3968
  308MOL    C4537499   8.128   3.763   3.703 -0.3804  0.5934 -0.7398
  308MOL   Cl4637500   7.968   3.823   3.666 -0.3767 -0.2569 -0.0664
  308MOL    H4737501   8.157   3.680   3.514  0.8326 -1.1877 -0.5474
  308MOL    H4837502   8.211   3.850   3.523 -1.1887 -0.0942 -2.5916
  308MOL    H4937503   8.126   3.670   3.759 -0.6990  2.1935  2.0035
  308MOL    C5037504   8.178   3.861   3.811  0.4633  0.9848 -0.3446
  308MOL    C5137505   8.290   3.820   3.906 -0.2833 -0.2611 -0.0161
  308MOL   Cl5237506   8.252   3.677   4.002 -0.5463  0.3287 -0.0995
  308MOL    H5337507   8.093   3.880   3.876  0.7420 -1.1104  0.6563
  308MOL    H5437508   8.212   3.954   3.764  0.8522  1.1501  0.2656
  308MOL    H5537509   8.372   3.789   3.842  0.5090  0.4186  0.6527
  308MOL    C5637510   8.337   3.935   4.000 -0.8675 -0.0542 -0.4304
  308MOL    C5737511   8.392   4.050   3.923 -0.3729 -0.2192  0.0833
  308MOL   Cl5837512   0.000   4.000   3.817  0.0452  0.1170  0.0398
  308MOL    H5937513   8.401   3.899   4.081 -0.0970  3.0230  0.3907
  308MOL    H6037514   8.248   3.969   4.054 -1.3985  0.1555 -1.4367
  308MOL    H6137515   8.319   4.097   3.857 -0.3409 -2.2248 -1.4559
  308MOL    C6237516   8.447   4.158   4.017 -0.4747  0.5266 -0.7084
  308MOL    C6337517   8.343   4.239   4.087 -0.1403  0.1317 -0.2481
  308MOL   Cl6437518   8.221   4.297   3.967 -0.0213  0.4136 -0.1906
  308MOL    H6537519   8.504   4.225   3.952  1.1373  1.2273  1.3825
  308MOL    H6637520   8.519   4.117   4.088  2.0078  1.9296 -2.3111
  308MOL    H6737521   8.294   4.172   4.158 -1.1550  0.6084 -0.4922
  308MOL    C6837522   8.390   4.357   4.174  0.0779 -0.2123  0.0602
  308MOL    C6937523   8.488   4.321   4.292  0.5497  0.5631  0.2548
  308MOL   Cl7037524   8.404   4.209   4.400  0.5219  0.1544  0.3171
  308MOL    H7137525   8.300   4.403   4.217 -0.4804 -1.7696  0.5982
  308MOL    H7237526   8.449   4.434   4.124  0.5954 -0.1372  0.7745
  308MOL    H7337527   0.056   4.277   4.257  0.0301 -0.5148  0.2123
  308MOL    C7437528   0.018   4.437   4.378  0.1876 -0.4506 -0.6111
  308MOL    C7537529   0.093   4.548   4.292 -0.7418  0.0941  0.3816
  308MOL   Cl7637530   0.216   4.493   4.172  0.2370 -0.0782 -0.0038
  308MOL    H7737531   0.077   4.395   4.458 -1.1480 -1.4473 -0.1244
  308MOL    H7837532   8.466   4.487   4.437  0.8474 -0.9138  0.6612
  308MOL    H7937533   0.014   4.581   4.224  0.1926  1.6371  0.0433
  308MOL    C8037534   0.137   4.671   4.378  0.2462 -0.7708 -0.1613
  308MOL    C8137535   0.167   4.796   4.288  0.5408  1.5211 -0.6159
  308MOL   Cl8237536   0.289   4.897   4.378 -0.7093 -0.1343 -0.0439
  308MOL    H8337537   0.223   4.644   4.440 -1.9902 -0.5329  3.1989
  308MOL    H8437538   0.053   4.692   4.445 -0.8303 -1.7458 -1.1748
  308MOL    H8537539   0.207   4.774   4.189  2.3668 -1.3387  0.6895
  308MOL    C8637540   0.037   4.880   4.268  0.0289 -0.0710 -0.4188
  308MOL    C8737541   0.050   5.016   4.188  0.4554 -0.3491 -0.0091
  308MOL   Cl8837542   8.423   5.038   4.099  0.0701 -0.1590 -0.0452
  308MOL    H8937543   8.509   4.900   4.360  0.0114 -1.8131 -0.0359
  308MOL    H9037544   8.484   4.830   4.211  1.1608 -3.3226  0.8229
  308MOL    H9137545   0.046   5.093   4.265 -1.3054 -1.5599  1.1605
  308MOL    C9237546   0.167   5.041   4.098 -0.6614  0.0443  0.8257
  308MOL    C9337547   0.193   5.187   4.057  0.3829 -0.3415  0.2036
  308MOL   Cl9437548   0.292   5.184   3.913 -0.6503 -0.4673  0.0572
  308MOL    H9537549   0.141   4.987   4.007  0.7755  0.9573 -0.1522
  308MOL    H9637550   0.258   4.995   4.136  1.0973  0.2371 -2.9260
  308MOL    H9737551   0.104   5.240   4.025  0.9674 -1.3298 -3.3348
  308MOL    C9837552   0.266   5.266   4.175 -0.3219  0.1011 -1.0943
  308MOL    C9937553   0.274   5.420   4.174 -0.1411  0.0775  0.9204
  308MOL  Cl10037554   0.343   5.474   4.014  0.2125  0.2833 -0.0630
  308MOL   H10137555   0.367   5.228   4.195 -0.1765  1.4870  0.9501
  308MOL   H10237556   0.206   5.245   4.263  0.1983  0.3676 -0.6666
  308MOL   H10337557   0.175   5.464   4.190  0.4757  1.8706 -0.1063
  308MOL   C10437558   0.370   5.477   4.280  0.1480  0.6753 -0.0565
  308MOL   C10537559   0.337   5.441   4.423  0.4314 -0.4519  0.1130
  308MOL  Cl10637560   0.182   5.531   4.476 -0.3187 -0.0207 -0.2564
  308MOL   H10737561   0.395   5.582   4.269 -0.6905  0.7082 -1.9575
  308MOL   H10837562   0.468   5.441   4.247 -0.0061  1.6339 -1.6428
  308MOL   H10937563   0.314   5.335   4.427 -1.3093 -0.2378 -2.8525
  308MOL   C11037564   0.453   5.475   4.518  0.5417 -0.1394  0.3095
  308MOL   C11137565   0.493   5.625   4.535 -0.6981 -0.3915  0.0858
  308MOL  Cl11237566   0.609   5.676   4.411 -0.0803  0.3982  0.1931
  308MOL   H11337567   0.548   5.436   4.484  1.0758  0.0795  1.5363
  308MOL   H11437568   0.423   5.432   4.614  0.0482 -2.2051 -0.7387
  308MOL   H11537569   0.406   5.690   4.524 -0.5249 -0.0029  0.9485
  308MOL   C11637570   0.557   5.652   4.680  0.1633  0.6386 -0.1685
  308MOL   C11737571   0.546   5.801   4.709 -0.7993  0.9115  0.1678
  308MOL  Cl11837572   0.369   5.840   4.761  0.2374  0.1616 -0.1453
  308MOL   H11937573   0.662   5.625   4.691  0.2078  1.2486  1.0087
  308MOL   H12037574   0.507   5.595   4.758 -2.3281 -0.2085 -2.3229
  308MOL   H12137575   0.605   5.810   4.800  0.9666 -2.7607 -0.5115
  308MOL   H12237576   0.585   5.876   4.640  1.3846  0.3950  0.8171
  309MOL     C137577   0.914   2.129   8.219 -0.0983 -0.0804 -0.2431
  309MOL     C237578   1.024   2.028   8.179  0.5765 -0.0803  0.3682
  309MOL    Cl337579   1.104   1.965   8.317 -0.0210 -0.4195 -0.0691
  309MOL     H437580   0.835   2.087   8.281  0.7524 -2.2042 -0.5624
  309MOL     H537581   0.955   2.222   8.259  0.1196  0.1977 -1.1031
  309MOL     H637582   0.967   1.943   8.140 -0.9949  1.7719 -1.4703
  309MOL     H737583   0.855   2.158   8.132 -1.2834  0.1258  0.6169
  309MOL     C837584   1.134   2.068   8.082 -0.1901 -0.0641 -0.7187
  309MOL     C937585   1.227   2.179   8.129 -0.5073  0.1174 -0.2794
  309MOL   Cl1037586   1.152   2.343   8.140  0.0546  0.2510  0.1859
  309MOL    H1137587   1.090   2.092   7.986 -2.2170 -0.5174  0.0635
  309MOL    H1237588   1.192   1.979   8.057  0.3788  0.3387 -0.8256
  309MOL    H1337589   1.266   2.158   8.229  1.1008  1.1226 -0.6799
  309MOL    C1437590   1.352   2.187   8.036 -0.0622  0.5847 -0.4333
  309MOL    C1537591   1.459   2.291   8.081  0.1321 -0.3435  0.2833
  309MOL   Cl1637592   1.587   2.280   7.954  0.1675 -0.2570 -0.2811
  309MOL    H1737593   1.317   2.209   7.935  1.3104  0.9608 -0.8397
  309MOL    H1837594   1.402   2.090   8.027 -2.3869 -0.8592  1.7030
  309MOL    H1937595   1.424   2.393   8.067 -0.0782 -0.6680 -1.7773
  309MOL    C2037596   1.518   2.264   8.217  0.2988  0.2859 -0.1633
  309MOL    C2137597   1.617   2.378   8.273  0.0473 -0.8503 -0.0178
  309MOL   Cl2237598   1.734   2.303   8.394  0.2524 -0.2802  0.3097
  309MOL    H2337599   1.568   2.168   8.210 -0.4840 -0.2387  1.0931
  309MOL    H2437600   1.444   2.254   8.297  1.2468 -0.5927  0.6067
  309MOL    H2537601   1.680   2.419   8.194 -0.0567  0.2723  0.4750
  309MOL    C2637602   1.543   2.490   8.337  0.4085  0.2199  0.0379
  309MOL    C2737603   1.650   2.594   8.370 -0.2080  0.4349 -0.3111
  309MOL   Cl2837604   1.604   2.669   8.525  0.0269  0.4526 -0.0083
  309MOL    H2937605   1.491   2.458   8.427  0.0851 -2.9437 -1.2247
  309MOL    H3037606   1.461   2.519   8.270  1.0108 -1.6925 -1.5706
  309MOL    H3137607   1.749   2.554   8.394 -0.0487  0.1522 -1.4275
  309MOL    C3237608   1.654   2.697   8.253  0.1677  0.9195 -0.2492
  309MOL    C3337609   1.740   2.821   8.282 -0.7531 -0.2876 -0.2390
  309MOL   Cl3437610   1.744   2.923   8.137  0.1004 -0.2156  0.3175
  309MOL    H3537611   1.557   2.735   8.222  1.1365  2.8119 -1.0623
  309MOL    H3637612   1.694   2.647   8.165 -2.1134 -2.0201  0.3161
  309MOL    H3737613   1.687   2.889   8.349 -0.7932  0.7706 -1.3263
  309MOL    C3837614   1.887   2.789   8.317  0.3645  0.6839  0.0738
  309MOL    C3937615   1.987   2.910   8.330 -0.4942 -0.2202  0.2976
  309MOL   Cl4037616   2.154   2.843   8.321  0.0331 -0.2278 -0.0068
  309MOL    H4137617   1.933   2.735   8.235  3.0559  0.5140  1.6377
  309MOL    H4237618   1.900   2.729   8.407 -0.0793  0.4600 -0.0161
  309MOL    H4337619   1.976   2.990   8.257 -0.8105  1.0651  1.7363
  309MOL    C4437620   1.980   2.981   8.469 -0.4412 -0.1262 -0.2641
  309MOL    C4537621   2.075   3.097   8.498  0.8236 -0.5381  0.0922
  309MOL   Cl4637622   2.044   3.169   0.136  0.2539 -0.3236  0.0487
  309MOL    H4737623   2.006   2.908   0.020 -2.0931  1.7044  2.1184
  309MOL    H4837624   1.875   3.006   8.489  0.2859  0.0518  3.6141
  309MOL    H4937625   2.170   3.046   8.511  1.1309  0.4326  1.6881
  309MOL    C5037626   2.091   3.207   8.388  0.3681 -0.0899 -0.2298
  309MOL    C5137627   1.972   3.308   8.375  0.1391  0.3535 -0.6935
  309MOL   Cl5237628   1.824   3.224   8.313  0.1771  0.1312 -0.0693
  309MOL    H5337629   2.101   3.157   8.292  1.0072  0.0284 -0.2202
  309MOL    H5437630   2.183   3.264   8.397 -0.2478  0.7715  0.7774
  309MOL    H5537631   1.943   3.365   8.463 -0.1574 -0.9564  0.0706
  309MOL    C5637632   2.007   3.420   8.271 -0.9737 -0.5412 -0.2074
  309MOL    C5737633   2.094   3.533   8.313 -0.2137 -0.5647  0.1934
  309MOL   Cl5837634   2.014   3.642   8.426  0.0096 -0.1780 -0.1052
  309MOL    H5937635   1.917   3.467   8.232 -0.4724  1.1671  0.6377
  309MOL    H6037636   2.063   3.370   8.192 -0.4774 -1.7320  0.8656
  309MOL    H6137637   2.183   3.493   8.362 -0.3900 -3.0137 -1.4233
  309MOL    C6237638   2.142   3.621   8.194 -0.4384 -0.0726  0.2633
  309MOL    C6337639   2.238   3.555   8.088  0.6643  0.0601  0.2997
  309MOL   Cl6437640   2.342   3.425   8.163  0.0173 -0.3378  0.5062
  309MOL    H6537641   2.198   3.704   8.237 -0.8926  0.0302  0.6553
  309MOL    H6637642   2.058   3.670   8.145 -1.7519 -1.2194  1.3024
  309MOL    H6737643   2.179   3.495   8.018  0.6612  2.1089 -1.4836
  309MOL    C6837644   2.318   3.656   8.008  0.1544  0.8176 -0.6313
  309MOL    C6937645   2.390   3.600   7.879 -0.9692 -0.5885 -0.4734
  309MOL   Cl7037646   2.270   3.533   7.761 -0.5580 -0.3872  0.2612
  309MOL    H7137647   2.381   3.714   8.075  1.9601 -0.3208 -1.3079
  309MOL    H7237648   2.253   3.733   7.966 -1.3475 -0.4873 -0.7400
  309MOL    H7337649   2.439   3.683   7.828 -2.8419  1.0067  0.2799
  309MOL    C7437650   2.503   3.496   7.898  0.9182  0.0165  0.0889
  309MOL    C7537651   2.630   3.541   7.973 -0.7815  0.3604  0.4732
  309MOL   Cl7637652   2.697   3.683   7.897 -0.0598  0.6785  0.0856
  309MOL    H7737653   2.533   3.461   7.799 -0.5998 -1.1806  0.0308
  309MOL    H7837654   2.479   3.398   7.939 -0.3889 -0.0518 -0.7972
  309MOL    H7937655   2.602   3.585   8.069 -1.8289  0.1389  0.2785
  309MOL    C8037656   2.732   3.425   7.982 -1.0914  0.6167 -0.8364
  309MOL    C8137657   2.841   3.446   8.092 -0.2655 -0.0506  0.3069
  309MOL   Cl8237658   2.966   3.323   8.052  0.1222  0.2532  0.1275
  309MOL    H8337659   2.780   3.405   7.886 -1.4894  0.8232 -1.0791
  309MOL    H8437660   2.691   3.326   8.003  0.6412  0.2433  0.9586
  309MOL    H8537661   2.895   3.539   8.075 -1.1652  0.1275 -1.7009
  309MOL    C8637662   2.798   3.431   8.239  0.6730 -0.1030 -0.0267
  309MOL    C8737663   2.859   3.514   8.347  0.8724 -0.2470 -0.2681
  309MOL   Cl8837664   2.828   3.691   8.331 -0.0916 -0.2539 -0.5176
  309MOL    H8937665   2.802   3.326   8.267 -3.8455 -0.4241 -0.2450
  309MOL    H9037666   2.692   3.453   8.238  0.1536 -2.5712  0.1449
  309MOL    H9137667   2.814   3.499   8.445 -1.9824  2.4846 -1.1050
  309MOL    C9237668   3.013   3.510   8.347  0.5159 -0.1628 -0.3972
  309MOL    C9337669   3.094   3.594   8.459 -0.0755  0.0877  0.4181
  309MOL   Cl9437670   3.264   3.544   8.451 -0.1395  0.2790 -0.6287
  309MOL    H9537671   3.041   3.537   8.246 -0.3458  1.6450 -0.1736
  309MOL    H9637672   3.038   3.404   8.352  0.7452 -0.0895  0.1707
  309MOL    H9737673   3.114   3.696   8.426 -1.7750  0.3383  0.0970
  309MOL    C9837674   3.035   3.558   0.072  0.4384 -0.0260 -0.4695
  309MOL    C9937675   3.121   3.610   0.191  0.1128 -0.8096 -0.0250
  309MOL  Cl10037676   3.054   3.525   0.337 -0.0358 -0.0040 -0.2979
  309MOL   H10137677   3.018   3.450   0.073  1.1765 -0.1418 -0.2242
  309MOL   H10237678   2.938   3.608   0.075  0.1506 -0.5970 -0.1566
  309MOL   H10337679   3.228   3.590   0.191  0.4691  1.0194  0.3113
  309MOL   C10437680   3.105   3.766   0.219  0.0316  0.1310 -0.0718
  309MOL   C10537681   3.211   3.857   0.151  0.3099  0.4036  0.1230
  309MOL  Cl10637682   3.359   3.835   0.253  0.4795  0.0581 -0.0747
  309MOL   H10737683   3.106   3.780   0.327  2.7558 -2.4111  0.3034
  309MOL   H10837684   3.005   3.802   0.195  0.2271  0.9804  0.3648
  309MOL   H10937685   3.230   3.827   0.048 -1.5107 -0.3167 -0.0246
  309MOL   C11037686   3.179   4.013   0.144  0.0772  0.2634  0.2243
  309MOL   C11137687   3.085   4.061   0.027  0.5296 -0.5331  0.8167
  309MOL  Cl11237688   3.152   4.011   8.401 -0.1606  0.1598 -0.0685
  309MOL   H11337689   3.279   4.055   0.139 -0.0511  0.3642 -1.9478
  309MOL   H11437690   3.133   4.045   0.237  1.4244 -0.1149  1.0190
  309MOL   H11537691   2.985   4.017   0.026  0.1238  0.3834  0.2055
  309MOL   C11637692   3.076   4.215   0.031  0.4331  0.1169 -0.0130
  309MOL   C11737693   3.033   4.289   8.430  0.0895 -0.1787  0.3136
  309MOL  Cl11837694   3.056   4.468   8.444 -0.3403 -0.1579  0.5888
  309MOL   H11937695   3.180   4.249   0.031  0.5393 -0.2058  0.0619
  309MOL   H12037696   3.016   4.252   0.114  0.0840  1.3866 -0.8157
  309MOL   H12137697   3.090   4.265   8.341  2.4527  2.7519  0.9693
  309MOL   H12237698   2.925   4.276   8.417 -0.1026 -0.7788  2.3293
  310MOL     C137699   4.585   1.748   0.250  0.6020 -0.0045  0.1784
  310MOL     C237700   4.673   1.786   0.369  0.3488  0.0893 -0.1163
  310MOL    Cl337701   4.642   1.669   0.505 -0.0002 -0.1702 -0.2220
  310MOL     H437702   4.577   1.640   0.237  0.7694  0.1674 -1.4638
  310MOL     H537703   4.484   1.778   0.276  0.8871  1.7739 -0.6789
  310MOL     H637704   4.782   1.781   0.360  0.3041  0.3321 -0.8819
  310MOL     H737705   4.626   1.790   0.159 -1.6610  2.1026  0.0859
  310MOL     C837706   4.651   1.935   0.425  0.3738  0.6559  0.7943
  310MOL     C937707   4.687   2.041   0.319  0.0718 -0.3311  0.2182
  310MOL   Cl1037708   4.870   2.039   0.298  0.2059  0.1090  0.2025
  310MOL    H1137709   4.707   1.957   0.516  3.3146 -0.4363 -0.6923
  310MOL    H1237710   4.544   1.950   0.439  0.4004  0.1863  1.5307
  310MOL    H1337711   4.649   2.018   0.219 -2.6535 -1.1882  1.3862
  310MOL    C1437712   4.635   2.187   0.365 -0.0036 -0.2054  0.4291
  310MOL    C1537713   4.644   2.286   0.248  1.0668 -0.2392 -0.7514
  310MOL   Cl1637714   4.759   2.422   0.274  0.2176  0.5819  0.1701
  310MOL    H1737715   4.699   2.223   0.446 -1.2213 -1.2246  1.8776
  310MOL    H1837716   4.535   2.188   0.409  0.9407 -0.6363  2.6423
  310MOL    H1937717   4.692   2.232   0.166  1.7344 -1.7284  0.5612
  310MOL    C2037718   4.513   2.340   0.195  0.4212 -0.5201  0.1250
  310MOL    C2137719   4.398   2.241   0.175 -0.9555  0.0267  0.3003
  310MOL   Cl2237720   4.442   2.109   0.061 -0.0023  0.0995  0.0098
  310MOL    H2337721   4.525   2.399   0.104 -0.1433 -0.6603 -0.0447
  310MOL    H2437722   4.479   2.408   0.273  0.6640 -0.1324 -0.1077
  310MOL    H2537723   4.377   2.196   0.272 -0.5951  0.5329  0.6186
  310MOL    C2637724   4.259   2.298   0.131  0.6214 -0.5448 -0.2371
  310MOL    C2737725   4.214   2.437   0.188 -0.2867 -0.8659 -0.3047
  310MOL   Cl2837726   4.218   2.415   0.369 -0.3329  0.0876  0.3169
  310MOL    H2937727   4.182   2.232   0.171 -0.6926  0.5252 -0.9532
  310MOL    H3037728   4.248   2.309   0.024  1.2108 -1.0760 -0.3585
  310MOL    H3137729   4.286   2.516   0.163  0.3340 -0.9499  1.1792
  310MOL    C3237730   4.078   2.479   0.145  0.4474 -0.6417  1.3310
  310MOL    C3337731   4.074   2.545   0.008  0.2629 -0.1184  0.2861
  310MOL   Cl3437732   4.183   2.690   8.522 -0.3687  0.1110 -0.2718
  310MOL    H3537733   4.052   2.563   0.209 -0.6610 -0.5141  0.7304
  310MOL    H3637734   3.999   2.406   0.159 -0.8586  0.8152  1.7241
  310MOL    H3737735   4.105   2.469   8.461 -0.6224 -1.6449  1.4867
  310MOL    C3837736   3.935   2.601   8.497 -0.1824  0.1600 -0.3370
  310MOL    C3937737   3.891   2.635   8.350 -0.5433  0.1206 -0.7054
  310MOL   Cl4037738   3.925   2.500   8.243  0.1847 -0.0638 -0.3301
  310MOL    H4137739   3.913   2.686   0.037  0.8825 -0.8516  1.4006
  310MOL    H4237740   3.861   2.527   0.003 -0.0901 -0.2295 -1.0370
  310MOL    H4337741   3.783   2.650   8.347 -0.5330  0.4279  0.2453
  310MOL    C4437742   3.950   2.761   8.274  0.5717  0.0967  0.0359
  310MOL    C4537743   3.931   2.887   8.351 -0.2981 -0.3533 -0.4544
  310MOL   Cl4637744   3.760   2.906   8.411  0.2730 -0.0543 -0.0507
  310MOL    H4737745   3.891   2.772   8.183 -0.1520  0.5891  0.5525
  310MOL    H4837746   4.056   2.741   8.263  0.6035  1.1912 -1.9056
  310MOL    H4937747   3.994   2.873   8.439 -0.5932 -0.6990 -0.2983
  310MOL    C5037748   3.980   3.009   8.267  0.7429  0.3380  0.3478
  310MOL    C5137749   4.116   3.002   8.190 -0.5322 -0.1882  0.9234
  310MOL   Cl5237750   4.247   2.928   8.285  0.2063 -0.3315  0.0086
  310MOL    H5337751   3.994   3.097   8.330  2.2582 -0.3652  1.0196
  310MOL    H5437752   3.905   3.036   8.192  0.3744 -0.5875  0.3740
  310MOL    H5537753   4.112   2.918   8.121  2.5187 -1.6653  2.4702
  310MOL    C5637754   4.168   3.124   8.117 -0.9384 -0.4543  0.6665
  310MOL    C5737755   4.197   3.249   8.200  0.0339 -0.5472 -0.6748
  310MOL   Cl5837756   4.040   3.326   8.251  0.0715  0.0422 -0.1448
  310MOL    H5937757   4.110   3.137   8.026 -0.6545 -0.3125  0.5053
  310MOL    H6037758   4.266   3.094   8.078 -1.0889 -1.2733  0.8901
  310MOL    H6137759   4.250   3.222   8.291  0.2926 -0.8991 -0.9284
  310MOL    C6237760   4.278   3.358   8.127  0.0333 -0.5129 -0.8248
  310MOL    C6337761   4.421   3.311   8.095 -0.1604 -0.6019 -0.4250
  310MOL   Cl6437762   4.496   3.257   8.252 -0.1534 -0.3059  0.1646
  310MOL    H6537763   4.276   3.447   8.189 -4.0187 -0.9133 -0.2276
  310MOL    H6637764   4.217   3.393   8.043 -2.3611 -1.2256  0.5611
  310MOL    H6737765   4.425   3.224   8.030  2.4991  0.3103 -1.5376
  310MOL    C6837766   4.506   3.418   8.017  0.3090  0.3930  0.1798
  310MOL    C6937767   4.660   3.394   8.013  0.3632  0.2865  0.0870
  310MOL   Cl7037768   4.737   3.533   7.919 -0.3867  0.5035  0.3591
  310MOL    H7137769   4.489   3.516   8.061 -0.7404  0.2026  0.1925
  310MOL    H7237770   4.473   3.418   7.913 -0.2319 -0.5385  0.3535
  310MOL    H7337771   4.698   3.411   8.114 -0.2336  0.2004  0.3259
  310MOL    C7437772   4.720   3.266   7.961  0.2332 -0.1224  1.0178
  310MOL    C7537773   4.870   3.240   7.977 -0.1775  0.5350  1.0439
  310MOL   Cl7637774   4.903   3.086   7.902 -0.3654 -0.2054 -0.0695
  310MOL    H7737775   4.700   3.264   7.854  1.1475  1.4864  0.7989
  310MOL    H7837776   4.671   3.181   8.007  2.4492 -1.5322  0.8802
  310MOL    H7937777   4.936   3.314   7.931  0.5232  0.2024  1.4980
  310MOL    C8037778   4.912   3.229   8.124  0.1320 -0.6984 -0.0237
  310MOL    C8137779   5.053   3.172   8.149 -0.0495  0.1319  0.4122
  310MOL   Cl8237780   5.079   3.167   8.326  0.2040  0.2144  0.2883
  310MOL    H8337781   4.846   3.164   8.182  1.3559 -1.7193  0.2381
  310MOL    H8437782   4.902   3.323   8.178  0.0155 -0.9383  0.3736
  310MOL    H8537783   5.053   3.068   8.116  0.1630 -1.4002  4.9303
  310MOL    C8637784   5.163   3.251   8.074 -0.4909 -0.2008  0.3253
  310MOL    C8737785   5.301   3.189   8.090 -0.6053  0.4391 -0.3149
  310MOL   Cl8837786   5.429   3.307   8.074 -0.3322  0.0034  0.1788
  310MOL    H8937787   5.155   3.343   8.132  2.4262  0.0885  0.3320
  310MOL    H9037788   5.135   3.267   7.970  1.7619  1.1731 -0.1017
  310MOL    H9137789   5.312   3.148   8.191 -0.6201  0.6208 -0.2389
  310MOL    C9237790   5.322   3.066   7.990  0.3189  0.4720 -0.2072
  310MOL    C9337791   5.465   2.999   7.984 -0.0340 -0.7323  0.4012
  310MOL   Cl9437792   5.576   3.077   7.859  0.2505 -0.3273  0.1672
  310MOL    H9537793   5.292   3.103   7.892  1.5869 -3.4994 -2.1610
  310MOL    H9637794   5.240   2.996   8.010 -0.6558  1.6467  0.0331
  310MOL    H9737795   5.519   3.020   8.076  0.1217  1.1648 -0.0992
  310MOL    C9837796   5.458   2.848   7.950 -0.5005  0.1652 -0.1687
  310MOL    C9937797   5.592   2.773   7.953  0.3364  0.2847 -0.3849
  310MOL  Cl10037798   5.559   2.597   7.946  0.3682 -0.0448 -0.1693
  310MOL   H10137799   5.424   2.838   7.847  0.8058 -2.3978 -0.3692
  310MOL   H10237800   5.387   2.806   8.021 -0.3221  0.3396  0.1155
  310MOL   H10337801   5.655   2.793   7.866  1.2296 -1.4392 -0.1713
  310MOL   C10437802   5.676   2.790   8.078 -0.0675 -0.0970 -0.9703
  310MOL   C10537803   5.800   2.703   8.111 -0.0654  0.2374 -0.0431
  310MOL  Cl10637804   5.737   2.546   8.177  0.7304 -0.1024 -0.1013
  310MOL   H10737805   5.610   2.787   8.165 -0.8456  2.3135 -1.4231
  310MOL   H10837806   5.710   2.894   8.082 -1.1931  0.2973 -1.3860
  310MOL   H10937807   5.861   2.688   8.022  0.9705 -0.1088  0.7189
  310MOL   C11037808   5.887   2.767   8.214  0.1174 -0.4208 -0.1295
  310MOL   C11137809   6.000   2.686   8.271  0.1187 -0.1890  0.1571
  310MOL  Cl11237810   6.086   2.788   8.387  0.2735 -0.5521 -0.2757
  310MOL   H11337811   5.823   2.806   8.293  2.3471  0.4974  1.2507
  310MOL   H11437812   5.919   2.866   8.181  1.0348 -0.2092  1.3590
  310MOL   H11537813   5.954   2.608   8.332 -1.0357  0.8281  0.5968
  310MOL   C11637814   6.104   2.631   8.176  0.5649 -0.8077 -0.2295
  310MOL   C11737815   6.199   2.524   8.231  0.2083 -0.0215 -0.1861
  310MOL  Cl11837816   6.318   2.474   8.108  0.0803 -0.1762  0.4808
  310MOL   H11937817   6.162   2.709   8.129  2.3702 -2.3511 -0.6089
  310MOL   H12037818   6.052   2.580   8.094  1.6506  1.6129 -2.4757
  310MOL   H12137819   6.249   2.552   8.324  1.5794 -0.6610 -0.7209
  310MOL   H12237820   6.141   2.440   8.271 -0.4625  1.3635  1.8245
  311MOL     C137821   6.829   5.536   2.633  0.5033  0.0834 -0.1972
  311MOL     C237822   6.711   5.437   2.659  0.2778  1.1573 -0.1295
  311MOL    Cl337823   6.751   5.276   2.604 -0.1099 -0.0299 -0.2415
  311MOL     H437824   6.841   5.564   2.528 -0.7443 -0.2067 -0.4172
  311MOL     H537825   6.840   5.622   2.699 -1.0199 -0.0995  0.3107
  311MOL     H637826   6.694   5.438   2.767  1.6531  0.8640  0.0935
  311MOL     H737827   6.918   5.477   2.658  1.0899  0.9788 -0.1415
  311MOL     C837828   6.573   5.479   2.597  1.0019  1.1236  0.4478
  311MOL     C937829   6.548   5.624   2.600 -0.4021  0.1590  1.4358
  311MOL   Cl1037830   6.569   5.699   2.757 -0.0438 -0.5114  0.1063
  311MOL    H1137831   6.496   5.430   2.657  1.7250 -0.2368  0.2900
  311MOL    H1237832   6.555   5.441   2.496  0.4867  1.4854  0.4018
  311MOL    H1337833   6.622   5.677   2.539 -1.2328  0.7418  0.9247
  311MOL    C1437834   6.405   5.674   2.548  0.0964  0.4336 -0.2001
  311MOL    C1537835   6.370   5.657   2.398 -0.0112  0.2846  0.1199
  311MOL   Cl1637836   6.483   5.741   2.289 -0.2971 -0.0755 -0.3289
  311MOL    H1737837   6.392   5.779   2.574 -0.0652  0.5035 -0.5521
  311MOL    H1837838   6.324   5.626   2.604  0.8403  2.1314  2.4043
  311MOL    H1937839   6.380   5.555   2.360  0.3879  0.5696 -0.5525
  311MOL    C2037840   6.226   5.715   2.373  0.0856 -0.7160  0.4626
  311MOL    C2137841   6.157   5.672   2.244 -0.4344  0.5637 -0.3621
  311MOL   Cl2237842   6.168   5.794   2.123 -0.4839 -0.2057 -0.2240
  311MOL    H2337843   6.210   5.823   2.377  1.0961 -0.5435 -0.1882
  311MOL    H2437844   6.165   5.668   2.450  1.9728 -3.1156  0.5358
  311MOL    H2537845   6.204   5.583   2.203 -0.0533  0.2222  0.7905
  311MOL    C2637846   6.004   5.647   2.270  0.3186 -0.4281  0.0831
  311MOL    C2737847   5.968   5.524   2.359 -0.2168  0.2876 -0.2661
  311MOL   Cl2837848   6.059   5.384   2.309 -0.0096  0.3086  0.0714
  311MOL    H2937849   5.971   5.626   2.168 -0.0064 -0.4222  0.1874
  311MOL    H3037850   5.951   5.738   2.298 -3.0656 -1.9241 -1.2327
  311MOL    H3137851   6.005   5.539   2.460  0.5794 -1.3741 -0.3089
  311MOL    C3237852   5.820   5.497   2.350  0.1794 -0.6722 -0.5696
  311MOL    C3337853   5.721   5.607   2.408 -0.0222 -0.1524 -0.2524
  311MOL   Cl3437854   5.724   5.623   2.584 -0.1232 -0.5230 -0.3156
  311MOL    H3537855   5.794   5.399   2.390 -0.7575 -0.0857  0.3102
  311MOL    H3637856   5.786   5.482   2.248 -1.0907 -1.4525 -0.0487
  311MOL    H3737857   5.763   5.704   2.383  1.4410 -0.7395 -0.1809
  311MOL    C3837858   5.575   5.606   2.356 -0.1894  0.5241 -0.2681
  311MOL    C3937859   5.548   5.605   2.203 -0.2005  0.1292  0.0893
  311MOL   Cl4037860   5.670   5.713   2.130 -0.2857  0.0931 -0.5407
  311MOL    H4137861   5.527   5.692   2.403  0.4543  0.9401 -0.3679
  311MOL    H4237862   5.526   5.525   2.411  0.2866  1.6811  1.9289
  311MOL    H4337863   5.566   5.504   2.165 -0.5474 -0.7671  2.2510
  311MOL    C4437864   5.407   5.658   2.159  0.5786 -0.1111 -1.1629
  311MOL    C4537865   5.283   5.600   2.229 -0.2049  0.5089 -0.0023
  311MOL   Cl4637866   5.259   5.428   2.174 -0.6743  0.1262  0.0745
  311MOL    H4737867   5.394   5.631   2.054 -0.8863 -0.5780 -0.8642
  311MOL    H4837868   5.418   5.766   2.167  2.7408 -0.4497  1.3189
  311MOL    H4937869   5.307   5.580   2.334  3.0604  0.5785 -0.6848
  311MOL    C5037870   5.157   5.689   2.226  0.6585 -0.7277 -0.0181
  311MOL    C5137871   5.046   5.664   2.332 -0.9347  0.0232  0.5010
  311MOL   Cl5237872   5.120   5.658   2.493 -0.0244  0.1032 -0.5953
  311MOL    H5337873   5.111   5.679   2.128  0.4063 -1.6953  0.1871
  311MOL    H5437874   5.173   5.796   2.234  0.2361 -0.4788 -2.2416
  311MOL    H5537875   4.997   5.760   2.318  0.0408  0.4912  0.1990
  311MOL    C5637876   4.963   5.538   2.302 -0.7676  0.0316  0.1334
  311MOL    C5737877   4.867   5.548   2.174  0.3563 -0.5513 -0.1737
  311MOL   Cl5837878   4.770   5.697   2.169 -0.1951  0.0564 -0.0309
  311MOL    H5937879   4.899   5.542   2.389  0.2558  0.3109  0.8845
  311MOL    H6037880   5.023   5.447   2.301  0.4965  0.8357 -0.2604
  311MOL    H6137881   4.929   5.554   2.084  0.3417 -0.7093 -0.1938
  311MOL    C6237882   4.774   5.424   2.156  0.0809  0.4906  0.1878
  311MOL    C6337883   4.839   5.299   2.108 -0.4337  0.6128  0.1149
  311MOL   Cl6437884   4.896   5.319   1.938  0.2825 -0.3469  0.0236
  311MOL    H6537885   4.704   5.459   2.080 -1.6708 -1.8158  0.6958
  311MOL    H6637886   4.723   5.414   2.252  1.2542 -0.3129  0.7504
  311MOL    H6737887   4.932   5.287   2.164  0.3250  1.9306 -0.8173
  311MOL    C6837888   4.754   5.172   2.105  0.0761 -0.0129 -0.3871
  311MOL    C6937889   4.695   5.119   2.237 -1.0145  0.8732  0.3724
  311MOL   Cl7037890   4.819   5.118   2.363 -0.0957 -0.0345  0.0613
  311MOL    H7137891   4.824   5.098   2.067  0.1714 -0.0375 -0.1686
  311MOL    H7237892   4.680   5.183   2.025  1.2900  0.4661 -1.4567
  311MOL    H7337893   4.620   5.194   2.262 -2.0840  0.2570 -0.8995
  311MOL    C7437894   4.637   4.975   2.228  0.3880  0.0604 -0.0094
  311MOL    C7537895   4.530   4.947   2.123 -0.6910  0.0848  0.5128
  311MOL   Cl7637896   4.397   5.070   2.157  0.0234 -0.0628  0.0774
  311MOL    H7737897   4.582   4.966   2.323 -0.0336 -0.3399 -0.2870
  311MOL    H7837898   4.719   4.904   2.224  1.4261  1.3173 -1.5619
  311MOL    H7937899   4.557   4.979   2.022 -2.9388  1.1314  0.1912
  311MOL    C8037900   4.460   4.806   2.134 -0.6292 -0.1789 -0.0146
  311MOL    C8137901   4.558   4.690   2.118  0.4079  0.6867  0.0929
  311MOL   Cl8237902   4.648   4.712   1.968 -0.3600 -0.1753 -0.0822
  311MOL    H8337903   4.381   4.805   2.059  0.1381 -0.1532 -0.8376
  311MOL    H8437904   4.405   4.794   2.227 -0.6112 -0.9867 -0.1025
  311MOL    H8537905   4.629   4.694   2.201  0.7555  0.4298 -0.1919
  311MOL    C8637906   4.480   4.554   2.106 -0.2481 -0.2125 -0.0154
  311MOL    C8737907   4.582   4.433   2.091  0.0119  0.5479  0.5120
  311MOL   Cl8837908   4.506   4.293   2.009  0.0479  0.2455  0.1950
  311MOL    H8937909   4.401   4.558   2.031  0.7570 -3.5687 -1.3121
  311MOL    H9037910   4.436   4.547   2.205 -0.9737  0.2929 -0.2958
  311MOL    H9137911   4.658   4.465   2.019 -1.4363  2.2065 -0.3216
  311MOL    C9237912   4.635   4.382   2.220 -0.3038 -0.0461  0.6250
  311MOL    C9337913   4.776   4.320   2.218 -0.4150 -0.1015 -0.0987
  311MOL   Cl9437914   4.781   4.219   2.366  0.0544  0.0195  0.1386
  311MOL    H9537915   4.557   4.313   2.251  0.6571 -1.4712 -0.0704
  311MOL    H9637916   4.621   4.451   2.303 -0.1747  0.7662 -0.0218
  311MOL    H9737917   4.783   4.252   2.133 -0.1712 -0.2303  0.0254
  311MOL    C9837918   4.887   4.433   2.220 -0.2360  0.4664  0.8137
  311MOL    C9937919   5.031   4.395   2.207  0.0312  0.7301  0.0776
  311MOL  Cl10037920   5.087   4.304   2.351 -0.0417  0.4648 -0.1326
  311MOL   H10137921   4.871   4.508   2.298  2.4532 -0.2033  2.0499
  311MOL   H10237922   4.859   4.498   2.137 -0.8257 -0.4164  0.3084
  311MOL   H10337923   5.045   4.328   2.122 -1.8866 -0.1789  0.4504
  311MOL   C10437924   5.131   4.507   2.196  0.3308  0.5485  0.0303
  311MOL   C10537925   5.126   4.578   2.061  0.5050 -0.1000 -0.9705
  311MOL  Cl10637926   5.195   4.480   1.926 -0.2631  0.0119 -0.1146
  311MOL   H10737927   5.232   4.475   2.223  0.0723 -0.8869 -0.6760
  311MOL   H10837928   5.110   4.574   2.280  0.8584  1.4782 -0.5687
  311MOL   H10937929   5.020   4.590   2.036  0.5578  1.4046 -0.5390
  311MOL   C11037930   5.199   4.706   2.065  0.2166 -0.0189 -0.0684
  311MOL   C11137931   5.126   4.825   2.135 -0.7388 -0.0426  0.4624
  311MOL  Cl11237932   4.989   4.891   2.041 -0.1243 -0.0565 -0.3778
  311MOL   H11337933   5.235   4.730   1.965 -0.5880 -0.7332 -0.5380
  311MOL   H11437934   5.298   4.680   2.103 -0.2124  0.1399  1.1619
  311MOL   H11537935   5.091   4.780   2.228  1.1902 -0.5003  1.0001
  311MOL   C11637936   5.237   4.935   2.161 -0.0161 -0.1971  0.1357
  311MOL   C11737937   5.189   5.053   2.243 -0.7231  0.6061 -0.1261
  311MOL  Cl11837938   5.143   4.995   2.409  0.0777  0.0624  0.3365
  311MOL   H11937939   5.295   4.975   2.078  0.2766  1.0278  0.9148
  311MOL   H12037940   5.310   4.872   2.213 -0.6176 -2.1226 -1.2836
  311MOL   H12137941   5.276   5.118   2.257 -1.3476  1.1719  1.1620
  311MOL   H12237942   5.111   5.112   2.196 -1.6648 -0.6442 -0.1630
  312MOL     C137943   4.016   8.293   4.776 -0.1783 -0.2011 -0.1124
  312MOL     C237944   4.074   8.182   4.863 -0.2332  0.3232  0.3508
  312MOL    Cl337945   4.137   8.257   5.013  0.3998 -0.2033  0.1453
  312MOL     H437946   4.017   8.252   4.675  3.2988  0.5270 -0.4472
  312MOL     H537947   3.914   8.321   4.801  0.8306  3.1076  0.5745
  312MOL     H637948   3.989   8.120   4.892 -0.9460  1.0664 -0.1240
  312MOL     H737949   4.070   8.387   4.789 -2.3229  1.1359 -0.7192
  312MOL     C837950   4.183   8.110   4.794  0.4887 -0.2132 -0.7784
  312MOL     C937951   4.263   8.010   4.874 -0.2428 -0.6956  0.0771
  312MOL   Cl1037952   4.396   7.955   4.772  0.0229 -0.1114  0.6132
  312MOL    H1137953   4.251   8.185   4.756 -1.4495  1.7422 -0.4807
  312MOL    H1237954   4.132   8.052   4.717 -2.5641  1.3559 -0.0477
  312MOL    H1337955   4.318   8.056   4.956 -0.7694  0.5075 -0.2308
  312MOL    C1437956   4.173   7.886   4.921 -0.8283  0.3956  0.1331
  312MOL    C1537957   4.241   7.803   5.033 -0.4314 -0.1137 -0.0441
  312MOL   Cl1637958   4.206   7.634   5.003 -0.3841 -0.1368 -0.0014
  312MOL    H1737959   4.147   7.827   4.833 -2.6373  0.9945  0.2404
  312MOL    H1837960   4.073   7.917   4.952 -0.5622  2.2209 -0.7531
  312MOL    H1937961   4.350   7.802   5.034 -0.4351 -1.8768  1.0335
  312MOL    C2037962   4.194   7.844   5.173  0.6827 -0.2989  0.2063
  312MOL    C2137963   4.223   7.988   5.223 -0.1920  0.1174  0.0877
  312MOL   Cl2237964   4.398   8.004   5.239 -0.1882 -0.1467  0.1488
  312MOL    H2337965   4.244   7.774   5.240  2.0271  0.2033 -0.2720
  312MOL    H2437966   4.086   7.828   5.175  0.6446  0.0405  0.9623
  312MOL    H2537967   4.185   8.061   5.151  1.3808  1.2442  0.3674
  312MOL    C2637968   4.160   8.003   5.361  0.3863  0.1449  0.2516
  312MOL    C2737969   4.164   8.150   5.414  0.1147  0.1998  0.4128
  312MOL   Cl2837970   4.221   8.167   5.585  0.0314 -0.1817  0.0945
  312MOL    H2937971   4.211   7.934   5.428 -0.0504 -0.0968  0.3388
  312MOL    H3037972   4.055   7.972   5.360 -1.1838  5.0153 -0.5933
  312MOL    H3137973   4.225   8.212   5.350 -1.3515  0.8489 -0.3814
  312MOL    C3237974   4.021   8.213   5.407  0.3802 -0.1258 -0.2020
  312MOL    C3337975   4.018   8.364   5.410  0.2119 -0.1724  0.4641
  312MOL   Cl3437976   3.853   8.405   5.444  0.3308  0.1185  0.2383
  312MOL    H3537977   3.963   8.177   5.491  1.7289  0.1372  0.8561
  312MOL    H3637978   3.969   8.178   5.317 -0.4167  1.6374 -0.4485
  312MOL    H3737979   4.080   8.407   5.490 -0.5534 -0.1691  1.0565
  312MOL    C3837980   4.051   8.435   5.275 -0.6462  0.2439  0.3187
  312MOL    C3937981   4.069   0.064   5.255  0.5419  0.8318  0.6180
  312MOL   Cl4037982   4.117   0.100   5.089 -0.2332  0.1613 -0.2045
  312MOL    H4137983   3.975   8.401   5.204  0.2367 -0.4911 -0.2949
  312MOL    H4237984   4.147   8.402   5.234  0.5084  2.4842  1.1482
  312MOL    H4337985   3.976   0.112   5.286 -0.1948  0.1896 -0.5603
  312MOL    C4437986   4.180   0.103   5.354  0.2583 -0.0657  0.3981
  312MOL    C4537987   4.233   0.250   5.343  0.0745  0.3543  0.3761
  312MOL   Cl4637988   4.343   0.281   5.483 -0.1131 -0.3738  0.2453
  312MOL    H4737989   4.262   0.032   5.359 -0.3528 -0.9279 -1.4557
  312MOL    H4837990   4.129   0.097   5.450  0.3842 -0.9274  0.4107
  312MOL    H4937991   4.286   0.260   5.248  1.5692  1.0456  1.2673
  312MOL    C5037992   4.118   0.352   5.347 -0.0519 -0.5488 -0.3191
  312MOL    C5137993   4.169   0.488   5.298 -0.3252 -0.2188 -0.4278
  312MOL   Cl5237994   4.037   0.598   5.341 -0.0773 -0.1748  0.0608
  312MOL    H5337995   4.066   0.353   5.443 -2.3076  0.7928 -1.5392
  312MOL    H5437996   4.034   0.322   5.286 -1.5882  2.4218  0.2308
  312MOL    H5537997   4.255   0.525   5.353  1.6030 -3.5063 -1.1220
  312MOL    C5637998   4.182   0.488   5.141 -0.0303  0.3254  1.0814
  312MOL    C5737999   4.218   0.628   5.086 -0.3038 -0.1896  0.1496
  312MOL   Cl5838000   4.166   0.642   4.916 -0.1375  0.2540  0.0822
  312MOL    H5938001   4.096   0.443   5.092  3.1085 -3.3990 -1.4139
  312MOL    H6038002   4.259   0.417   5.111 -0.1291  0.7512 -0.2467
  312MOL    H6138003   4.166   0.709   5.136  0.7934  0.8700 -0.4124
  312MOL    C6238004   4.367   0.662   5.103  0.5165  0.5050 -0.1391
  312MOL    C6338005   4.413   0.807   5.091  0.6710 -0.2842 -0.0600
  312MOL   Cl6438006   4.593   0.806   5.062 -0.0646  0.0971 -0.3564
  312MOL    H6538007   4.413   0.601   5.026 -1.5217  1.9780 -2.5994
  312MOL    H6638008   4.405   0.618   5.196 -2.2962 -0.4555  0.6005
  312MOL    H6738009   4.364   0.855   5.007  1.0950  2.0311  0.9666
  312MOL    C6838010   4.371   0.897   5.207 -0.2655  0.7684  0.7393
  312MOL    C6938011   4.396   1.051   5.187  0.3117  0.1776 -0.1546
  312MOL   Cl7038012   4.387   1.153   5.337  0.0601  0.0416 -0.1129
  312MOL    H7138013   4.422   0.867   5.298  0.9970  1.4791  0.2846
  312MOL    H7238014   4.264   0.892   5.223 -0.3099 -4.4366 -0.5136
  312MOL    H7338015   4.501   1.067   5.159  0.5071 -0.8350 -0.0240
  312MOL    C7438016   4.309   1.107   5.076  0.2219 -0.7143  0.2091
  312MOL    C7538017   4.289   1.259   5.077  0.3634  0.0153 -0.0508
  312MOL   Cl7638018   4.204   1.293   4.929  0.0296  0.3953 -0.0229
  312MOL    H7738019   4.208   1.067   5.080 -0.1740  0.3239  0.8479
  312MOL    H7838020   4.365   1.087   4.985  1.8151  2.9280  0.2812
  312MOL    H7938021   4.226   1.284   5.162 -0.3469  1.7918 -1.0601
  312MOL    C8038022   4.427   1.338   5.072 -0.0453 -0.2447 -0.1294
  312MOL    C8138023   4.408   1.491   5.075  0.0685 -0.5353 -0.8018
  312MOL   Cl8238024   4.391   1.567   4.907  0.0207  0.1880 -0.0914
  312MOL    H8338025   4.483   1.318   4.981 -1.1362  2.1218 -1.3773
  312MOL    H8438026   4.494   1.315   5.155  1.5296 -0.9626 -1.5700
  312MOL    H8538027   4.316   1.510   5.130  0.4739 -0.0382 -0.2834
  312MOL    C8638028   4.527   1.567   5.152  0.2904 -0.0572 -0.2940
  312MOL    C8738029   4.671   1.570   5.086 -0.0739  0.3086  0.6343
  312MOL   Cl8838030   4.744   1.409   5.069  0.1014  0.3181  0.1547
  312MOL    H8938031   4.538   1.535   5.255  3.1597 -0.3713 -0.6473
  312MOL    H9038032   4.488   1.668   5.155 -0.3170 -0.2289 -1.8820
  312MOL    H9138033   4.660   1.608   4.985  1.7936  0.5101  0.4914
  312MOL    C9238034   4.778   1.656   5.160  0.9779  0.0923 -0.3629
  312MOL    C9338035   4.738   1.806   5.182 -0.1703  0.0542  1.0988
  312MOL   Cl9438036   4.678   1.882   5.030 -0.4197  0.2768 -0.6182
  312MOL    H9538037   4.865   1.656   5.095  0.0820  0.1092 -1.5816
  312MOL    H9638038   4.790   1.620   5.262 -0.3921 -2.3667 -1.0232
  312MOL    H9738039   4.659   1.821   5.255 -0.2211  0.9651  0.8657
  312MOL    C9838040   4.861   1.885   5.234  0.4695  0.0598 -0.1908
  312MOL    C9938041   4.839   2.035   5.255 -0.1426  0.0778  0.4025
  312MOL  Cl10038042   4.992   2.114   5.281  0.5100 -0.1982  0.2323
  312MOL   H10138043   4.937   1.874   5.157 -3.0276 -0.8257 -3.7191
  312MOL   H10238044   4.903   1.840   5.324  1.0999  0.7453 -0.1396
  312MOL   H10338045   4.792   2.071   5.163  0.2878  1.8289  0.8510
  312MOL   C10438046   4.740   2.092   5.370 -0.0197  0.6770  0.0231
  312MOL   C10538047   4.774   2.043   5.513 -1.1254 -0.3670  0.2775
  312MOL  Cl10638048   4.734   1.865   5.522  0.3378  0.1368 -0.2194
  312MOL   H10738049   4.636   2.064   5.359 -0.4586  2.9738 -2.1799
  312MOL   H10838050   4.752   2.201   5.368  1.1991  0.5779  1.1069
  312MOL   H10938051   4.880   2.051   5.538 -1.1315 -0.6212  0.3879
  312MOL   C11038052   4.703   2.123   5.622  0.4242  0.0362 -0.8342
  312MOL   C11138053   4.699   2.075   5.774  0.1445 -0.0441 -0.1765
  312MOL  Cl11238054   4.636   2.213   5.859  0.0254  0.2279 -0.3895
  312MOL   H11338055   4.606   2.161   5.588  0.6230 -0.7354 -2.3292
  312MOL   H11438056   4.762   2.215   5.613  1.4628 -0.5196  0.2771
  312MOL   H11538057   4.627   1.994   5.788 -0.7215  0.6870 -0.3363
  312MOL   C11638058   4.839   2.034   5.832  0.4647  0.3245  0.4470
  312MOL   C11738059   4.846   2.045   5.986 -0.7488  0.3621  0.2537
  312MOL  Cl11838060   5.004   2.001   6.056 -0.0278  0.6726  0.3754
  312MOL   H11938061   4.912   2.094   5.777  1.5963 -0.8232  0.6855
  312MOL   H12038062   4.862   1.933   5.798  0.2281 -0.1879  1.7849
  312MOL   H12138063   4.833   2.149   6.014 -4.3892 -0.0926  0.5199
  312MOL   H12238064   4.769   1.987   6.038  0.2800 -1.4657 -0.2212
  313MOL     C138065   8.118   7.271   1.738  0.2445 -0.7538 -0.4617
  313MOL     C238066   8.066   7.415   1.763 -0.5002 -0.2150  0.4288
  313MOL    Cl338067   8.191   7.537   1.714  0.3194  0.2040  0.0890
  313MOL     H438068   8.033   7.204   1.733 -1.1028  1.0055 -1.6021
  313MOL     H538069   8.180   7.259   1.648  0.4561  2.9501 -0.8845
  313MOL     H638070   7.981   7.441   1.700  0.3505  0.2097 -0.5529
  313MOL     H738071   8.179   7.240   1.822 -1.5566 -0.1703  1.0822
  313MOL     C838072   8.021   7.436   1.911 -0.5315  0.1031 -0.3291
  313MOL     C938073   7.955   7.569   1.946  0.3394  0.4607 -0.0065
  313MOL   Cl1038074   7.881   7.565   2.112 -0.2609 -0.2389 -0.1297
  313MOL    H1138075   8.104   7.410   1.978 -1.0574  0.2762  0.3948
  313MOL    H1238076   7.958   7.350   1.933 -0.3152  0.3410  1.3044
  313MOL    H1338077   8.026   7.652   1.944  0.8125  0.2019  3.0456
  313MOL    C1438078   7.840   7.618   1.848  0.3425  0.3870 -0.2396
  313MOL    C1538079   7.708   7.533   1.835 -0.4778 -0.3148  0.2755
  313MOL   Cl1638080   7.729   7.379   1.754 -0.0255 -0.2775  0.2665
  313MOL    H1738081   7.874   7.637   1.747  0.4261  1.8032  0.0463
  313MOL    H1838082   7.817   7.718   1.883  3.1869  0.7711  0.7289
  313MOL    H1938083   7.679   7.503   1.936 -1.5558  0.3196  0.1606
  313MOL    C2038084   7.585   7.602   1.768  0.4621 -0.5106 -0.5166
  313MOL    C2138085   7.524   7.702   1.856  0.1852 -0.2699 -0.6656
  313MOL   Cl2238086   7.399   7.620   1.955 -0.2338 -0.1639 -0.3090
  313MOL    H2338087   7.511   7.525   1.747  0.2810 -0.6004  0.4199
  313MOL    H2438088   7.611   7.643   1.670 -0.9259 -0.5075 -0.8842
  313MOL    H2538089   7.601   7.731   1.927 -0.5480  1.5703 -0.5981
  313MOL    C2638090   7.475   7.834   1.784 -1.1417 -0.6024 -0.0482
  313MOL    C2738091   7.581   7.941   1.740  0.1663  0.2239  1.0371
  313MOL   Cl2838092   7.667   8.002   1.890  0.0075  0.2442  0.0160
  313MOL    H2938093   7.414   7.870   1.867  0.1444 -2.9207  1.9575
  313MOL    H3038094   7.408   7.809   1.702 -0.0032  0.1820 -1.2380
  313MOL    H3138095   7.643   7.881   1.675  1.5113  3.2982 -0.6388
  313MOL    C3238096   7.535   8.063   1.668  0.1904  0.1919 -0.3024
  313MOL    C3338097   7.491   8.043   1.521  0.4229 -0.2079 -0.1421
  313MOL   Cl3438098   7.630   7.973   1.429  0.2379  0.6008 -0.5412
  313MOL    H3538099   7.620   8.131   1.669  0.7295 -0.4824  1.1177
  313MOL    H3638100   7.461   8.107   1.733  0.1251  1.8534 -1.4736
  313MOL    H3738101   7.416   7.964   1.515 -3.2689  3.0084  1.4628
  313MOL    C3838102   7.446   8.176   1.451 -0.1353  0.5721  0.2487
  313MOL    C3938103   7.309   8.238   1.484 -0.2959 -0.0821 -0.5146
  313MOL   Cl4038104   7.173   8.132   1.455 -0.5146 -0.0198  0.0392
  313MOL    H4138105   7.445   8.169   1.343  1.1050 -0.0189  0.2681
  313MOL    H4238106   7.524   8.245   1.483  1.3185 -0.6452 -0.6347
  313MOL    H4338107   7.301   8.251   1.592 -0.8729 -5.0330  0.1466
  313MOL    C4438108   7.281   8.374   1.414 -1.4797  0.7018  0.8124
  313MOL    C4538109   7.152   8.444   1.440  0.0643 -0.1053  0.4853
  313MOL   Cl4638110   7.118   0.053   1.326 -0.2926 -0.4363  0.5130
  313MOL    H4738111   7.292   8.362   1.306 -1.3827 -0.9773  0.9983
  313MOL    H4838112   7.363   8.443   1.434  0.1458 -0.7897 -0.5383
  313MOL    H4938113   7.068   8.380   1.411  0.3121 -1.1695  2.0792
  313MOL    C5038114   7.134   8.496   1.587  0.9370 -0.2313 -0.2011
  313MOL    C5138115   7.021   0.064   1.612  0.1051 -0.2616  0.2554
  313MOL   Cl5238116   7.033   0.134   1.776 -0.3503 -0.2309 -0.0820
  313MOL    H5338117   7.232   0.011   1.613  0.9283 -0.2932 -0.0681
  313MOL    H5438118   7.112   8.404   1.641  1.0492 -1.2378 -1.8481
  313MOL    H5538119   7.027   0.152   1.548 -1.9992  0.0234  0.4030
  313MOL    C5638120   6.884   8.512   1.599 -0.5325 -0.4917 -0.1957
  313MOL    C5738121   6.751   0.053   1.624  0.4170 -0.0731 -0.7895
  313MOL   Cl5838122   6.633   8.453   1.684  0.1174  0.0616 -0.4238
  313MOL    H5938123   6.892   8.438   1.679 -0.9988  2.6237  2.8638
  313MOL    H6038124   6.875   8.460   1.504  0.6612 -2.1931  0.6128
  313MOL    H6138125   6.748   0.129   1.702 -1.2794  0.3587 -1.2554
  313MOL    C6238126   6.680   0.121   1.498  0.8992  0.0742 -0.9319
  313MOL    C6338127   6.755   0.243   1.444 -0.0610 -0.4691 -0.2434
  313MOL   Cl6438128   6.788   0.367   1.571  0.1316 -0.1226 -0.1942
  313MOL    H6538129   6.576   0.149   1.516  1.1116  0.2909 -0.0300
  313MOL    H6638130   6.684   0.036   1.430  0.5317 -0.5159 -0.2235
  313MOL    H6738131   6.857   0.221   1.411 -0.2070  1.2613 -1.9652
  313MOL    C6838132   6.671   0.311   1.331 -0.2331 -0.5621 -0.4159
  313MOL    C6938133   6.662   0.222   1.208  0.7147 -0.4028  0.1656
  313MOL   Cl7038134   6.821   0.218   1.127 -0.1272  0.2577 -0.0284
  313MOL    H7138135   6.700   0.406   1.287 -3.8895  0.3298 -1.1411
  313MOL    H7238136   6.573   0.344   1.367 -0.7471 -1.7587 -0.6819
  313MOL    H7338137   6.650   0.116   1.233 -1.5482 -1.0365 -3.3088
  313MOL    C7438138   6.541   0.272   1.109  0.0443 -0.4072 -0.4288
  313MOL    C7538139   6.507   0.178   0.986 -0.2081 -0.3702 -0.0282
  313MOL   Cl7638140   6.421   0.270   0.863 -0.2479 -0.1495  0.2570
  313MOL    H7738141   6.555   0.374   1.074 -0.9580  0.0874  0.5971
  313MOL    H7838142   6.455   0.284   1.175  0.3452  0.2231 -0.1484
  313MOL    H7938143   6.598   0.147   0.934 -0.4789  0.4605 -0.9994
  313MOL    C8038144   6.424   0.060   1.033 -0.2639  0.0551 -0.8876
  313MOL    C8138145   6.383   8.485   0.930 -0.3210  0.3200  0.1152
  313MOL   Cl8238146   6.229   0.010   0.857  0.0578 -0.0527 -0.0591
  313MOL    H8338147   6.349   0.091   1.106  0.5572  1.6404 -0.6977
  313MOL    H8438148   6.500   0.012   1.095 -0.7175 -1.1446 -1.2547
  313MOL    H8538149   6.453   8.477   0.847  0.7662 -0.1887  1.0718
  313MOL    C8638150   6.368   8.346   1.000 -0.0368  0.6130  0.0248
  313MOL    C8738151   6.498   8.268   1.036 -0.1075 -0.9126  0.8402
  313MOL   Cl8838152   6.578   8.226   0.881 -0.3090 -0.1254 -0.3409
  313MOL    H8938153   6.309   8.276   0.940 -2.8739  0.5576  2.7154
  313MOL    H9038154   6.303   8.350   1.087 -1.0774  3.2254 -0.7961
  313MOL    H9138155   6.574   8.336   1.075 -2.6994  2.7659 -0.2288
  313MOL    C9238156   6.484   8.146   1.132 -0.2701 -0.6059  0.7380
  313MOL    C9338157   6.448   8.169   1.279 -0.2741 -0.2114  0.6624
  313MOL   Cl9438158   6.548   8.293   1.349  0.0035  0.1702 -0.2072
  313MOL    H9538159   6.583   8.101   1.129  1.7312  3.7428 -1.8701
  313MOL    H9638160   6.409   8.077   1.092 -2.1608  0.5854  2.1172
  313MOL    H9738161   6.348   8.211   1.288 -0.6270 -1.0863  0.8494
  313MOL    C9838162   6.463   8.045   1.373 -0.6080 -0.7915  0.9297
  313MOL    C9938163   6.425   8.064   1.520  0.5780  0.3502 -0.2392
  313MOL  Cl10038164   6.406   7.904   1.593  0.3031 -0.1253 -0.3207
  313MOL   H10138165   6.564   8.004   1.373 -0.5246 -0.7432 -1.9592
  313MOL   H10238166   6.392   7.967   1.346  1.2005 -2.4907  0.9112
  313MOL   H10338167   6.510   8.110   1.570  1.4981  0.3762 -1.8258
  313MOL   C10438168   6.290   8.136   1.545 -0.0572  0.2571  0.4242
  313MOL   C10538169   6.251   8.164   1.686 -0.0800 -0.0618  0.1485
  313MOL  Cl10638170   6.072   8.179   1.693 -0.2045 -0.4990  0.1781
  313MOL   H10738171   6.210   8.075   1.503 -0.3647  0.6322  0.4610
  313MOL   H10838172   6.253   8.223   1.490  2.5849 -0.1345 -2.1037
  313MOL   H10938173   6.278   8.075   1.741 -0.0283  0.4368  0.9294
  313MOL   C11038174   6.309   8.298   1.732 -0.4696 -0.1282 -0.6550
  313MOL   C11138175   6.310   8.322   1.881  0.4445  0.4023 -0.2059
  313MOL  Cl11238176   6.363   8.495   1.898 -0.0728 -0.2499 -0.0776
  313MOL   H11338177   6.266   8.380   1.673 -0.0043 -0.0929 -0.9451
  313MOL   H11438178   6.414   8.297   1.702 -0.7685  1.3013 -1.8523
  313MOL   H11538179   6.210   8.313   1.923  1.1026 -0.4826  1.2336
  313MOL   C11638180   6.398   8.241   1.972 -0.3852  0.2975  0.2448
  313MOL   C11738181   6.547   8.206   1.931 -0.3738 -0.8027  0.0332
  313MOL  Cl11838182   6.609   8.071   2.030  0.0806  0.3273 -0.2121
  313MOL   H11938183   6.355   8.144   1.998  0.8650  0.4323  2.9293
  313MOL   H12038184   6.399   8.289   2.069 -0.2228 -1.1249  0.9581
  313MOL   H12138185   6.553   8.174   1.827 -1.3140  0.8824 -0.5551
  313MOL   H12238186   6.614   8.289   1.952 -0.0759 -0.4180 -2.3113
  314MOL     C138187   3.941   6.177   4.777 -0.2032  0.0196 -0.1618
  314MOL     C238188   3.910   6.331   4.791 -0.3651  0.1267 -0.1892
  314MOL    Cl338189   3.843   6.394   4.627 -0.0024  0.5269 -0.1521
  314MOL     H438190   3.851   6.129   4.738 -0.9848  1.5375 -0.3006
  314MOL     H538191   4.028   6.162   4.714  0.7428 -2.2154  1.6092
  314MOL     H638192   3.828   6.346   4.862 -0.0626 -0.3047  0.2584
  314MOL     H738193   3.967   6.127   4.870  0.0597  1.4883  0.5696
  314MOL     C838194   4.044   6.410   4.823  0.8165 -0.5391 -0.7085
  314MOL     C938195   4.094   6.385   4.970  0.7999 -0.3500  0.5282
  314MOL   Cl1038196   3.978   6.471   5.081  0.2303 -0.3311 -0.1020
  314MOL    H1138197   4.042   6.517   4.803 -0.4250 -0.1885  1.1597
  314MOL    H1238198   4.122   6.367   4.759  2.5091  2.0782 -0.5065
  314MOL    H1338199   4.093   6.281   5.002  0.3818 -0.5009  0.0259
  314MOL    C1438200   4.238   6.457   4.984 -0.3106 -0.2789 -0.4360
  314MOL    C1538201   4.310   6.446   5.122  0.2667 -0.4411 -0.3603
  314MOL   Cl1638202   4.457   6.545   5.113 -0.1142 -0.2872 -0.0275
  314MOL    H1738203   4.235   6.561   4.951  2.3550 -0.1186 -0.2494
  314MOL    H1838204   4.299   6.419   4.903  0.9260  1.2890 -0.2777
  314MOL    H1938205   4.259   6.489   5.208  1.5805 -0.9229  0.6850
  314MOL    C2038206   4.349   6.293   5.147  0.4010 -0.4988 -0.0019
  314MOL    C2138207   4.447   6.233   5.047 -0.4227  0.1892 -0.0660
  314MOL   Cl2238208   4.351   6.150   4.914 -0.3476 -0.2254 -0.0842
  314MOL    H2338209   4.265   6.227   5.166 -0.6001  0.7761  0.0555
  314MOL    H2438210   4.397   6.290   5.245  0.5547 -1.6234 -0.1023
  314MOL    H2538211   4.510   6.313   5.008 -0.2307  0.8954  1.6498
  314MOL    C2638212   4.549   6.131   5.109 -0.1459 -0.0051  0.3375
  314MOL    C2738213   4.669   6.195   5.183 -0.3359  0.2711 -0.1213
  314MOL   Cl2838214   4.816   6.101   5.156 -0.0210  0.2731 -0.1327
  314MOL    H2938215   4.589   6.076   5.024 -1.2818 -0.3977  0.0576
  314MOL    H3038216   4.489   6.051   5.153 -1.4492  0.2252 -0.9754
  314MOL    H3138217   4.691   6.288   5.130 -2.1342  0.6504 -0.2411
  314MOL    C3238218   4.652   6.213   5.337  0.4066  0.6414 -0.1624
  314MOL    C3338219   4.754   6.295   5.410  0.5411  0.1147 -0.0512
  314MOL   Cl3438220   4.679   6.310   5.574 -0.1522 -0.0095  0.0493
  314MOL    H3538221   4.625   6.122   5.390 -0.1618 -0.3267 -2.0362
  314MOL    H3638222   4.565   6.278   5.346  0.0805 -0.0678  1.9057
  314MOL    H3738223   4.847   6.241   5.426 -0.7310 -2.3721 -0.7373
  314MOL    C3838224   4.773   6.444   5.354 -0.1825 -0.3009  1.0972
  314MOL    C3938225   4.875   6.537   5.415  0.6670 -1.0531  0.3713
  314MOL   Cl4038226   4.841   6.695   5.346  0.1180  0.5051  0.0714
  314MOL    H4138227   4.682   6.499   5.331  1.7612  2.0916 -1.2229
  314MOL    H4238228   4.806   6.430   5.251 -1.5204  1.4943  0.3989
  314MOL    H4338229   4.862   6.540   5.523  2.6066  0.3067  0.5967
  314MOL    C4438230   5.011   6.483   5.382 -0.2510 -0.3420  0.8572
  314MOL    C4538231   5.123   6.561   5.445 -0.3340  0.3149  0.0357
  314MOL   Cl4638232   5.154   6.700   5.340  0.0031  0.0959 -0.1364
  314MOL    H4738233   5.032   6.473   5.276 -1.2649  0.2123  0.6055
  314MOL    H4838234   5.022   6.377   5.403  1.6289 -0.6946 -1.7444
  314MOL    H4938235   5.105   6.606   5.543  0.4656  4.0008 -1.4280
  314MOL    C5038236   5.252   6.470   5.445 -0.5441  0.2563  0.0001
  314MOL    C5138237   5.261   6.351   5.543  1.1709 -1.0853  0.1407
  314MOL   Cl5238238   5.287   6.437   5.701 -0.1720  0.0653  0.2185
  314MOL    H5338239   5.333   6.534   5.479  0.6267  0.0265 -2.3388
  314MOL    H5438240   5.289   6.435   5.349  0.0558 -1.7483  0.9344
  314MOL    H5538241   5.167   6.297   5.551 -0.3580  0.9258 -2.8471
  314MOL    C5638242   5.386   6.260   5.524  0.4606  0.2723 -0.1951
  314MOL    C5738243   5.387   6.174   5.396  0.5189  0.0845 -0.6474
  314MOL   Cl5838244   5.235   6.088   5.356  0.2256 -0.0759 -0.4428
  314MOL    H5938245   5.397   6.199   5.614  0.5387  0.0235 -0.3726
  314MOL    H6038246   5.477   6.320   5.517  0.3166  0.8191  2.1243
  314MOL    H6138247   5.407   6.233   5.307 -1.4629  0.5485 -0.8203
  314MOL    C6238248   5.498   6.060   5.409 -0.9686  0.7312  0.1588
  314MOL    C6338249   5.499   5.954   5.296 -0.9279  0.1410 -0.0189
  314MOL   Cl6438250   5.612   5.815   5.351 -0.0788  0.1559 -0.1662
  314MOL    H6538251   5.475   6.014   5.505  1.9316  0.9508  1.0275
  314MOL    H6638252   5.596   6.098   5.438 -1.0382  0.3164  0.9592
  314MOL    H6738253   5.406   5.898   5.280  0.0221 -0.8380 -2.3926
  314MOL    C6838254   5.551   6.010   5.161  0.0611 -0.3169  0.1709
  314MOL    C6938255   5.698   6.061   5.164  0.1767  0.5290  0.0567
  314MOL   Cl7038256   5.699   6.239   5.217 -0.3287 -0.1253  0.2243
  314MOL    H7138257   5.474   6.076   5.123  1.1529  1.9888  1.8884
  314MOL    H7238258   5.549   5.922   5.096 -0.5602 -1.6348  1.9208
  314MOL    H7338259   5.750   6.006   5.242 -2.2448 -0.6561  0.8862
  314MOL    C7438260   5.774   6.029   5.033 -0.4523 -0.0472 -0.8154
  314MOL    C7538261   5.733   6.120   4.914  0.1301 -0.2548 -0.3241
  314MOL   Cl7638262   5.584   6.073   4.821  0.0364  0.0336  0.4011
  314MOL    H7738263   5.769   5.922   5.009 -0.4888 -0.2691  0.1637
  314MOL    H7838264   5.880   6.046   5.046 -0.7643  1.9380 -0.7530
  314MOL    H7938265   5.706   6.215   4.962 -0.0714 -0.4154 -0.1133
  314MOL    C8038266   5.847   6.129   4.814  0.2058  0.3279 -0.2997
  314MOL    C8138267   5.827   6.218   4.690 -0.0178 -0.5925  0.2813
  314MOL   Cl8238268   5.964   6.213   4.570  0.0591  0.3602 -0.2511
  314MOL    H8338269   5.874   6.026   4.792 -2.8310 -0.2378 -1.6222
  314MOL    H8438270   5.943   6.153   4.860  0.2008  2.1192 -1.1783
  314MOL    H8538271   5.741   6.176   4.638 -0.3576 -1.5813  1.6223
  314MOL    C8638272   5.798   6.366   4.726 -0.2974  0.0447  0.7943
  314MOL    C8738273   5.909   6.439   4.796  0.4542 -0.2810 -0.3951
  314MOL   Cl8838274   5.918   6.407   4.976 -0.0711 -0.2848 -0.2204
  314MOL    H8938275   5.708   6.371   4.787 -1.0347 -0.8329 -0.1926
  314MOL    H9038276   5.784   6.416   4.630 -0.1241 -1.0317  0.2006
  314MOL    H9138277   6.005   6.403   4.756  0.2767  1.1324 -2.1470
  314MOL    C9238278   5.913   6.590   4.773 -0.4112 -0.2956  0.1766
  314MOL    C9338279   6.033   6.688   4.817 -0.2762  0.1305 -0.1072
  314MOL   Cl9438280   6.024   6.701   4.995  0.0428 -0.0385  0.2528
  314MOL    H9538281   5.816   6.631   4.801 -0.6994 -0.1837 -0.9473
  314MOL    H9638282   5.925   6.595   4.664 -0.0513  0.0392  0.2280
  314MOL    H9738283   6.121   6.635   4.782  2.5974  2.7950  2.6906
  314MOL    C9838284   6.033   6.824   4.752  0.3379  0.0113 -0.2138
  314MOL    C9938285   6.067   6.834   4.600  0.6715 -0.3984  0.2541
  314MOL  Cl10038286   6.247   6.809   4.577  0.0893 -0.0151 -0.3642
  314MOL   H10138287   6.102   6.889   4.806 -0.6507  2.1320 -1.4238
  314MOL   H10238288   5.939   6.879   4.762  0.7304  0.5520  0.6173
  314MOL   H10338289   6.022   6.757   4.537  0.2868 -0.4745  0.6161
  314MOL   C10438290   6.043   6.981   4.549 -0.2932  0.5579  0.0364
  314MOL   C10538291   6.038   7.010   4.397 -0.0773 -0.8740 -0.4030
  314MOL  Cl10638292   6.047   7.191   4.381  0.0501  0.0374 -0.0424
  314MOL   H10738293   6.122   7.042   4.594  1.2061 -2.4644  1.6364
  314MOL   H10838294   5.958   7.019   4.605 -0.0712 -0.8873  1.3868
  314MOL   H10938295   6.134   6.971   4.364  1.4245  2.0497  0.2970
  314MOL   C11038296   5.910   6.957   4.330  0.0437 -0.2494  0.2540
  314MOL   C11138297   5.906   6.982   4.175  0.4178  0.5665  0.4438
  314MOL  Cl11238298   5.739   6.971   4.111  0.2120 -0.2380  0.3463
  314MOL   H11338299   5.820   7.001   4.374  1.6844  3.3437  0.2213
  314MOL   H11438300   5.906   6.849   4.338  0.6959 -0.3767 -0.9907
  314MOL   H11538301   5.942   7.083   4.153  1.7708  0.9725  4.0860
  314MOL   C11638302   5.998   6.882   4.094  0.3831  0.2200 -0.0434
  314MOL   C11738303   6.003   6.914   3.943 -0.1413 -0.5585 -0.6833
  314MOL  Cl11838304   6.155   6.848   3.878  0.0042  0.1853 -0.2339
  314MOL   H11938305   5.959   6.781   4.107  1.7062 -0.3930 -0.7377
  314MOL   H12038306   6.101   6.885   4.130 -0.0217  0.6309  1.1110
  314MOL   H12138307   5.924   6.864   3.887 -0.7145  1.8993 -2.1863
  314MOL   H12238308   5.995   7.021   3.920 -0.7216 -0.7117 -1.1965
  315MOL     C138309   3.779   0.414   3.521 -0.5188  0.3608 -0.6007
  315MOL     C238310   3.783   0.259   3.523  0.4773  0.3583 -0.3776
  315MOL    Cl338311   3.934   0.199   3.452  0.1418  0.0425 -0.1416
  315MOL     H438312   3.784   0.453   3.419 -1.8347 -2.2142 -1.7121
  315MOL     H538313   3.698   0.458   3.580 -1.4846 -1.6907 -0.3422
  315MOL     H638314   3.786   0.225   3.627 -0.1579  0.6954 -0.2461
  315MOL     H738315   3.869   0.450   3.570  0.1081  0.0970 -1.5430
  315MOL     C838316   3.662   0.197   3.452 -0.1913  0.6948  0.2916
  315MOL     C938317   3.526   0.209   3.520 -0.2788 -0.3844  0.2064
  315MOL   Cl1038318   3.527   0.116   3.675  0.1608  0.0874  0.4094
  315MOL    H1138319   3.691   0.092   3.439 -0.5036  0.6899 -0.4275
  315MOL    H1238320   3.650   0.239   3.352 -1.0794  0.1805  0.1754
  315MOL    H1338321   3.511   0.314   3.547 -0.7116 -0.6120  0.8586
  315MOL    C1438322   3.408   0.154   3.434  0.4550  0.4180  0.6655
  315MOL    C1538323   3.256   0.201   3.473 -0.3847  0.6426  0.4059
  315MOL   Cl1638324   3.143   0.092   3.388  0.2769 -0.1971  0.0496
  315MOL    H1738325   3.419   0.047   3.451  0.0396 -0.0898 -1.9878
  315MOL    H1838326   3.423   0.185   3.331  1.4916  1.7147  1.2019
  315MOL    H1938327   3.239   0.178   3.578 -0.5458 -0.8825  0.0688
  315MOL    C2038328   3.238   0.347   3.424 -0.0070 -0.0276 -0.2152
  315MOL    C2138329   3.102   0.397   3.453  0.7762  0.7635  0.4649
  315MOL   Cl2238330   3.061   0.538   3.356  0.0641  0.0491 -0.1566
  315MOL    H2338331   3.256   0.348   3.316  0.7899  0.1754 -0.0840
  315MOL    H2438332   3.318   0.408   3.465  0.0844 -1.7810  2.3406
  315MOL    H2538333   3.026   0.324   3.424 -0.0317  1.3453  1.0856
  315MOL    C2638334   3.085   0.425   3.594 -0.3714 -0.5517  0.1571
  315MOL    C2738335   2.940   0.421   3.652  0.1268  0.2391 -0.2758
  315MOL   Cl2838336   2.867   0.251   3.620 -0.3017 -0.1629 -0.2424
  315MOL    H2938337   3.129   0.521   3.620  2.2477 -1.5248 -0.5116
  315MOL    H3038338   3.134   0.347   3.652  0.0541 -1.5227 -1.4704
  315MOL    H3138339   2.951   0.412   3.760  1.2932  1.1033 -0.3142
  315MOL    C3238340   2.837   0.534   3.620  0.3211  0.4141  0.3286
  315MOL    C3338341   2.718   0.544   3.720 -0.6084  0.2260  0.4125
  315MOL   Cl3438342   2.588   0.416   3.674  0.0529 -0.0678 -0.5813
  315MOL    H3538343   2.793   0.515   3.522 -0.0588  0.9881  0.3881
  315MOL    H3638344   2.894   0.627   3.617  1.5463 -0.3338  0.4086
  315MOL    H3738345   2.749   0.515   3.820 -1.2654  1.1879  0.9052
  315MOL    C3838346   2.651   0.679   3.715 -0.2885 -0.1318 -0.0774
  315MOL    C3938347   2.725   0.801   3.777  0.1478 -0.6848 -0.3461
  315MOL   Cl4038348   2.777   0.769   3.941 -0.2204 -0.0366 -0.3427
  315MOL    H4138349   2.574   0.667   3.792  0.2720  1.5668  0.7610
  315MOL    H4238350   2.596   0.712   3.627  0.4949  2.9024  0.5207
  315MOL    H4338351   2.822   0.815   3.731 -0.5992 -1.0443 -2.0804
  315MOL    C4438352   2.654   0.933   3.770 -0.4365 -0.7637  0.9293
  315MOL    C4538353   2.689   1.028   3.656  0.0873 -0.5592 -0.3600
  315MOL   Cl4638354   2.866   1.057   3.667  0.1863  0.1443  0.4339
  315MOL    H4738355   2.683   0.996   3.855  0.6161  1.0866 -0.7549
  315MOL    H4838356   2.547   0.926   3.791 -0.6617 -0.3802 -0.0845
  315MOL    H4938357   2.683   0.980   3.558  1.5536 -0.5998 -0.4401
  315MOL    C5038358   2.613   1.161   3.654  0.2506 -0.4537 -0.2754
  315MOL    C5138359   2.469   1.150   3.614  0.6777  0.1750  0.2205
  315MOL   Cl5238360   2.456   1.082   3.451 -0.0175  0.0440 -0.3917
  315MOL    H5338361   2.657   1.225   3.578  1.1528 -2.2595 -1.2941
  315MOL    H5438362   2.624   1.206   3.753 -0.4748  1.8792 -1.2223
  315MOL    H5538363   2.411   1.090   3.684 -2.0121 -0.0153 -2.0547
  315MOL    C5638364   2.380   1.279   3.605  0.8888  0.2416  0.4365
  315MOL    C5738365   2.230   1.258   3.582  0.4909  0.3802 -0.4591
  315MOL   Cl5838366   2.157   1.421   3.554 -0.4001 -0.0063 -0.5136
  315MOL    H5938367   2.410   1.344   3.524 -1.5999 -1.2539 -1.7768
  315MOL    H6038368   2.396   1.338   3.695 -3.5250  0.3291  1.2506
  315MOL    H6138369   2.204   1.217   3.485 -2.4120  1.1600 -0.0682
  315MOL    C6238370   2.152   1.199   3.701  0.4210  0.7910 -0.1120
  315MOL    C6338371   2.062   1.086   3.667 -0.9012  0.0326  0.1597
  315MOL   Cl6438372   1.918   1.157   3.595  0.2585  0.0148 -0.2998
  315MOL    H6538373   2.102   1.269   3.768 -1.1474  1.8242 -2.3081
  315MOL    H6638374   2.235   1.162   3.761 -0.6495 -2.9722 -0.8510
  315MOL    H6738375   2.111   1.022   3.594 -1.8198 -1.6117  0.9563
  315MOL    C6838376   2.016   1.003   3.795  0.1967 -0.2406  0.4670
  315MOL    C6938377   1.966   0.856   3.760 -1.0175 -0.0267 -0.0040
  315MOL   Cl7038378   2.098   0.761   3.688 -0.6239 -0.3288 -0.5500
  315MOL    H7138379   1.951   1.063   3.859 -1.1609  0.8528 -1.8944
  315MOL    H7238380   2.112   0.996   3.847  0.3595 -0.0574  0.1901
  315MOL    H7338381   1.935   0.806   3.852 -0.6195 -0.0717  0.1111
  315MOL    C7438382   1.842   0.852   3.670  0.6778  0.2160  0.1347
  315MOL    C7538383   1.717   0.923   3.728  0.0177  0.0975 -0.5483
  315MOL   Cl7638384   1.656   0.830   3.873  0.0056  0.3953 -0.0664
  315MOL    H7738385   1.804   0.751   3.655  2.3517 -0.4825  0.4899
  315MOL    H7838386   1.866   0.901   3.575 -0.1141  0.7665  0.2162
  315MOL    H7938387   1.747   1.019   3.769 -0.0261 -0.6737  1.3222
  315MOL    C8038388   1.603   0.952   3.630 -0.3218 -0.3586 -0.0017
  315MOL    C8138389   1.524   0.828   3.582 -0.1156 -0.5106  0.7026
  315MOL   Cl8238390   1.613   0.744   3.462  0.1650  0.4245  0.4659
  315MOL    H8338391   1.638   1.001   3.540  0.9393 -0.3188  0.5101
  315MOL    H8438392   1.529   1.022   3.668 -0.6538 -0.6667 -0.0695
  315MOL    H8538393   1.495   0.758   3.660  1.5568 -2.6642 -0.5596
  315MOL    C8638394   1.399   0.874   3.499  0.2582  0.0141  0.9832
  315MOL    C8738395   1.292   0.772   3.446 -0.4593 -1.2611  0.4041
  315MOL   Cl8838396   1.183   0.870   3.349 -0.4643  0.2104  0.2092
  315MOL    H8938397   1.434   0.933   3.414 -3.5494  0.4490 -0.4236
  315MOL    H9038398   1.345   0.955   3.549  1.4902  1.5277 -0.1195
  315MOL    H9138399   1.351   0.707   3.382 -0.1458 -0.5835 -0.0061
  315MOL    C9238400   1.225   0.702   3.564  0.1774  0.2116 -0.2205
  315MOL    C9338401   1.118   0.595   3.522 -0.5378  0.3774  0.0671
  315MOL   Cl9438402   1.007   0.581   3.655  0.0727  0.3418  0.3397
  315MOL    H9538403   1.180   0.785   3.620  2.0763  1.4168 -0.4482
  315MOL    H9638404   1.298   0.660   3.634  1.4670  0.0878 -1.6168
  315MOL    H9738405   1.058   0.636   3.440  0.1516  1.4000  0.0638
  315MOL    C9838406   1.176   0.457   3.486  0.3224  0.2923  0.5609
  315MOL    C9938407   1.213   0.434   3.340 -0.2210 -0.1720 -0.3913
  315MOL  Cl10038408   1.069   0.410   3.243  0.0192  0.3692 -0.1154
  315MOL   H10138409   1.119   0.372   3.525  1.0561 -0.8508 -0.7860
  315MOL   H10238410   1.268   0.460   3.545  1.1675 -1.5857 -0.6128
  315MOL   H10338411   1.261   0.521   3.296  0.0121 -1.3357 -2.4923
  315MOL   C10438412   1.309   0.317   3.322  0.3675 -0.5476  0.0604
  315MOL   C10538413   1.455   0.341   3.368  0.4075 -0.3727  0.2715
  315MOL  Cl10638414   1.518   0.484   3.275 -0.0842 -0.1939 -0.2189
  315MOL   H10738415   1.301   0.287   3.217  0.4252 -2.4278  0.5879
  315MOL   H10838416   1.273   0.233   3.381  0.2490  0.1654  1.0168
  315MOL   H10938417   1.450   0.369   3.473  3.5680  1.5022 -0.0304
  315MOL   C11038418   1.549   0.225   3.336  0.3381 -0.6152 -0.3066
  315MOL   C11138419   1.504   0.093   3.411 -0.5567 -0.2649 -0.1901
  315MOL  Cl11238420   1.460   0.122   3.585 -0.2706  0.1985  0.2081
  315MOL   H11338421   1.647   0.241   3.381  1.0178 -1.4864 -1.4704
  315MOL   H11438422   1.565   0.196   3.233  0.8709  3.0756 -1.3341
  315MOL   H11538423   1.409   0.063   3.368 -0.6926  0.5072 -0.4291
  315MOL   C11638424   1.610   8.506   3.395  0.6004  1.1945 -0.2575
  315MOL   C11738425   1.565   8.379   3.480 -0.4743 -0.4320 -0.3591
  315MOL  Cl11838426   1.672   8.242   3.445 -0.3749 -0.1618 -0.0966
  315MOL   H11938427   1.713   0.008   3.420  1.0921 -1.5911  0.9989
  315MOL   H12038428   1.618   8.475   3.291 -1.2953 -1.1520  0.2423
  315MOL   H12138429   1.582   8.400   3.586  0.5395 -4.3837  0.3551
  315MOL   H12238430   1.465   8.342   3.456 -0.0577 -1.2830 -0.8079
  316MOL     C138431   0.193   0.679   1.587 -0.3536  0.3513 -0.4200
  316MOL     C238432   0.333   0.675   1.651  0.6145  0.5653  0.0192
  316MOL    Cl338433   0.422   0.798   1.550  0.0797 -0.3129  0.1411
  316MOL     H438434   0.182   0.645   1.484 -1.9389 -2.2438  0.5541
  316MOL     H538435   0.119   0.619   1.640  0.4621  0.2078  0.5707
  316MOL     H638436   0.330   0.704   1.757  0.2394  1.4642 -0.2317
  316MOL     H738437   0.149   0.778   1.601 -2.0594 -0.4085 -0.2301
  316MOL     C838438   0.392   0.535   1.642  0.4660 -0.4387 -0.2391
  316MOL     C938439   0.335   0.429   1.736  0.5278  0.6439  0.0719
  316MOL   Cl1038440   0.351   0.473   1.908  0.2420  0.0575 -0.1427
  316MOL    H1138441   0.501   0.537   1.650  0.7714 -1.8911 -3.0682
  316MOL    H1238442   0.384   0.485   1.545  2.7776 -1.3669  0.0136
  316MOL    H1338443   0.227   0.425   1.722  0.6288  1.4797 -1.0470
  316MOL    C1438444   0.404   0.288   1.721 -0.2424  0.1191 -0.1845
  316MOL    C1538445   0.556   0.283   1.695  0.0737 -0.9472 -0.2591
  316MOL   Cl1638446   0.614   0.124   1.667 -0.1623  0.2423  0.0093
  316MOL    H1738447   0.359   0.237   1.636 -2.2479  1.2559  0.1611
  316MOL    H1838448   0.386   0.234   1.814  2.8643  2.2689  1.7815
  316MOL    H1938449   0.576   0.332   1.600  0.4254  0.1432  0.3658
  316MOL    C2038450   0.637   0.338   1.816  0.2448 -0.2148  0.3237
  316MOL    C2138451   0.790   0.317   1.818  0.6786  0.0466 -0.7069
  316MOL   Cl2238452   0.857   0.404   1.957 -0.0774 -0.2981 -0.1126
  316MOL    H2338453   0.603   0.285   1.905 -2.8752 -0.9290 -1.2444
  316MOL    H2438454   0.619   0.443   1.837 -2.1643 -0.5083 -0.1308
  316MOL    H2538455   0.805   0.209   1.826  0.0376  0.0511  0.6979
  316MOL    C2638456   0.847   0.382   1.688 -0.0709 -0.7354  0.5698
  316MOL    C2738457   0.997   0.383   1.681 -0.3179  0.0440  0.0952
  316MOL   Cl2838458   1.044   0.519   1.571  0.0339 -0.2352  0.0390
  316MOL    H2938459   0.804   0.483   1.688  3.2281  0.7660 -2.4915
  316MOL    H3038460   0.810   0.340   1.594  0.4419 -0.7464  0.3728
  316MOL    H3138461   1.043   0.418   1.774  0.6668  0.9281 -0.7145
  316MOL    C3238462   1.075   0.251   1.639  0.2808 -0.8454  0.1222
  316MOL    C3338463   1.075   0.137   1.738  1.0234  0.3418 -0.6555
  316MOL   Cl3438464   1.140   0.198   1.901  0.1707  0.3834  0.0377
  316MOL    H3538465   1.179   0.285   1.641 -0.0768  0.2944 -0.4138
  316MOL    H3638466   1.058   0.211   1.539  0.3020 -0.6331  0.0320
  316MOL    H3738467   0.971   0.111   1.756  1.7802 -1.6733  0.9844
  316MOL    C3838468   1.161   0.013   1.693 -0.6017 -0.4257 -0.2116
  316MOL    C3938469   1.133   8.404   1.769 -0.2114 -0.4278  0.0905
  316MOL   Cl4038470   1.286   8.309   1.783 -0.2219  0.0642 -0.2368
  316MOL    H4138471   1.257   0.050   1.730 -1.1041  0.4089  0.2748
  316MOL    H4238472   1.159   8.525   1.585 -1.5454  1.2934 -0.4223
  316MOL    H4338473   1.109   8.433   1.871  0.5852  0.9698 -0.1093
  316MOL    C4438474   1.028   8.314   1.701  0.1596 -0.2093  0.4406
  316MOL    C4538475   0.879   8.363   1.711  0.3903  0.1209 -0.5539
  316MOL   Cl4638476   0.822   8.410   1.871  0.1913  0.3026  0.1109
  316MOL    H4738477   1.023   8.221   1.758  0.8167 -0.8077 -0.4679
  316MOL    H4838478   1.071   8.305   1.601  0.0553 -0.8031  0.4480
  316MOL    H4938479   0.879   8.455   1.652 -0.7842 -0.2778 -1.2038
  316MOL    C5038480   0.774   8.263   1.651 -0.2118  0.6823  0.3383
  316MOL    C5138481   0.781   8.237   1.504 -0.3795  0.3464  0.0799
  316MOL   Cl5238482   0.760   8.388   1.415 -0.5274 -0.1134  0.4357
  316MOL    H5338483   0.676   8.305   1.672 -0.1277  0.6093  0.9075
  316MOL    H5438484   0.774   8.164   1.698 -1.8041  1.1064  1.2770
  316MOL    H5538485   0.883   8.205   1.482  0.2763  3.0452 -1.0690
  316MOL    C5638486   0.672   8.150   1.440 -0.4430 -0.0875  0.1907
  316MOL    C5738487   0.693   7.996   1.461  0.3966 -0.1534 -0.1605
  316MOL   Cl5838488   0.859   7.950   1.407 -0.1846 -0.5285 -0.6157
  316MOL    H5938489   0.664   8.161   1.332  0.4919 -1.3516 -0.0140
  316MOL    H6038490   0.573   8.176   1.476 -0.9034 -0.0295 -1.1252
  316MOL    H6138491   0.697   7.981   1.569 -1.3188  2.8351  0.3520
  316MOL    C6238492   0.578   7.912   1.400 -0.0103 -0.7191  0.4613
  316MOL    C6338493   0.544   7.778   1.472  0.0754  0.3514  0.9456
  316MOL   Cl6438494   0.494   7.814   1.634  0.1519 -0.3528  0.0953
  316MOL    H6538495   0.619   7.875   1.306 -0.8928  1.2261 -0.7267
  316MOL    H6638496   0.493   7.975   1.374 -0.6484 -2.5678 -2.1371
  316MOL    H6738497   0.461   7.729   1.421  1.5559 -1.6167  0.3753
  316MOL    C6838498   0.669   7.682   1.476 -0.0434  0.2624 -0.2495
  316MOL    C6938499   0.687   7.595   1.357 -0.5475  0.6693  0.9247
  316MOL   Cl7038500   0.566   7.457   1.354 -0.2368 -0.5105  0.0595
  316MOL    H7138501   0.650   7.607   1.553  1.5088 -0.5811 -0.6808
  316MOL    H7238502   0.761   7.730   1.510 -0.1874  0.5328 -0.2370
  316MOL    H7338503   0.679   7.650   1.264  1.5328  0.4782  0.5998
  316MOL    C7438504   0.830   7.531   1.347 -0.5731 -0.4434 -0.0268
  316MOL    C7538505   0.927   7.596   1.251 -0.6690  0.8718 -0.3017
  316MOL   Cl7638506   0.867   7.555   1.087 -0.1383  0.0481 -0.2440
  316MOL    H7738507   0.830   7.427   1.317  0.9329  0.4940 -3.5945
  316MOL    H7838508   0.875   7.530   1.446  2.7361  1.9594 -1.4171
  316MOL    H7938509   0.930   7.705   1.237 -2.4650  0.6988 -2.3914
  316MOL    C8038510   1.067   7.553   1.260  0.3315  1.0419  0.2441
  316MOL    C8138511   1.138   7.620   1.380 -0.8317 -0.4344  0.2189
  316MOL   Cl8238512   1.230   7.755   1.308 -0.1311 -0.3263  0.2328
  316MOL    H8338513   1.114   7.572   1.163 -1.0473 -0.8011 -0.8382
  316MOL    H8438514   1.079   7.447   1.283  1.3063  1.1920  0.4720
  316MOL    H8538515   1.063   7.663   1.447 -0.4577 -1.1202  1.0957
  316MOL    C8638516   1.230   7.522   1.445 -0.3450  0.2715 -0.0720
  316MOL    C8738517   1.159   7.400   1.518  0.0388  0.1991 -0.5604
  316MOL   Cl8838518   1.054   7.468   1.639 -0.1146 -0.0304  0.0341
  316MOL    H8938519   1.273   7.569   1.534  1.5936 -1.6021  0.0141
  316MOL    H9038520   1.311   7.495   1.377  0.0017 -0.9516  0.8061
  316MOL    H9138521   1.089   7.347   1.454  0.1108 -0.6812  0.0769
  316MOL    C9238522   1.255   7.309   1.591  0.0325  0.2465  0.2661
  316MOL    C9338523   1.333   7.213   1.499 -0.3665  0.2769  0.7173
  316MOL   Cl9438524   1.209   7.125   1.413  0.0158  0.1492 -0.2349
  316MOL    H9538525   1.200   7.257   1.669  0.7170  0.6305  1.0104
  316MOL    H9638526   1.321   7.379   1.643 -0.1425  0.6481 -0.0445
  316MOL    H9738527   1.394   7.272   1.431  1.7646 -0.6442  1.7885
  316MOL    C9838528   1.426   7.117   1.576 -0.4479 -0.2142 -0.1274
  316MOL    C9938529   1.541   7.175   1.661 -0.2414 -0.0201 -0.3108
  316MOL  Cl10038530   1.679   7.237   1.566  0.1503  0.4335 -0.0709
  316MOL   H10138531   1.470   7.047   1.504  1.4146  1.3483 -0.5551
  316MOL   H10238532   1.357   7.057   1.635  0.0401  0.5413  1.2283
  316MOL   H10338533   1.499   7.260   1.714 -1.5670 -0.9512  0.1426
  316MOL   C10438534   1.593   7.075   1.769  0.2997 -0.3343 -0.2267
  316MOL   C10538535   1.499   7.038   1.880 -0.2339  0.1733  0.2361
  316MOL  Cl10638536   1.450   7.181   1.981  0.1247  0.1768  0.3013
  316MOL   H10738537   1.677   7.127   1.814  0.0809 -0.1399 -0.0398
  316MOL   H10838538   1.636   6.987   1.721  1.0377  0.8065 -1.7009
  316MOL   H10938539   1.411   6.995   1.832  0.2168 -0.3152 -0.1557
  316MOL   C11038540   1.555   6.928   1.978 -0.7593 -0.0834 -0.2200
  316MOL   C11138541   1.695   6.964   2.046  0.6081 -0.0667  0.3496
  316MOL  Cl11238542   1.822   6.904   1.940 -0.2399  0.0724  0.0107
  316MOL   H11338543   1.548   6.827   1.939  0.5804  0.2051 -1.2524
  316MOL   H11438544   1.477   6.922   2.053 -1.4529  1.3743 -0.8233
  316MOL   H11538545   1.701   7.073   2.057  1.1628 -0.1454  0.8178
  316MOL   C11638546   1.703   6.886   2.179  0.1547  0.2478  0.3793
  316MOL   C11738547   1.603   6.950   2.277 -0.1727 -0.0998  0.0341
  316MOL  Cl11838548   1.634   6.900   2.444  0.1618 -0.0566 -0.1435
  316MOL   H11938549   1.800   6.887   2.230  1.4580  1.3492 -2.0041
  316MOL   H12038550   1.681   6.782   2.159 -1.6654  1.2778 -3.3998
  316MOL   H12138551   1.613   7.059   2.272  1.7914 -0.1615  1.6654
  316MOL   H12238552   1.499   6.931   2.253 -0.4942  0.0480  1.2550
  317MOL     C138553   7.548   8.186   2.634  0.2698  0.0080  0.0667
  317MOL     C238554   7.680   8.253   2.687 -0.3932 -0.6842  0.5772
  317MOL    Cl338555   7.676   8.433   2.681 -0.1788  0.1139 -0.2094
  317MOL     H438556   7.507   8.237   2.547 -0.6812  0.8459  0.9993
  317MOL     H538557   7.561   8.079   2.617 -0.6595  0.1292 -1.4611
  317MOL     H638558   7.677   8.234   2.794 -2.2032 -1.3757  0.4222
  317MOL     H738559   7.461   8.185   2.699  1.2059  0.8174  1.3673
  317MOL     C838560   7.802   8.191   2.613  0.3175 -0.5671 -0.3583
  317MOL     C938561   7.935   8.255   2.662 -0.3113  0.8281 -0.0301
  317MOL   Cl1038562   8.056   8.183   2.553  0.6153 -0.0343 -0.2246
  317MOL    H1138563   7.793   8.224   2.510 -0.5147 -0.0080 -0.1121
  317MOL    H1238564   7.798   8.082   2.610 -1.4192 -0.5434  0.7763
  317MOL    H1338565   7.951   8.361   2.641 -1.8848  0.7022 -2.1140
  317MOL    C1438566   7.965   8.211   2.808 -0.2888  0.4592  0.0376
  317MOL    C1538567   8.077   8.298   2.884  0.6572  0.6420 -0.0826
  317MOL   Cl1638568   8.011   8.471   2.884  0.0786  0.2724  0.0205
  317MOL    H1738569   7.969   8.104   2.826 -2.4751  0.7444  2.5158
  317MOL    H1838570   7.866   8.224   2.851 -0.9687 -2.0716 -0.6656
  317MOL    H1938571   8.074   8.282   2.992  4.2578  0.2761  0.0088
  317MOL    C2038572   8.213   8.293   2.823 -0.3575 -0.1737  0.9039
  317MOL    C2138573   8.278   8.154   2.812 -0.3329  0.0900  0.5078
  317MOL   Cl2238574   8.342   8.125   2.977 -0.2013  0.0329  0.0879
  317MOL    H2338575   8.273   8.365   2.880  1.3189  0.2888 -1.3949
  317MOL    H2438576   8.209   8.340   2.725  1.9966  0.4805  1.0852
  317MOL    H2538577   8.199   8.082   2.794  0.1491 -0.3062 -0.0567
  317MOL    C2638578   8.385   8.139   2.708 -0.0540 -0.2504 -0.0834
  317MOL    C2738579   8.433   7.997   2.666 -0.0511 -0.0771  0.0690
  317MOL   Cl2838580   8.501   7.903   2.809  0.1830 -0.0541  0.0727
  317MOL    H2938581   8.469   8.197   2.745 -0.1258  0.0631 -0.4146
  317MOL    H3038582   8.335   8.195   2.629 -1.6394 -0.4881  0.7237
  317MOL    H3138583   8.351   7.938   2.626 -0.4426 -0.9733  2.1606
  317MOL    C3238584   0.014   8.002   2.559 -0.3263  0.5391 -0.6818
  317MOL    C3338585   8.519   8.079   2.435  0.6980 -0.3197 -0.0106
  317MOL   Cl3438586   8.391   8.010   2.335 -0.1996  0.0161  0.1139
  317MOL    H3538587   0.024   7.897   2.531  0.2484 -0.0601  1.6815
  317MOL    H3638588   0.104   8.047   2.602 -0.7721  1.2334 -0.4658
  317MOL    H3738589   8.487   8.182   2.455  2.3693  0.5030 -1.3888
  317MOL    C3838590   0.114   8.085   2.337  0.3977 -0.0326 -0.5462
  317MOL    C3938591   0.250   8.137   2.395  0.5530 -0.6021 -0.0551
  317MOL   Cl4038592   0.214   8.299   2.458  0.2751  0.0896 -0.3030
  317MOL    H4138593   0.094   8.129   2.239  0.7400  1.0086 -0.1604
  317MOL    H4238594   0.142   7.986   2.301  0.0923 -0.0998 -0.5987
  317MOL    H4338595   0.273   8.080   2.485 -1.8398  1.3273  1.8624
  317MOL    C4438596   0.361   8.151   2.291  0.7127 -0.3102 -0.3521
  317MOL    C4538597   0.414   8.022   2.224 -0.3238 -0.6677 -0.1724
  317MOL   Cl4638598   0.404   7.875   2.327  0.1727  0.1994  0.0753
  317MOL    H4738599   0.444   8.206   2.335  1.3318  0.7694 -2.7889
  317MOL    H4838600   0.333   8.218   2.211 -0.2126 -1.1484 -0.7438
  317MOL    H4938601   0.348   8.002   2.140 -2.0151  1.1278  0.6696
  317MOL    C5038602   0.554   8.035   2.175  0.1119 -0.6847 -0.0318
  317MOL    C5138603   0.599   7.966   2.049 -0.7399  0.2809 -0.4369
  317MOL   Cl5238604   0.515   8.029   1.905 -0.0614 -0.3151 -0.2271
  317MOL    H5338605   0.628   8.025   2.254 -0.2253  0.5723  0.4443
  317MOL    H5438606   0.554   8.139   2.143 -6.4669  0.3254  2.5039
  317MOL    H5538607   0.699   8.000   2.024 -0.7528  0.2188 -0.5697
  317MOL    C5638608   0.585   7.816   2.060 -0.5124  0.3642  0.0052
  317MOL    C5738609   0.674   7.756   2.174  0.0547  0.4415 -0.4388
  317MOL   Cl5838610   0.848   7.767   2.130 -0.2894 -0.0294 -0.2243
  317MOL    H5938611   0.621   7.764   1.971 -1.0286 -1.9026  1.0916
  317MOL    H6038612   0.480   7.787   2.060  0.1429 -2.0936 -0.4439
  317MOL    H6138613   0.664   7.804   2.271  0.6357  0.9523 -0.6284
  317MOL    C6238614   0.642   7.604   2.193 -0.0089 -0.9954  0.2947
  317MOL    C6338615   0.716   7.532   2.310  0.2322 -0.7392  1.3299
  317MOL   Cl6438616   0.675   7.365   2.277 -0.0587  0.2396  0.3421
  317MOL    H6538617   0.660   7.552   2.099 -0.9465  1.8507 -1.5088
  317MOL    H6638618   0.534   7.588   2.195 -0.1855  0.1246 -0.0217
  317MOL    H6738619   0.824   7.547   2.305 -0.0920  1.6610  1.2930
  317MOL    C6838620   0.668   7.568   2.452  0.5127  0.1563 -0.2680
  317MOL    C6938621   0.764   7.509   2.562 -0.4128 -0.2537  0.1055
  317MOL   Cl7038622   0.728   7.336   2.599  0.1752  0.1604 -0.0860
  317MOL    H7138623   0.564   7.550   2.477  0.6411 -0.1352  0.0573
  317MOL    H7238624   0.666   7.676   2.469 -0.3544 -0.2634  2.4491
  317MOL    H7338625   0.865   7.504   2.522 -2.0287 -1.4292 -4.0443
  317MOL    C7438626   0.767   7.601   2.694 -0.1478 -0.1408 -0.5757
  317MOL    C7538627   0.854   7.546   2.808 -0.0337 -0.0183  0.4202
  317MOL   Cl7638628   0.859   7.670   2.932 -0.1285  0.1586 -0.1527
  317MOL    H7738629   0.665   7.605   2.732  0.3728  0.0336  0.8243
  317MOL    H7838630   0.808   7.697   2.661 -0.1865 -0.2221 -0.8614
  317MOL    H7938631   0.809   7.465   2.865 -0.4081  1.0349  1.6472
  317MOL    C8038632   1.002   7.500   2.775  0.4036 -0.2611  0.7456
  317MOL    C8138633   1.101   7.482   2.892  0.0066  0.1373 -0.2024
  317MOL   Cl8238634   1.268   7.490   2.831  0.7126  0.3522 -0.2116
  317MOL    H8338635   1.046   7.571   2.705  0.8757 -1.4579 -0.2086
  317MOL    H8438636   1.002   7.401   2.729 -2.2795 -0.1744  0.4809
  317MOL    H8538637   1.097   7.569   2.956 -2.2228 -1.0137  1.2824
  317MOL    C8638638   1.066   7.361   2.988 -0.1170  0.3393  0.3323
  317MOL    C8738639   1.145   7.354   3.116  0.9309  0.1137  0.2843
  317MOL   Cl8838640   1.321   7.310   3.093  0.0080  0.0318  0.1309
  317MOL    H8938641   1.067   7.268   2.930  0.8221 -0.3534  1.4360
  317MOL    H9038642   0.963   7.387   3.011 -0.3292 -0.9001  0.8260
  317MOL    H9138643   1.159   7.453   3.159  1.4607  0.1642  0.0032
  317MOL    C9238644   1.079   7.267   3.228 -1.0952  0.5409  0.2413
  317MOL    C9338645   1.064   7.112   3.212  0.3253 -0.4719 -0.2526
  317MOL   Cl9438646   0.927   7.086   3.100  0.4718 -0.2711  0.0560
  317MOL    H9538647   0.977   7.301   3.248 -0.7695  1.9486 -0.4108
  317MOL    H9638648   1.137   7.289   3.318 -1.2093 -1.0765  0.7356
  317MOL    H9738649   1.156   7.078   3.163 -0.5310 -0.2351 -2.0562
  317MOL    C9838650   1.036   7.033   3.340  0.1552  0.2964  0.3071
  317MOL    C9938651   1.037   6.882   3.342 -0.3777  0.2452  0.0089
  317MOL  Cl10038652   0.967   6.846   3.497 -0.3554 -0.0076 -0.2366
  317MOL   H10138653   0.934   7.062   3.365 -1.1508 -2.8515 -1.1677
  317MOL   H10238654   1.093   7.062   3.428  1.8126 -0.2165 -0.5702
  317MOL   H10338655   0.967   6.833   3.273 -0.2301 -2.0477  1.4293
  317MOL   C10438656   1.176   6.816   3.331  0.1064 -0.4445  0.3625
  317MOL   C10538657   1.177   6.672   3.274  0.5576 -0.1221  0.2570
  317MOL  Cl10638658   1.126   6.582   3.420 -0.3885  0.0352  0.2360
  317MOL   H10738659   1.224   6.828   3.428 -0.4168 -0.7174  0.6572
  317MOL   H10838660   1.229   6.882   3.262  1.8249 -0.2526  1.8200
  317MOL   H10938661   1.109   6.657   3.191  0.8302  0.2979 -0.0458
  317MOL   C11038662   1.321   6.639   3.227  0.6598  0.2955 -0.2030
  317MOL   C11138663   1.345   6.492   3.186  0.6411 -0.1402 -0.1625
  317MOL  Cl11238664   1.321   6.351   3.302 -0.2677  0.0616  0.1129
  317MOL   H11338665   1.387   6.680   3.303  0.5312 -3.3254  1.9645
  317MOL   H11438666   1.342   6.710   3.146  0.1581  1.1994  0.4479
  317MOL   H11538667   1.269   6.489   3.108 -0.7987  1.7597  1.0964
  317MOL   C11638668   1.484   6.479   3.119 -0.0953  0.2777 -0.1573
  317MOL   C11738669   1.617   6.485   3.210 -0.3954  0.3833 -0.0404
  317MOL  Cl11838670   1.755   6.424   3.111  0.2675 -0.3536  0.4794
  317MOL   H11938671   1.501   6.546   3.035  2.2881  1.3416  1.1038
  317MOL   H12038672   1.497   6.386   3.064 -0.1246  1.3880 -2.1050
  317MOL   H12138673   1.641   6.590   3.226  4.4412 -0.2380 -2.4256
  317MOL   H12238674   1.601   6.428   3.301 -1.1953 -3.3268 -2.4013
  318MOL     C138675   5.481   4.533   5.891  0.0341 -0.3443 -0.1506
  318MOL     C238676   5.341   4.586   5.921  0.3903  0.1871  0.4487
  318MOL    Cl338677   5.304   4.577   6.090  0.1068 -0.3652 -0.1200
  318MOL     H438678   5.553   4.572   5.963 -0.3903 -1.6448  0.9848
  318MOL     H538679   5.497   4.427   5.909  2.1741 -0.2762 -1.3841
  318MOL     H638680   5.324   4.687   5.885 -1.0211 -0.6009 -1.1829
  318MOL     H738681   5.512   4.574   5.794 -0.4577  2.4538  0.8197
  318MOL     C838682   5.231   4.509   5.845 -1.0155  0.4686  0.5089
  318MOL     C938683   5.236   4.532   5.689 -0.1403 -0.1088 -0.6268
  318MOL   Cl1038684   5.211   4.704   5.650  0.0776  0.3318 -0.1726
  318MOL    H1138685   5.132   4.537   5.880 -1.6297  0.8080 -1.4455
  318MOL    H1238686   5.239   4.402   5.866 -0.7938  0.6148  1.1897
  318MOL    H1338687   5.336   4.513   5.650  0.4447  0.7453  0.4508
  318MOL    C1438688   5.133   4.456   5.608 -0.1116  0.4755 -0.8630
  318MOL    C1538689   5.134   4.300   5.626 -0.0064  0.2372 -0.3169
  318MOL   Cl1638690   5.287   4.237   5.560  0.0210 -0.3119 -0.0097
  318MOL    H1738691   5.140   4.472   5.500 -1.2036 -0.1304 -1.0323
  318MOL    H1838692   5.032   4.478   5.643  0.1491 -0.3743  0.4365
  318MOL    H1938693   5.115   4.262   5.726 -1.4571  3.4790  0.7337
  318MOL    C2038694   5.021   4.243   5.544  0.2753  0.5803 -0.1373
  318MOL    C2138695   5.002   4.086   5.538 -0.0576 -0.0508  0.8670
  318MOL   Cl2238696   4.876   4.046   5.412  0.1685  0.1723 -0.0087
  318MOL    H2338697   5.035   4.283   5.443  1.3109  1.2226  0.2588
  318MOL    H2438698   4.924   4.282   5.575 -0.2575 -0.1290 -0.8922
  318MOL    H2538699   5.096   4.048   5.499 -0.0289  1.4966 -0.6234
  318MOL    C2638700   4.961   4.032   5.677 -0.1418 -0.1121  0.0250
  318MOL    C2738701   4.899   3.892   5.691 -0.3254 -0.1006  0.2119
  318MOL   Cl2838702   4.875   3.861   5.866 -0.0755 -0.1098 -0.0252
  318MOL    H2938703   4.878   4.094   5.711 -1.1569 -0.7832 -1.2057
  318MOL    H3038704   5.038   4.052   5.752  1.5428 -1.5588 -1.2647
  318MOL    H3138705   4.806   3.896   5.634  0.0423 -0.0912 -0.3929
  318MOL    C3238706   4.982   3.779   5.620 -0.1276  0.2782 -0.5117
  318MOL    C3338707   5.118   3.739   5.687 -0.5615  0.0754  0.4996
  318MOL   Cl3438708   5.249   3.854   5.662 -0.4476  0.3696 -0.1067
  318MOL    H3538709   4.994   3.814   5.518  1.3221 -0.5865 -0.6460
  318MOL    H3638710   4.921   3.689   5.611  0.1187  0.0137  0.4326
  318MOL    H3738711   5.106   3.739   5.796 -1.1280 -1.1836  0.4406
  318MOL    C3838712   5.167   3.601   5.627  0.5911 -0.0645 -0.3710
  318MOL    C3938713   5.244   3.523   5.728 -0.0775  0.5348 -0.3649
  318MOL   Cl4038714   5.321   3.390   5.648 -0.1841 -0.0658  0.0266
  318MOL    H4138715   5.216   3.619   5.531  1.2704  1.0332  0.1709
  318MOL    H4238716   5.087   3.534   5.596  0.9081 -0.0650 -1.2068
  318MOL    H4338717   5.314   3.603   5.752  0.8045 -0.4263  0.2793
  318MOL    C4438718   5.168   3.465   5.845 -0.8738  0.1189 -0.6816
  318MOL    C4538719   5.248   3.438   5.977  0.8163  0.6250  0.0896
  318MOL   Cl4638720   5.333   3.581   6.011  0.0615 -0.2443 -0.0700
  318MOL    H4738721   5.101   3.380   5.835 -1.5122  0.5986 -0.5076
  318MOL    H4838722   5.094   3.536   5.883 -1.0480 -0.2888 -0.2585
  318MOL    H4938723   5.174   3.417   6.054  0.2631  0.4513 -0.4790
  318MOL    C5038724   5.329   3.307   5.980 -0.1272 -0.9546  0.1888
  318MOL    C5138725   5.397   3.277   6.120  0.0092 -0.4528  0.2439
  318MOL   Cl5238726   5.557   3.342   6.123 -0.0361  0.2784 -0.2043
  318MOL    H5338727   5.404   3.303   5.901 -0.1644  0.9377  0.0415
  318MOL    H5438728   5.268   3.220   5.956  0.6715 -1.1602 -1.1976
  318MOL    H5538729   5.335   3.320   6.198  1.5075  1.2424  0.5309
  318MOL    C5638730   5.409   3.126   6.144 -0.0826  0.7753 -0.3488
  318MOL    C5738731   5.458   3.095   6.291 -0.1885  0.0045  0.2881
  318MOL   Cl5838732   5.484   2.923   6.318 -0.5783  0.0352  0.2429
  318MOL    H5938733   5.481   3.085   6.074 -0.4979  1.5367 -1.2279
  318MOL    H6038734   5.321   3.063   6.138 -0.6808  1.5810 -0.1891
  318MOL    H6138735   5.559   3.136   6.289  0.2845 -0.9725  2.5947
  318MOL    C6238736   5.378   3.160   6.413  0.7625 -0.7289  0.1687
  318MOL    C6338737   5.229   3.112   6.427  0.5736  0.0090 -0.7161
  318MOL   Cl6438738   5.136   3.175   6.288 -0.0783  0.0716  0.6463
  318MOL    H6538739   5.373   3.268   6.407  2.0843 -0.6461  0.4801
  318MOL    H6638740   5.422   3.127   6.507 -0.7014  2.1684  1.9112
  318MOL    H6738741   5.212   3.005   6.437  0.5456  0.1409  0.8194
  318MOL    C6838742   5.173   3.176   6.558  0.0076 -0.0635  0.3107
  318MOL    C6938743   5.022   3.177   6.580 -0.7883 -0.2088 -0.5314
  318MOL   Cl7038744   4.985   3.309   6.689  0.4886  0.1074  0.0752
  318MOL    H7138745   5.205   3.280   6.562 -2.3806  0.8290 -2.0862
  318MOL    H7238746   5.227   3.125   6.638  2.7101  1.4071 -0.5410
  318MOL    H7338747   4.973   3.202   6.486 -1.0289 -3.5646 -1.3797
  318MOL    C7438748   4.979   3.032   6.627 -0.1521  0.3208  0.2143
  318MOL    C7538749   4.830   3.025   6.663  0.0322 -0.0540 -0.2289
  318MOL   Cl7638750   4.796   2.853   6.709 -0.1852  0.1074 -0.4474
  318MOL    H7738751   5.045   2.992   6.704  1.1994  0.8038 -0.6925
  318MOL    H7838752   4.992   2.963   6.545 -2.5546 -0.2406  0.2517
  318MOL    H7938753   4.812   3.077   6.757 -0.3579  0.9533 -0.8621
  318MOL    C8038754   4.737   3.078   6.551 -0.0407  0.4339 -0.8288
  318MOL    C8138755   4.588   3.048   6.568 -0.2610 -1.1426 -0.2527
  318MOL   Cl8238756   4.514   3.077   6.413  0.1355  0.5854  0.1346
  318MOL    H8338757   4.767   3.039   6.454 -1.7790 -2.3077 -0.3109
  318MOL    H8438758   4.745   3.186   6.541 -0.7418  0.3323 -2.6757
  318MOL    H8538759   4.570   2.942   6.581  1.3734 -1.5273 -1.0213
  318MOL    C8638760   4.519   3.135   6.673  1.1821  0.1399 -0.0811
  318MOL    C8738761   4.505   3.074   6.809 -0.0842  0.2359  0.3648
  318MOL   Cl8838762   4.387   2.943   6.809  0.0531 -0.2216  0.1195
  318MOL    H8938763   4.416   3.149   6.639  1.6757  0.1959 -1.5944
  318MOL    H9038764   4.557   3.237   6.666 -0.9659  1.0093  0.5114
  318MOL    H9138765   4.594   3.033   6.856 -1.8797 -2.7554  1.3131
  318MOL    C9238766   4.444   3.172   6.912 -0.0122 -0.6986 -0.4251
  318MOL    C9338767   4.543   3.250   6.994 -0.5285  0.2023 -0.3226
  318MOL   Cl9438768   4.455   3.342   7.117  0.2590 -0.0889 -0.3373
  318MOL    H9538769   4.377   3.112   6.973 -1.3997  0.6397 -0.6055
  318MOL    H9638770   4.385   3.245   6.857  1.6019  0.4078 -0.6928
  318MOL    H9738771   4.599   3.177   7.053  0.3692 -0.2558 -1.7392
  318MOL    C9838772   4.630   3.350   6.920 -0.0813  0.5589 -0.7612
  318MOL    C9938773   4.709   3.447   7.008 -0.2267  0.1694  0.1751
  318MOL  Cl10038774   4.781   3.565   6.907 -0.1228 -0.3851  0.0948
  318MOL   H10138775   4.560   3.407   6.859 -0.6359 -1.1476 -1.7306
  318MOL   H10238776   4.700   3.296   6.856 -0.0140  2.1483 -2.0774
  318MOL   H10338777   4.647   3.506   7.074  2.2503  0.7873  2.0227
  318MOL   C10438778   4.808   3.391   7.109 -0.4622 -0.0266  0.6312
  318MOL   C10538779   4.939   3.324   7.050 -0.1184  0.3151 -0.0177
  318MOL  Cl10638780   4.897   3.154   6.993 -0.0714  0.2962 -0.0762
  318MOL   H10738781   4.762   3.332   7.188 -2.0733  2.6969  1.7741
  318MOL   H10838782   4.837   3.473   7.175 -1.9131  0.4402  0.6952
  318MOL   H10938783   4.980   3.384   6.969 -0.6474  0.5315 -0.1286
  318MOL   C11038784   5.054   3.310   7.148  0.0398 -0.3744 -0.6663
  318MOL   C11138785   5.181   3.247   7.100  0.0600 -0.5209 -0.2296
  318MOL  Cl11238786   5.287   3.223   7.233 -0.0050 -0.1565 -0.1232
  318MOL   H11338787   5.009   3.249   7.226 -0.0721 -0.2854 -0.6617
  318MOL   H11438788   5.073   3.402   7.202 -0.7172 -1.4354  1.4615
  318MOL   H11538789   5.159   3.144   7.070  0.9463 -0.8190  0.1490
  318MOL   C11638790   5.243   3.321   6.980  0.1896 -0.1021  0.2797
  318MOL   C11738791   5.355   3.228   6.915  0.0425  0.0988  0.2152
  318MOL  Cl11838792   5.421   3.309   6.774  0.7521  0.5020 -0.4139
  318MOL   H11938793   5.279   3.417   7.015 -1.2802  0.1529  1.1116
  318MOL   H12038794   5.170   3.349   6.904  2.6142 -2.9519 -3.3046
  318MOL   H12138795   5.437   3.214   6.985  2.6406  0.7028 -2.6004
  318MOL   H12238796   5.306   3.138   6.876  4.2929 -1.3698 -2.1771
  319MOL     C138797   3.569   7.443   3.126  0.3585  0.2346  0.3311
  319MOL     C238798   3.626   7.558   3.046  0.3382 -0.2464 -0.0188
  319MOL    Cl338799   3.500   7.643   2.958  0.4409  0.0997 -0.2603
  319MOL     H438800   3.648   7.386   3.175  0.2868  1.0792  1.4659
  319MOL     H538801   3.506   7.484   3.206 -0.2518  1.3182 -0.6918
  319MOL     H638802   3.658   7.631   3.120  0.3168 -1.3434  1.0922
  319MOL     H738803   3.525   7.358   3.074  2.4648  0.7936 -2.4682
  319MOL     C838804   3.745   7.511   2.957  0.3133 -0.2417 -0.5759
  319MOL     C938805   3.876   7.586   2.983 -0.6891  0.3122 -0.6046
  319MOL   Cl1038806   3.928   7.572   3.151  0.1112  0.5208  0.2489
  319MOL    H1138807   3.713   7.502   2.853  0.0466 -2.7917 -0.3084
  319MOL    H1238808   3.777   7.410   2.983  2.0220 -0.1108 -2.0876
  319MOL    H1338809   3.954   7.536   2.926 -0.4348 -0.1658  0.1448
  319MOL    C1438810   3.875   7.739   2.948  0.2301  0.4384 -0.4483
  319MOL    C1538811   3.879   7.775   2.801 -0.0352  0.4681 -0.1474
  319MOL   Cl1638812   4.011   7.691   2.713  0.4896  0.1211 -0.2549
  319MOL    H1738813   3.958   7.786   3.001 -1.1142  1.0553  1.1614
  319MOL    H1838814   3.788   7.790   2.990 -1.0987 -0.4132 -2.0875
  319MOL    H1938815   3.785   7.745   2.754  0.1022 -1.8481  0.9609
  319MOL    C2038816   3.897   7.917   2.757 -0.8520  0.7307 -0.1448
  319MOL    C2138817   3.843   7.960   2.624 -0.4434  0.0992  0.4180
  319MOL   Cl2238818   3.918   8.122   2.614 -0.4795 -0.1007 -0.1838
  319MOL    H2338819   4.005   7.929   2.765 -0.7837  0.7890 -1.0661
  319MOL    H2438820   3.851   7.980   2.833 -1.3366  1.6675 -1.1874
  319MOL    H2538821   3.897   7.903   2.549  1.7406  2.0659  0.4239
  319MOL    C2638822   3.692   7.965   2.586 -0.4610 -0.1540  0.1851
  319MOL    C2738823   3.599   8.054   2.667 -0.7916 -0.0736  0.1836
  319MOL   Cl2838824   3.580   7.978   2.834  0.3537 -0.1539 -0.2592
  319MOL    H2938825   3.655   7.862   2.582  0.8763 -0.5867 -1.7682
  319MOL    H3038826   3.685   7.981   2.479  3.5920 -0.5968 -0.2313
  319MOL    H3138827   3.639   8.154   2.683  0.3629 -0.7578  1.7618
  319MOL    C3238828   3.462   8.063   2.605 -0.3833 -0.5036  0.2942
  319MOL    C3338829   3.387   7.926   2.586  0.6853  0.0359  0.6899
  319MOL   Cl3438830   3.425   7.851   2.428 -0.0195  0.1757  0.3280
  319MOL    H3538831   3.485   8.103   2.506 -0.8484  1.7866  1.0835
  319MOL    H3638832   3.401   8.134   2.661  1.8477  2.0100 -0.3670
  319MOL    H3738833   3.425   7.858   2.663  0.3872 -1.4847 -0.4745
  319MOL    C3838834   3.229   7.925   2.585  0.1715 -0.5362 -0.3147
  319MOL    C3938835   3.169   7.959   2.721  1.4606 -0.5257  0.2710
  319MOL   Cl4038836   3.215   7.826   2.830 -0.2220 -0.3318  0.2846
  319MOL    H4138837   3.194   7.825   2.558 -1.3038 -0.2410  0.4278
  319MOL    H4238838   3.190   7.992   2.508 -1.2445 -1.5296 -0.4917
  319MOL    H4338839   3.224   8.045   2.758 -1.3824  0.6724  1.8366
  319MOL    C4438840   3.016   7.970   2.736  0.4235 -0.2417  0.1241
  319MOL    C4538841   2.947   8.074   2.635  0.4226  0.1026 -0.1232
  319MOL   Cl4638842   3.012   8.238   2.660  0.2252  0.5117  0.3757
  319MOL    H4738843   3.002   8.017   2.833 -0.6843  1.2930 -0.7514
  319MOL    H4838844   2.961   7.876   2.727  0.1726 -0.0927  0.1045
  319MOL    H4938845   2.974   8.054   2.531 -1.5284 -1.0506 -0.4264
  319MOL    C5038846   2.798   8.086   2.659 -0.4192 -0.6459 -0.3389
  319MOL    C5138847   2.709   7.967   2.619  0.7109  0.9032 -0.4106
  319MOL   Cl5238848   2.746   7.903   2.458  0.3586 -0.0628 -0.1213
  319MOL    H5338849   2.769   8.163   2.586 -1.7695  1.0009  1.8808
  319MOL    H5438850   2.769   8.112   2.761  1.3927  1.1330 -0.2504
  319MOL    H5538851   2.714   7.883   2.687 -2.2449  0.0905 -1.1420
  319MOL    C5638852   2.563   8.018   2.614  0.5206 -0.4675 -0.5353
  319MOL    C5738853   2.461   7.916   2.565  0.4356 -0.6493 -0.3942
  319MOL   Cl5838854   2.303   7.993   2.587 -0.3055 -0.2830  0.4819
  319MOL    H5938855   2.555   8.113   2.562 -2.6549 -0.0619  0.6110
  319MOL    H6038856   2.533   8.051   2.714 -1.1855  0.2477 -1.2700
  319MOL    H6138857   2.460   7.903   2.457 -2.4341  0.2020 -0.5011
  319MOL    C6238858   2.453   7.788   2.649 -0.2776 -0.0854  0.2448
  319MOL    C6338859   2.352   7.678   2.605 -0.2730 -0.7833  0.2342
  319MOL   Cl6438860   2.362   7.539   2.711  0.1797  0.0355  0.0797
  319MOL    H6538861   2.431   7.819   2.751  0.1651  2.3002 -0.3595
  319MOL    H6638862   2.553   7.745   2.638 -0.4438 -0.2015 -0.8099
  319MOL    H6738863   2.250   7.709   2.628  0.4039  0.8082  1.1849
  319MOL    C6838864   2.373   7.637   2.459 -0.3400 -0.6621  0.2825
  319MOL    C6938865   2.254   7.544   2.409  0.5367 -0.2316 -0.4418
  319MOL   Cl7038866   2.303   7.455   2.265  0.1600  0.2903  0.2250
  319MOL    H7138867   2.462   7.574   2.457 -0.9955 -1.5896 -0.2899
  319MOL    H7238868   2.389   7.713   2.383  1.3764 -0.5626  0.7268
  319MOL    H7338869   2.227   7.472   2.486  0.8724 -2.3074 -2.1986
  319MOL    C7438870   2.130   7.624   2.366 -0.3610  0.6924 -0.4842
  319MOL    C7538871   1.991   7.539   2.375 -0.0551 -0.1699 -0.4946
  319MOL   Cl7638872   1.959   7.508   2.554 -0.2524  0.3895 -0.1859
  319MOL    H7738873   2.147   7.656   2.263  0.1614  1.5986 -0.1269
  319MOL    H7838874   2.121   7.715   2.424 -0.1829  0.5041 -0.1642
  319MOL    H7938875   1.908   7.598   2.336 -1.2014 -0.4430  1.4983
  319MOL    C8038876   1.986   7.407   2.309  0.1922  0.4381 -0.2338
  319MOL    C8138877   1.851   7.333   2.305  0.6390  0.0604  0.0280
  319MOL   Cl8238878   1.879   7.182   2.231  0.1450  0.3253 -0.3053
  319MOL    H8338879   2.062   7.345   2.356  0.3829 -0.4741 -1.7221
  319MOL    H8438880   2.019   7.413   2.205  1.7413  0.6194  0.2557
  319MOL    H8538881   1.815   7.309   2.405  0.1897 -1.2848 -0.4546
  319MOL    C8638882   1.731   7.418   2.234  0.1513 -0.0049  0.2474
  319MOL    C8738883   1.766   7.494   2.103 -0.8359 -0.1099 -0.5580
  319MOL   Cl8838884   1.656   7.627   2.074  0.1986  0.0901  0.1217
  319MOL    H8938885   1.698   7.483   2.314  1.4992 -1.8592  2.3748
  319MOL    H9038886   1.641   7.359   2.222  0.1543  0.0189  0.1035
  319MOL    H9138887   1.862   7.544   2.114 -0.6320 -0.7503  0.6206
  319MOL    C9238888   1.781   7.402   1.978 -0.5549  0.2267 -0.2505
  319MOL    C9338889   1.872   7.451   1.867  1.0081 -0.2970 -0.0128
  319MOL   Cl9438890   1.770   7.517   1.740 -0.4902  0.3740  0.1137
  319MOL    H9538891   1.679   7.381   1.945 -0.1085 -0.1015 -1.4642
  319MOL    H9638892   1.808   7.300   2.008 -0.5542  0.1112 -0.6413
  319MOL    H9738893   1.932   7.535   1.902 -0.1557  1.3443 -1.8338
  319MOL    C9838894   1.970   7.347   1.805  0.2438  0.0437  0.5590
  319MOL    C9938895   2.087   7.298   1.896  0.4775  0.7433 -0.4255
  319MOL  Cl10038896   2.185   7.441   1.932 -0.3536  0.1236 -0.0350
  319MOL   H10138897   2.009   7.409   1.724  0.6463  1.3934  1.7631
  319MOL   H10238898   1.921   7.264   1.754 -1.0192  0.2574  1.4109
  319MOL   H10338899   2.042   7.263   1.988  0.8365 -0.7682 -0.8093
  319MOL   C10438900   2.179   7.188   1.839 -0.4587 -0.3073  0.3697
  319MOL   C10538901   2.283   7.128   1.938  0.8532 -0.6182 -0.3756
  319MOL  Cl10638902   2.417   7.054   1.844 -0.0626  0.0919 -0.3916
  319MOL   H10738903   2.231   7.217   1.748 -0.0703  0.9265  0.9714
  319MOL   H10838904   2.109   7.109   1.810 -3.2521  1.0812  2.9668
  319MOL   H10938905   2.323   7.201   2.009 -1.1208 -0.7379  0.9207
  319MOL   C11038906   2.215   7.022   2.021 -1.0251 -0.0410  0.0829
  319MOL   C11138907   2.291   6.976   2.152  0.0745  0.7899  0.3618
  319MOL  Cl11238908   2.290   6.797   2.169 -0.1655 -0.2134 -0.1110
  319MOL   H11338909   2.207   6.938   1.953  1.3059 -0.4067  0.2176
  319MOL   H11438910   2.114   7.050   2.049 -1.6036 -1.2946 -0.7269
  319MOL   H11538911   2.399   6.982   2.136 -0.0387 -1.9624 -1.9099
  319MOL   C11638912   2.244   7.055   2.277  0.4602 -0.1071  0.0686
  319MOL   C11738913   2.325   7.043   2.411  0.2552  0.1640 -0.3826
  319MOL  Cl11838914   2.490   7.088   2.412  0.0670  0.3076  0.5726
  319MOL   H11938915   2.138   7.031   2.292  0.2631  1.4226  1.2454
  319MOL   H12038916   2.248   7.160   2.248 -0.5289 -0.4230 -1.2708
  319MOL   H12138917   2.274   7.084   2.498 -0.0709 -2.6728  0.8413
  319MOL   H12238918   2.337   6.938   2.438  0.9612  0.6916  1.4675
  320MOL     C138919   7.458   6.978   5.826  0.2545 -0.6812  0.5066
  320MOL     C238920   7.375   7.070   5.910 -0.4985  0.8894 -0.0941
  320MOL    Cl338921   7.202   7.054   5.876 -0.0940  0.3571  0.2843
  320MOL     H438922   7.457   6.881   5.875  0.3464 -0.6763  0.5172
  320MOL     H538923   7.417   6.971   5.725  0.5241 -1.1690  0.4324
  320MOL     H638924   7.399   7.052   6.015 -0.5548 -0.5964 -0.3317
  320MOL     H738925   7.560   7.016   5.818 -1.0908  2.9352 -0.6813
  320MOL     C838926   7.419   7.218   5.890 -0.1348  0.4762  0.8644
  320MOL     C938927   7.341   7.329   5.965  0.2641  0.0641 -0.8359
  320MOL   Cl1038928   7.436   7.477   5.970 -0.4782 -0.0666 -0.5613
  320MOL    H1138929   7.420   7.251   5.786  0.3657 -0.6764  0.4981
  320MOL    H1238930   7.523   7.207   5.922  0.8088  2.0148 -1.5004
  320MOL    H1338931   7.245   7.342   5.914  0.4914 -0.7109 -1.4720
  320MOL    C1438932   7.300   7.291   6.109 -0.3459 -0.0601  0.3832
  320MOL    C1538933   7.222   7.395   6.204 -0.7667  0.8512 -0.3763
  320MOL   Cl1638934   7.245   7.339   6.373  0.4351 -0.2190 -0.1661
  320MOL    H1738935   7.391   7.264   6.161 -0.2450  2.0271  1.3585
  320MOL    H1838936   7.245   7.199   6.127 -0.8629  0.3296  0.8286
  320MOL    H1938937   7.273   7.491   6.190  2.4609 -0.7507 -0.1710
  320MOL    C2038938   7.073   7.389   6.180 -0.3390  0.2724  0.9963
  320MOL    C2138939   6.976   7.485   6.254  0.6197 -0.0203  0.1728
  320MOL   Cl2238940   6.812   7.442   6.200 -0.1105 -0.0740 -0.1106
  320MOL    H2338941   7.037   7.286   6.173 -2.0522  0.9357 -0.2606
  320MOL    H2438942   7.053   7.412   6.076 -2.2605 -1.7848  0.8610
  320MOL    H2538943   6.988   7.455   6.359  1.9618 -1.6526 -0.4101
  320MOL    C2638944   6.995   7.641   6.240  0.0176  0.3543 -0.3187
  320MOL    C2738945   7.079   7.705   6.350 -0.4009  0.3234  0.5429
  320MOL   Cl2838946   7.001   7.692   6.505  0.0822  0.1049  0.0338
  320MOL    H2938947   6.902   7.697   6.251  0.4007  0.6970  1.2255
  320MOL    H3038948   7.032   7.669   6.141  3.7015 -2.1563  0.2367
  320MOL    H3138949   7.170   7.647   6.361 -0.7273 -1.1161 -3.6069
  320MOL    C3238950   7.106   7.858   6.316  0.1581 -0.0095  0.3301
  320MOL    C3338951   7.179   7.939   6.427 -0.2320 -0.5031  0.2462
  320MOL   Cl3438952   7.220   8.101   6.365 -0.0471 -0.1700  0.0018
  320MOL    H3538953   7.011   7.909   6.301 -0.5912 -1.5821 -0.3748
  320MOL    H3638954   7.149   7.872   6.217 -0.5751 -4.3484 -0.6984
  320MOL    H3738955   7.114   7.964   6.510 -0.0810  2.0993 -0.3834
  320MOL    C3838956   7.312   7.887   6.471 -0.1297 -0.5905 -0.4374
  320MOL    C3938957   7.363   7.941   6.606 -0.5087 -0.3471 -0.2678
  320MOL   Cl4038958   7.532   7.896   6.627 -0.1473  0.0889 -0.0599
  320MOL    H4138959   7.394   7.906   6.401 -0.1484  0.3734 -0.2077
  320MOL    H4238960   7.306   7.778   6.468  0.7559 -0.6751  0.7203
  320MOL    H4338961   7.376   8.050   6.606  2.4338 -0.6474 -0.6384
  320MOL    C4438962   7.277   7.885   6.719  0.5556  0.3784  0.0009
  320MOL    C4538963   7.325   7.894   6.875 -0.0895 -0.1614  0.7470
  320MOL   Cl4638964   7.223   7.792   6.978  0.0051 -0.3877  0.0726
  320MOL    H4738965   7.270   7.779   6.694 -0.1822 -0.3339  2.9712
  320MOL    H4838966   7.172   7.913   6.710  0.5216  0.4184  0.4933
  320MOL    H4938967   7.423   7.846   6.871 -0.8281 -1.7114  0.5744
  320MOL    C5038968   7.334   8.038   6.918  0.0711  0.3246  0.1628
  320MOL    C5138969   7.204   8.111   6.948 -0.5634  0.1294  0.4606
  320MOL   Cl5238970   7.123   8.158   6.797  0.1112  0.2006  0.4309
  320MOL    H5338971   7.386   8.097   6.843 -0.3690 -0.3710 -0.7001
  320MOL    H5438972   7.394   8.021   7.007  0.7275 -0.5037 -0.4326
  320MOL    H5538973   7.132   8.052   7.005  0.3211 -2.7870 -1.3777
  320MOL    C5638974   7.217   8.249   7.022  0.2291  0.3372 -0.1073
  320MOL    C5738975   7.292   8.241   7.163 -0.2402 -0.4325 -0.6627
  320MOL   Cl5838976   7.227   8.113   7.272 -0.6427  0.0196 -0.3001
  320MOL    H5938977   7.118   8.293   7.035 -0.4860 -1.1615 -0.3496
  320MOL    H6038978   7.263   8.321   6.954 -1.2548 -1.5527 -3.2184
  320MOL    H6138979   7.397   8.217   7.144 -0.2928  0.2074 -1.8506
  320MOL    C6238980   7.292   8.372   7.236  0.5317  0.0219  0.3209
  320MOL    C6338981   7.351   8.498   7.159  0.8236 -0.3454 -0.0857
  320MOL   Cl6438982   7.508   8.463   7.099  0.1307 -0.1658 -0.3835
  320MOL    H6538983   7.357   8.356   7.322  1.1887  1.6594  0.1340
  320MOL    H6638984   7.193   8.385   7.279  0.4395 -0.0743  0.1396
  320MOL    H6738985   7.288   8.517   7.072  2.0418  1.0339 -0.6709
  320MOL    C6838986   7.364   0.106   7.249  0.3388  0.2127  0.0642
  320MOL    C6938987   7.310   0.240   7.183 -0.2746  0.5032  0.0058
  320MOL   Cl7038988   7.138   0.222   7.148 -0.2110 -0.2299  0.1212
  320MOL    H7138989   7.470   0.118   7.268  0.2577  1.7388 -0.4113
  320MOL    H7238990   7.305   0.089   7.339 -3.2154 -0.3199 -2.2671
  320MOL    H7338991   7.323   0.327   7.247  0.3958  0.7118 -0.4145
  320MOL    C7438992   7.375   0.268   7.042  0.0668  0.0987 -0.5934
  320MOL    C7538993   7.527   0.288   7.052  0.4271  0.6425  0.2015
  320MOL   Cl7638994   7.553   0.438   7.149  0.1006 -0.2412 -0.1761
  320MOL    H7738995   7.336   0.357   6.993  1.8843  0.7122 -0.9578
  320MOL    H7838996   7.351   0.178   6.985  0.4516 -0.2334 -0.2312
  320MOL    H7938997   7.580   0.210   7.107 -1.1203  0.1146  0.9732
  320MOL    C8038998   7.588   0.289   6.910 -0.5480  0.0557 -0.1743
  320MOL    C8138999   7.735   0.303   6.898 -0.4686  0.1435  0.1024
  320MOL   Cl8239000   7.767   0.407   6.750 -0.2355  0.3928  0.0225
  320MOL    H8339001   7.531   0.367   6.858 -1.2223 -0.0916  0.3411
  320MOL    H8439002   7.561   0.194   6.864 -1.2606  0.4428 -0.5639
  320MOL    H8539003   7.780   0.363   6.977  0.4406 -1.0480  0.4935
  320MOL    C8639004   7.800   0.165   6.899 -0.5878  0.4784  0.9838
  320MOL    C8739005   7.946   0.167   6.896 -0.3848  0.1090 -0.2938
  320MOL   Cl8839006   7.998   0.165   6.723  0.1187  0.0473  0.0262
  320MOL    H8939007   7.769   0.104   6.815 -2.4476  0.0609  1.9491
  320MOL    H9039008   7.770   0.102   6.982 -1.7506 -1.6807 -1.0463
  320MOL    H9139009   7.977   0.261   6.941 -0.7980 -1.2292  2.8858
  320MOL    C9239010   8.000   0.051   6.980 -0.2585  0.0849 -0.7417
  320MOL    C9339011   8.160   0.050   6.968 -0.4291 -0.0961 -0.0134
  320MOL   Cl9439012   8.223   8.435   7.067  0.1085 -0.1330  0.1429
  320MOL    H9539013   7.961   8.481   6.944 -0.7195  0.6817 -1.8455
  320MOL    H9639014   7.977   0.066   7.086 -0.0075  2.7002 -1.0357
  320MOL    H9739015   8.194   0.037   6.866 -0.1282  0.6934 -0.0198
  320MOL    C9839016   8.227   0.179   7.016  0.8320  0.2968  0.5514
  320MOL    C9939017   8.375   0.180   7.021 -0.3797  0.8501 -0.3793
  320MOL  Cl10039018   8.410   0.352   7.069 -0.4539  0.0074 -0.5446
  320MOL   H10139019   8.189   0.206   7.114 -1.8745  1.8406 -0.8694
  320MOL   H10239020   8.188   0.263   6.959  1.2757 -1.2150 -2.0478
  320MOL   H10339021   8.421   0.111   7.092 -0.0043  1.3697 -0.1143
  320MOL   C10439022   8.456   0.148   6.883  0.3624 -0.2950  1.1058
  320MOL   C10539023   0.079   0.190   6.880  0.7307  0.1435  1.0116
  320MOL  Cl10639024   0.125   0.149   6.712  0.4226 -0.3355 -0.3357
  320MOL   H10739025   8.399   0.199   6.805  0.4790 -1.2284  0.4058
  320MOL   H10839026   8.449   0.041   6.865 -1.6837 -0.2754  1.5898
  320MOL   H10939027   0.084   0.299   6.886 -0.2818  0.3075 -0.7092
  320MOL   C11039028   0.171   0.121   6.987  0.2262  0.2262  0.6505
  320MOL   C11139029   0.318   0.170   7.003 -0.0623 -0.3302 -0.1650
  320MOL  Cl11239030   0.425   0.112   6.878  0.0502  0.2383 -0.6805
  320MOL   H11339031   0.168   0.014   6.965 -0.2145  0.3309  0.1877
  320MOL   H11439032   0.130   0.128   7.088 -0.1527  1.5681  0.4148
  320MOL   H11539033   0.325   0.278   6.987 -1.2306 -0.1679  0.3154
  320MOL   C11639034   0.383   0.134   7.135 -0.2586  0.0213 -0.2525
  320MOL   C11739035   0.381   8.512   7.168 -0.1420 -0.9293 -0.1808
  320MOL  Cl11839036   0.399   8.486   7.347 -0.0623  0.4556  0.3487
  320MOL   H11939037   0.331   0.176   7.221 -0.4851 -0.1314 -0.3129
  320MOL   H12039038   0.478   0.185   7.146  0.6524 -1.3136 -1.6517
  320MOL   H12139039   0.295   8.455   7.134 -0.2625  0.1550 -1.7358
  320MOL   H12239040   0.466   8.459   7.125  0.3234 -0.4045  0.0637
  321MOL     C139041   4.033   4.169   7.449  0.5451 -0.2309  0.1095
  321MOL     C239042   3.970   4.275   7.536  0.6020  0.7711 -0.0774
  321MOL    Cl339043   4.000   4.233   7.708 -0.0723  0.1344 -0.0276
  321MOL     H439044   4.055   4.204   7.348 -0.3725  0.7470  0.2400
  321MOL     H539045   4.126   4.124   7.483  2.3942  2.0701 -1.7317
  321MOL     H639046   4.020   4.371   7.526  1.4555  0.5530  1.8930
  321MOL     H739047   3.965   4.084   7.434  1.6017 -0.9654 -0.5588
  321MOL     C839048   3.821   4.278   7.503  1.1956 -0.2755  0.8059
  321MOL     C939049   3.788   4.341   7.368  0.3311  0.2159 -0.0402
  321MOL   Cl1039050   3.863   4.503   7.372 -0.0676  0.1184 -0.2988
  321MOL    H1139051   3.787   4.349   7.579  1.4462  0.9440 -0.1993
  321MOL    H1239052   3.763   4.187   7.514 -0.5085  0.6831  0.0023
  321MOL    H1339053   3.831   4.279   7.290  2.3060  1.2975  0.1393
  321MOL    C1439054   3.633   4.363   7.361 -0.4520  0.2273 -0.0065
  321MOL    C1539055   3.552   4.231   7.340  0.6339  0.6777 -0.2142
  321MOL   Cl1639056   3.531   4.215   7.164  0.1465  0.2943 -0.3252
  321MOL    H1739057   3.615   4.443   7.290  1.4641  1.0976  0.4761
  321MOL    H1839058   3.599   4.410   7.453 -3.2723 -1.0114 -0.3391
  321MOL    H1939059   3.611   4.144   7.369  0.2545  0.0760 -1.2056
  321MOL    C2039060   3.411   4.225   7.400  0.7812 -1.0406  0.2172
  321MOL    C2139061   3.417   4.225   7.553 -0.1525 -0.7922  0.2273
  321MOL   Cl2239062   3.486   4.067   7.605  0.5312 -0.0580 -0.2621
  321MOL    H2339063   3.356   4.139   7.364  2.8065 -1.3952 -2.1993
  321MOL    H2439064   3.371   4.317   7.358  2.9713 -0.2068 -0.1146
  321MOL    H2539065   3.492   4.300   7.581  1.6215 -0.9568 -3.8102
  321MOL    C2639066   3.289   4.234   7.631 -0.6858 -0.4047  0.2180
  321MOL    C2739067   3.251   4.374   7.674  0.8129 -0.6802  0.4633
  321MOL   Cl2839068   3.383   4.441   7.785 -0.0564  0.2186 -0.0905
  321MOL    H2939069   3.302   4.184   7.727  0.8189  0.1783  0.3220
  321MOL    H3039070   3.208   4.184   7.577  0.2475 -0.6925 -0.9346
  321MOL    H3139071   3.244   4.435   7.584 -0.3643 -0.6980  0.5332
  321MOL    C3239072   3.115   4.377   7.739  0.4356 -0.1760 -0.5736
  321MOL    C3339073   3.084   4.509   7.808  0.7874 -0.0200 -0.1880
  321MOL   Cl3439074   2.909   4.516   7.854  0.1574  0.0741 -0.0239
  321MOL    H3539075   3.093   4.302   7.815 -0.6586 -0.1267 -0.8277
  321MOL    H3639076   3.034   4.362   7.668 -0.7024 -0.3682  0.7550
  321MOL    H3739077   3.140   4.514   7.901  0.1414 -1.3457  0.2974
  321MOL    C3839078   3.102   4.640   7.734  1.0293  0.3942  0.0629
  321MOL    C3939079   3.073   4.768   7.825 -0.1493 -0.2804 -1.0053
  321MOL   Cl4039080   2.920   4.838   7.765  0.2866  0.1611  0.2241
  321MOL    H4139081   3.053   4.638   7.636  0.9489  0.3847  0.1028
  321MOL    H4239082   3.206   4.650   7.702  1.0510  0.1685  0.0659
  321MOL    H4339083   3.057   4.728   7.925 -0.8536 -0.8411 -1.3371
  321MOL    C4439084   3.174   4.886   7.823  0.1065 -0.2727 -0.2491
  321MOL    C4539085   3.315   4.834   7.857  0.0177  0.5314 -0.4956
  321MOL   Cl4639086   3.316   4.731   8.007 -0.0312  0.1410 -0.2743
  321MOL    H4739087   3.139   4.964   7.891 -0.5756  0.3277 -1.2684
  321MOL    H4839088   3.186   4.932   7.725 -2.9101  0.1856 -0.4458
  321MOL    H4939089   3.354   4.780   7.771  1.0208  0.0616  0.2477
  321MOL    C5039090   3.413   4.953   7.894  0.0139  0.8055 -0.0265
  321MOL    C5139091   3.433   5.067   7.793 -0.5721  0.1342 -0.1683
  321MOL   Cl5239092   3.435   5.012   7.622  0.1796 -0.2720  0.2830
  321MOL    H5339093   3.511   4.908   7.913 -0.6725 -0.1272  1.4339
  321MOL    H5439094   3.377   5.001   7.986 -1.2225  1.5759 -0.9006
  321MOL    H5539095   3.352   5.139   7.806 -1.2610 -0.7974  0.7714
  321MOL    C5639096   3.566   5.153   7.817  0.4665  0.1230 -0.5748
  321MOL    C5739097   3.557   5.298   7.766 -0.2611 -0.0632 -0.2645
  321MOL   Cl5839098   3.717   5.366   7.774 -0.1115  0.1561  0.3926
  321MOL    H5939099   3.645   5.105   7.759  1.8652  1.2845  0.3498
  321MOL    H6039100   3.593   5.161   7.922 -0.1524  2.1866 -0.5600
  321MOL    H6139101   3.529   5.293   7.661  1.1061 -5.0716 -0.5024
  321MOL    C6239102   3.461   5.396   7.855  0.0385 -0.0446  0.4993
  321MOL    C6339103   3.441   5.535   7.801 -0.7775  0.0389  0.5454
  321MOL   Cl6439104   3.377   5.642   7.922  0.1246  0.3014 -0.1143
  321MOL    H6539105   3.507   5.407   7.954 -1.4921  0.7306  1.1339
  321MOL    H6639106   3.364   5.354   7.881 -1.4633  2.7734 -0.3404
  321MOL    H6739107   3.536   5.576   7.767 -1.5087  0.8666 -0.4898
  321MOL    C6839108   3.346   5.543   7.678 -0.1256 -0.4236  0.1483
  321MOL    C6939109   3.206   5.487   7.707 -0.1941  0.0494  0.1777
  321MOL   Cl7039110   3.188   5.304   7.680 -0.2670 -0.1557 -0.3745
  321MOL    H7139111   3.388   5.491   7.591  0.2371 -0.7887  0.5377
  321MOL    H7239112   3.342   5.648   7.650  1.6170 -0.2221  0.6323
  321MOL    H7339113   3.183   5.498   7.813  1.8590 -0.9193  0.7699
  321MOL    C7439114   3.095   5.561   7.637  0.3323  0.3065 -0.0931
  321MOL    C7539115   3.098   5.571   7.483 -0.7945 -0.5096 -1.0335
  321MOL   Cl7639116   3.226   5.677   7.418 -0.2807 -0.2113  0.6058
  321MOL    H7739117   3.077   5.663   7.670 -2.1522  0.1326 -0.8308
  321MOL    H7839118   3.001   5.521   7.672  1.4085  0.4709  3.1423
  321MOL    H7939119   3.110   5.472   7.438 -0.4454 -0.3417 -1.3111
  321MOL    C8039120   2.960   5.633   7.437  0.5721  0.0867  0.2199
  321MOL    C8139121   2.828   5.566   7.476  1.0411 -1.1400 -0.0691
  321MOL   Cl8239122   2.826   5.405   7.405  0.4503  0.0992  0.3131
  321MOL    H8339123   2.949   5.655   7.331 -0.4225  1.2031  0.5523
  321MOL    H8439124   2.958   5.734   7.479  1.1253  0.4216 -0.5481
  321MOL    H8539125   2.811   5.552   7.583 -0.9084  3.7125  0.3896
  321MOL    C8639126   2.704   5.644   7.424 -0.4945 -0.1621 -0.2818
  321MOL    C8739127   2.676   5.780   7.483 -0.2948  0.1842 -0.3243
  321MOL   Cl8839128   2.623   5.754   7.652 -0.1697  0.0228  0.1372
  321MOL    H8939129   2.616   5.587   7.453 -0.1588  1.5002  4.2958
  321MOL    H9039130   2.715   5.652   7.315  1.7898  3.7749  0.1614
  321MOL    H9139131   2.769   5.836   7.486  0.3554 -0.9721  2.0504
  321MOL    C9239132   2.581   5.865   7.393  0.2612  0.1167 -0.0027
  321MOL    C9339133   2.502   5.982   7.461 -0.5651  0.8556  0.5839
  321MOL   Cl9439134   2.375   6.035   7.348  0.1986 -0.0982 -0.0507
  321MOL    H9539135   2.504   5.795   7.360 -0.2304 -0.5288  2.4490
  321MOL    H9639136   2.642   5.895   7.307  1.5002  1.0566  1.1911
  321MOL    H9739137   2.446   5.933   7.541 -0.5641  2.1470  1.3937
  321MOL    C9839138   2.583   6.106   7.512  0.3044  0.1692 -0.4091
  321MOL    C9939139   2.672   6.169   7.410 -0.6621  0.9255 -0.2534
  321MOL  Cl10039140   2.819   6.072   7.379  0.1041 -0.2967  0.1477
  321MOL   H10139141   2.644   6.076   7.597 -0.7351 -1.4995 -0.2389
  321MOL   H10239142   2.508   6.178   7.544 -0.7700 -0.6463 -1.0253
  321MOL   H10339143   2.609   6.172   7.321  0.0491  2.7015 -0.7117
  321MOL   C10439144   2.731   6.316   7.441 -0.3402 -0.1708 -0.0315
  321MOL   C10539145   2.806   6.387   7.327  0.1901 -0.4383  0.6939
  321MOL  Cl10639146   2.894   6.524   7.390 -0.0019  0.3163  0.0307
  321MOL   H10739147   2.787   6.314   7.535 -0.5764 -1.2821  0.0886
  321MOL   H10839148   2.648   6.382   7.463  1.6738  2.0842  1.0905
  321MOL   H10939149   2.893   6.324   7.306  0.4058 -0.0387  0.3898
  321MOL   C11039150   2.728   6.422   7.205 -0.6310 -0.4060 -0.0834
  321MOL   C11139151   2.627   6.541   7.207 -0.0668  0.3811 -0.4534
  321MOL  Cl11239152   2.480   6.513   7.305 -0.0395 -0.1078 -0.4239
  321MOL   H11339153   2.670   6.332   7.184 -1.6144  0.2480 -0.2182
  321MOL   H11439154   2.804   6.453   7.134  0.4539 -1.3913  0.6371
  321MOL   H11539155   2.671   6.630   7.251 -1.1956 -0.8103  3.3047
  321MOL   C11639156   2.579   6.568   7.063 -0.2498  0.9131  0.3572
  321MOL   C11739157   2.509   6.702   7.050  0.4205  0.0969 -0.1181
  321MOL  Cl11839158   2.471   6.714   6.878  0.4352  0.0777 -0.0755
  321MOL   H11939159   2.512   6.488   7.030  0.3667  0.4558  0.1927
  321MOL   H12039160   2.662   6.565   6.992  0.3726  1.5793  1.0555
  321MOL   H12139161   2.410   6.695   7.095 -0.2199  1.2528 -1.3388
  321MOL   H12239162   2.570   6.786   7.084 -2.5577  1.8137  1.2100
  322MOL     C139163   8.330   1.539   3.242 -0.8020 -0.5676  0.5643
  322MOL     C239164   8.202   1.472   3.188  0.0476  0.2615  0.4019
  322MOL    Cl339165   8.165   1.558   3.035 -0.1790 -0.1060  0.1973
  322MOL     H439166   8.408   1.550   3.167 -0.0066  2.2405  1.7533
  322MOL     H539167   8.301   1.642   3.263 -2.2319 -0.7492 -0.3696
  322MOL     H639168   8.212   1.368   3.158 -0.8927 -0.0815  1.2445
  322MOL     H739169   8.368   1.502   3.337  2.0744  2.2397  0.5474
  322MOL     C839170   8.079   1.470   3.289 -0.0286 -0.6360  0.0007
  322MOL     C939171   7.951   1.415   3.232  0.2429 -0.3234 -0.4795
  322MOL   Cl1039172   7.806   1.447   3.336  0.0260  0.2371 -0.1398
  322MOL    H1139173   8.063   1.569   3.330 -0.4019 -0.7539  0.1386
  322MOL    H1239174   8.112   1.410   3.374  0.1608  1.0041  1.0950
  322MOL    H1339175   7.934   1.460   3.133 -0.5772  2.0774  0.7025
  322MOL    C1439176   7.960   1.259   3.208 -0.0422 -0.3213  0.2017
  322MOL    C1539177   7.825   1.191   3.163 -0.9126 -0.7208  0.2326
  322MOL   Cl1639178   7.860   1.023   3.149 -0.0882  0.1567 -0.4062
  322MOL    H1739179   7.990   1.204   3.298  2.6254  0.0228 -0.4474
  322MOL    H1839180   8.045   1.237   3.144 -0.8188  1.5222 -1.4975
  322MOL    H1939181   7.753   1.202   3.244 -1.3259 -1.2030 -0.0699
  322MOL    C2039182   7.766   1.241   3.027  0.0539 -0.6106 -0.3166
  322MOL    C2139183   7.627   1.200   2.992 -0.7508 -1.1027 -0.4429
  322MOL   Cl2239184   7.519   1.285   3.104  0.1778 -0.5565  0.2042
  322MOL    H2339185   7.826   1.197   2.948  2.2062  2.0824 -0.2594
  322MOL    H2439186   7.773   1.349   3.015 -0.2377 -0.4604  0.8193
  322MOL    H2539187   7.604   1.238   2.892 -0.7096  0.1252  0.0093
  322MOL    C2639188   7.587   1.051   2.998 -0.1317  0.8327  0.1855
  322MOL    C2739189   7.639   0.973   2.883  0.3840  0.1957  0.6987
  322MOL   Cl2839190   7.586   1.039   2.728  0.0899 -0.4239  0.1268
  322MOL    H2939191   7.478   1.050   2.999 -0.1262  0.3656  0.2711
  322MOL    H3039192   7.615   1.009   3.095 -0.4036  0.7859  0.2444
  322MOL    H3139193   7.747   0.985   2.891  0.1674  1.3340  2.0461
  322MOL    C3239194   7.596   0.825   2.885 -0.2515  0.0752  0.5547
  322MOL    C3339195   7.686   0.744   2.981  0.9598  0.3333  0.4035
  322MOL   Cl3439196   7.844   0.719   2.920 -0.2173  0.2959  0.4680
  322MOL    H3539197   7.600   0.779   2.786  0.8341  0.2762  0.5023
  322MOL    H3639198   7.493   0.814   2.920 -0.6569 -1.1129 -0.9112
  322MOL    H3739199   7.693   0.800   3.074  3.2383  0.7288  0.0306
  322MOL    C3839200   7.634   0.602   3.005 -0.1597  0.1303  1.0216
  322MOL    C3939201   7.495   0.576   3.071  0.0189 -0.2451  0.0049
  322MOL   Cl4039202   7.490   0.655   3.231  0.1881 -0.1811  0.4107
  322MOL    H4139203   7.704   0.539   3.060 -1.9221 -2.8288  0.0100
  322MOL    H4239204   7.631   0.548   2.911  0.0284 -0.2392  1.2239
  322MOL    H4339205   7.421   0.627   3.009  1.5436 -0.5584 -2.1128
  322MOL    C4439206   7.453   0.427   3.077 -0.0389 -0.2118  0.2885
  322MOL    C4539207   7.319   0.394   3.137  0.1135  0.4654  0.0761
  322MOL   Cl4639208   7.317   0.213   3.139  0.2982 -0.4635 -0.1995
  322MOL    H4739209   7.533   0.373   3.128  0.2653 -0.0253  0.0144
  322MOL    H4839210   7.456   0.384   2.976 -1.5283 -0.7600  0.4556
  322MOL    H4939211   7.316   0.426   3.241 -2.8382  1.9518 -0.4081
  322MOL    C5039212   7.196   0.465   3.073  0.0396  0.1402  0.7028
  322MOL    C5139213   7.080   0.466   3.169 -1.2584 -0.2755  0.8470
  322MOL   Cl5239214   6.988   0.314   3.147 -0.0771  0.1201 -0.0458
  322MOL    H5339215   7.175   0.438   2.970 -0.1537  1.9907  0.2555
  322MOL    H5439216   7.223   0.569   3.061 -1.3769  0.2241 -2.0830
  322MOL    H5539217   7.116   0.474   3.272  1.9464 -2.8616 -0.0111
  322MOL    C5639218   6.980   0.584   3.137  0.0148  0.5004 -0.5632
  322MOL    C5739219   6.864   0.598   3.243 -0.1533  0.4219 -0.3903
  322MOL   Cl5839220   6.779   0.751   3.207 -0.3270 -0.1395 -0.1142
  322MOL    H5939221   6.936   0.559   3.041  0.4208 -1.2952 -0.2974
  322MOL    H6039222   7.032   0.679   3.136 -2.8282  2.1935  1.8552
  322MOL    H6139223   6.785   0.531   3.212  0.5563 -0.1850 -0.9119
  322MOL    C6239224   6.909   0.600   3.393  0.0146 -0.2219  0.4161
  322MOL    C6339225   6.805   0.651   3.498 -0.2880  0.7129 -0.1268
  322MOL   Cl6439226   6.875   0.660   3.661  0.0842  0.2102  0.1264
  322MOL    H6539227   6.993   0.669   3.395 -0.6859  0.6184  1.4145
  322MOL    H6639228   6.929   0.495   3.411 -3.0352 -1.1733 -1.2281
  322MOL    H6739229   6.779   0.756   3.484  0.0164  0.7222 -0.6077
  322MOL    C6839230   6.676   0.568   3.511  0.6352 -0.1173 -0.8217
  322MOL    C6939231   6.541   0.640   3.538 -0.8522  0.2164  0.0978
  322MOL   Cl7039232   6.495   0.744   3.397 -0.0664  0.0455 -0.1344
  322MOL    H7139233   6.691   0.478   3.571  0.7277 -0.0992 -0.8183
  322MOL    H7239234   6.668   0.525   3.411 -1.4499 -0.3982 -0.5522
  322MOL    H7339235   6.465   0.561   3.543 -0.2780 -0.2957  0.8153
  322MOL    C7439236   6.526   0.734   3.658 -0.6837  0.5517 -0.5965
  322MOL    C7539237   6.534   0.677   3.796  0.2892  0.9178 -0.2965
  322MOL   Cl7639238   6.403   0.562   3.822  0.0199  0.3069 -0.2449
  322MOL    H7739239   6.436   0.795   3.662 -0.6935  0.4439  2.4265
  322MOL    H7839240   6.606   0.808   3.647 -0.7031  0.3794 -1.8928
  322MOL    H7939241   6.632   0.630   3.804  0.8512  1.8155 -1.7838
  322MOL    C8039242   6.527   0.784   3.917  0.0483 -0.3782 -0.4231
  322MOL    C8139243   6.664   0.857   3.942 -0.0810  0.1704  0.3099
  322MOL   Cl8239244   6.790   0.736   3.990  0.1948  0.4261  0.0633
  322MOL    H8339245   6.506   0.721   4.003  0.0795  1.1268  0.7065
  322MOL    H8439246   6.448   0.854   3.895  0.1131 -0.2093 -0.1283
  322MOL    H8539247   6.702   0.890   3.846  1.6114 -0.1921  0.8398
  322MOL    C8639248   6.670   0.971   4.054  0.4822 -0.7440 -0.3981
  322MOL    C8739249   6.606   1.110   4.021  0.0642 -0.0921 -0.9237
  322MOL   Cl8839250   6.684   1.158   3.864 -0.0002 -0.2728 -0.3360
  322MOL    H8939251   6.769   0.988   4.096  0.4698 -2.5675  0.4147
  322MOL    H9039252   6.633   0.928   4.146 -0.3175 -3.4368 -1.9250
  322MOL    H9139253   6.501   1.106   3.992 -0.1654 -2.1921  0.0658
  322MOL    C9239254   6.637   1.216   4.130 -0.6520 -0.3190  0.3568
  322MOL    C9339255   6.602   1.362   4.100 -0.0419 -0.5628 -0.0131
  322MOL   Cl9439256   6.651   1.460   4.236  0.2062  0.0373 -0.0215
  322MOL    H9539257   6.740   1.220   4.164 -0.8246 -1.6369  1.0914
  322MOL    H9639258   6.592   1.178   4.222  0.2656 -1.3030  0.4098
  322MOL    H9739259   6.673   1.387   4.021 -0.4154 -0.5995 -0.3634
  322MOL    C9839260   6.452   1.390   4.055  0.3250 -0.2680  0.2686
  322MOL    C9939261   6.428   1.535   3.996 -0.3498  0.4861 -0.3100
  322MOL  Cl10039262   6.506   1.545   3.840  0.1551 -0.0682  0.3866
  322MOL   H10139263   6.384   1.376   4.139 -2.4552  1.0058 -1.6888
  322MOL   H10239264   6.412   1.319   3.983 -1.7800 -1.3358  2.4374
  322MOL   H10339265   6.325   1.534   3.961 -0.1668 -1.4716 -0.8104
  322MOL   C10439266   6.453   1.663   4.076  1.0119  0.5143  0.6758
  322MOL   C10539267   6.355   1.674   4.202 -0.0591  0.2570  0.8868
  322MOL  Cl10639268   6.188   1.672   4.146  0.1247  0.1359  0.0007
  322MOL   H10739269   6.444   1.758   4.024 -2.8305 -0.5998 -0.8047
  322MOL   H10839270   6.559   1.655   4.103  0.7810 -0.5410  1.3069
  322MOL   H10939271   6.367   1.585   4.264  1.6184 -1.3230 -1.5798
  322MOL   C11039272   6.383   1.803   4.286  0.4698  0.6303 -0.5327
  322MOL   C11139273   6.523   1.807   4.354  0.1472  0.3103  0.3694
  322MOL  Cl11239274   6.518   1.685   4.481  0.0977  0.5627 -0.2026
  322MOL   H11339275   6.301   1.814   4.358  0.6492  0.5104 -0.3102
  322MOL   H11439276   6.373   1.890   4.221  1.1868  1.0921 -0.0389
  322MOL   H11539277   6.605   1.794   4.284  0.1771 -0.8079  0.6083
  322MOL   C11639278   6.561   1.940   4.421  0.5164 -0.2808  0.6647
  322MOL   C11739279   6.559   2.073   4.332 -0.2119 -0.2728 -0.2403
  322MOL  Cl11839280   6.642   2.047   4.169 -0.0822  0.0051 -0.1297
  322MOL   H11939281   6.668   1.936   4.438  0.5031 -2.2567  0.3924
  322MOL   H12039282   6.507   1.964   4.513  2.7441  0.1966  1.8829
  322MOL   H12139283   6.462   2.119   4.309 -0.6745 -1.2376 -0.2666
  322MOL   H12239284   6.614   2.146   4.390 -2.3839  1.4707 -0.2989
  323MOL     C139285   8.106   7.890   7.894  0.4350  0.1709 -0.3959
  323MOL     C239286   8.247   7.856   7.935 -0.2302 -0.4554 -0.1012
  323MOL    Cl339287   8.365   7.963   7.840 -0.0445 -0.0604 -0.8035
  323MOL     H439288   8.082   7.990   7.931  0.0506  0.9432 -2.6345
  323MOL     H539289   8.086   7.889   7.786 -0.2519  1.9605 -0.3070
  323MOL     H639290   8.259   7.871   8.042 -2.1109  2.3422 -0.2168
  323MOL     H739291   8.028   7.825   7.933  1.2218 -0.6007 -0.1017
  323MOL     C839292   8.275   7.710   7.904  0.2658 -0.1303  0.0605
  323MOL     C939293   8.193   7.605   7.989 -0.0195 -0.0016 -1.2755
  323MOL   Cl1039294   8.232   7.615   8.165  0.0711 -0.0042  0.1247
  323MOL    H1139295   8.380   7.687   7.919  0.2001 -0.2081  0.4144
  323MOL    H1239296   8.243   7.690   7.802  0.1061  0.3976  0.0047
  323MOL    H1339297   8.086   7.625   7.988 -0.3552 -1.5205  1.0642
  323MOL    C1439298   8.211   7.462   7.948  0.6524  0.2120  0.1871
  323MOL    C1539299   8.124   7.358   8.019  0.4163 -0.1890  0.3623
  323MOL   Cl1639300   8.169   7.203   7.940 -0.2525  0.1703 -0.3340
  323MOL    H1739301   8.315   7.430   7.946  0.8149  0.4175  3.0386
  323MOL    H1839302   8.190   7.459   7.841  0.9160  2.2602  0.0689
  323MOL    H1939303   8.154   7.352   8.124  0.2059 -2.3012  0.3298
  323MOL    C2039304   7.969   7.369   7.988  0.4062  1.0206  0.0673
  323MOL    C2139305   7.891   7.247   8.045  1.0711 -0.0319 -0.3320
  323MOL   Cl2239306   7.719   7.256   7.998  0.0545 -0.0804  0.1239
  323MOL    H2339307   7.952   7.367   7.880  0.2349 -0.3438  0.1071
  323MOL    H2439308   7.939   7.457   8.044  0.2729  1.2927 -0.4296
  323MOL    H2539309   7.922   7.159   7.989 -0.6028 -0.4852 -0.5767
  323MOL    C2639310   7.913   7.234   8.198  0.5042  0.5975  0.1908
  323MOL    C2739311   7.817   7.150   8.280  0.1006 -0.1781  0.6379
  323MOL   Cl2839312   7.858   7.164   8.455 -0.1676 -0.0021 -0.5323
  323MOL    H2939313   7.918   7.336   8.237  2.3484  1.1795 -1.5027
  323MOL    H3039314   8.012   7.195   8.219  0.9431  1.0524 -0.9827
  323MOL    H3139315   7.722   7.203   8.274  0.7412  0.7139 -2.5446
  323MOL    C3239316   7.801   7.006   8.221 -0.0428  0.6377 -0.3628
  323MOL    C3339317   7.682   6.929   8.287  0.9264  0.7489  0.0169
  323MOL   Cl3439318   7.753   6.838   8.426 -0.0627 -0.0680  0.4261
  323MOL    H3539319   7.894   6.950   8.228  0.0912  0.8234 -0.6241
  323MOL    H3639320   7.781   6.995   8.114  0.5722  0.8001 -0.4928
  323MOL    H3739321   7.611   6.992   8.340 -1.0218 -0.6411 -0.8614
  323MOL    C3839322   7.596   6.829   8.200  0.1677  0.3013 -0.0437
  323MOL    C3939323   7.486   6.907   8.124 -0.1284  0.3796  0.1145
  323MOL   Cl4039324   7.354   6.955   8.231 -0.3338  0.0561 -0.4400
  323MOL    H4139325   7.553   6.754   8.267  0.5715  1.2635  1.3233
  323MOL    H4239326   7.662   6.776   8.131 -0.8180  0.3870 -1.0631
  323MOL    H4339327   7.537   7.000   8.099 -0.3499  0.1794 -1.1003
  323MOL    C4439328   7.428   6.835   7.998  0.6383  0.2806  0.3994
  323MOL    C4539329   7.338   6.918   7.904 -0.0894 -0.0561 -0.4292
  323MOL   Cl4639330   7.275   6.813   7.768 -0.4025 -0.6065  0.0377
  323MOL    H4739331   7.360   6.758   8.032  0.3062  0.6062  0.4742
  323MOL    H4839332   7.500   6.789   7.930 -0.0115  1.7891 -1.3601
  323MOL    H4939333   7.256   6.962   7.960  0.1607  1.0476 -0.9045
  323MOL    C5039334   7.414   7.041   7.833 -0.2062  0.3114  0.1261
  323MOL    C5139335   7.325   7.159   7.795  0.8733  0.1609 -0.2809
  323MOL   Cl5239336   7.421   7.268   7.689 -0.0033  0.0784  0.1124
  323MOL    H5339337   7.485   7.008   7.758 -0.6930 -0.8506  0.1637
  323MOL    H5439338   7.475   7.090   7.909  2.8769  1.5110 -2.9994
  323MOL    H5539339   7.241   7.128   7.732 -0.3366  1.3474  0.6931
  323MOL    C5639340   7.273   7.242   7.923  0.2164 -0.8881  0.0484
  323MOL    C5739341   7.142   7.319   7.887  0.7193  0.6960 -0.2092
  323MOL   Cl5839342   7.158   7.445   7.765  0.4379  0.3882 -0.1721
  323MOL    H5939343   7.351   7.307   7.962  0.9027 -1.4125 -0.4418
  323MOL    H6039344   7.263   7.181   8.013 -2.4370  0.8201  0.9586
  323MOL    H6139345   7.069   7.248   7.848 -1.2879  0.5788  3.4743
  323MOL    C6239346   7.072   7.374   8.010  0.3707  0.4140 -0.2055
  323MOL    C6339347   6.988   7.278   8.083 -0.4376 -0.2205 -0.0746
  323MOL   Cl6439348   6.837   7.267   8.003  0.3393  0.1664 -0.2859
  323MOL    H6539349   7.014   7.465   7.991 -0.2839  0.4619  1.9058
  323MOL    H6639350   7.154   7.402   8.076  0.2620 -1.7044  0.8579
  323MOL    H6739351   7.032   7.178   8.086 -0.2970 -0.1510  0.2112
  323MOL    C6839352   6.952   7.313   8.231 -0.5961  0.0448 -0.4221
  323MOL    C6939353   6.890   7.210   8.332 -0.6077  0.4722 -0.2581
  323MOL   Cl7039354   7.007   7.081   8.376 -0.4102 -0.2673  0.1151
  323MOL    H7139355   6.881   7.396   8.232 -0.6823 -0.0176  2.4045
  323MOL    H7239356   7.043   7.356   8.273 -2.7068  0.9285  3.4990
  323MOL    H7339357   6.881   7.253   8.432 -1.5506 -0.8537  0.2445
  323MOL    C7439358   6.750   7.148   8.302  0.0691 -0.1543  0.7950
  323MOL    C7539359   6.629   7.250   8.288 -0.1147  0.3257 -0.0741
  323MOL   Cl7639360   6.590   7.327   8.440  0.1043  0.0517  0.1162
  323MOL    H7739361   6.725   7.088   8.389 -1.3615  0.2241  0.6496
  323MOL    H7839362   6.758   7.081   8.217 -2.0642 -0.0774  0.5178
  323MOL    H7939363   6.652   7.325   8.213 -0.0921 -1.0356 -1.4503
  323MOL    C8039364   6.502   7.175   8.240  0.5456 -0.2038  0.3316
  323MOL    C8139365   6.507   7.132   8.093 -0.1673 -0.1483 -0.7089
  323MOL   Cl8239366   6.494   7.267   7.980 -0.0857  0.1185  0.3585
  323MOL    H8339367   6.413   7.238   8.238  1.8522  1.6274 -0.8656
  323MOL    H8439368   6.483   7.092   8.307 -0.1991 -0.5572 -0.3121
  323MOL    H8539369   6.607   7.090   8.082  0.3671  1.1053 -0.7900
  323MOL    C8639370   6.410   7.014   8.063  0.1477 -0.6800  0.0624
  323MOL    C8739371   6.259   7.049   8.079 -0.0559 -0.3897  0.0414
  323MOL   Cl8839372   6.220   7.015   8.245  0.1730 -0.1007  0.2011
  323MOL    H8939373   6.425   6.920   8.116 -0.2735  0.7094  2.7965
  323MOL    H9039374   6.426   6.991   7.958  0.2816 -0.6666  0.0794
  323MOL    H9139375   6.257   7.157   8.066 -0.1228 -0.6733 -2.4665
  323MOL    C9239376   6.166   6.971   7.981 -0.6832 -0.1726 -0.2737
  323MOL    C9339377   6.031   7.034   7.960  0.1086  1.1009  0.3202
  323MOL   Cl9439378   5.920   6.918   7.885  0.2011 -0.4307  0.1756
  323MOL    H9539379   6.147   6.871   8.019 -0.7731  0.1674  0.6114
  323MOL    H9639380   6.213   6.957   7.885  2.2415  1.7814  0.8018
  323MOL    H9739381   5.989   7.046   8.060 -0.3380  2.1457  0.0167
  323MOL    C9839382   6.024   7.171   7.899 -0.4160  0.2252 -0.3070
  323MOL    C9939383   6.069   7.174   7.750 -0.8081 -0.1376 -0.4944
  323MOL  Cl10039384   6.245   7.182   7.755 -0.0007  0.2218  0.1977
  323MOL   H10139385   6.090   7.231   7.961 -0.8189  0.5593 -0.1978
  323MOL   H10239386   5.918   7.195   7.901 -0.0483  1.8268  1.6277
  323MOL   H10339387   6.035   7.085   7.697  1.2275 -1.2318 -0.0035
  323MOL   C10439388   6.017   7.303   7.678 -0.5195  0.2793 -0.3504
  323MOL   C10539389   5.869   7.300   7.636  0.4746 -0.8634  0.5739
  323MOL  Cl10639390   5.852   7.181   7.500 -0.0588  0.0717  0.3447
  323MOL   H10739391   6.074   7.324   7.588 -0.6335  3.1945  0.1940
  323MOL   H10839392   6.037   7.389   7.742  1.0708 -0.5615  0.3004
  323MOL   H10939393   5.806   7.265   7.719 -2.1251  2.6166  0.1893
  323MOL   C11039394   5.808   7.437   7.591 -0.4762  0.4267  0.1034
  323MOL   C11139395   5.659   7.423   7.556 -0.5236  0.0780  0.0638
  323MOL  Cl11239396   5.615   7.586   7.485  0.2980  0.3052  0.1859
  323MOL   H11339397   5.858   7.491   7.512 -0.6047 -1.7755 -1.5219
  323MOL   H11439398   5.807   7.500   7.680  1.6320  1.8170 -0.8086
  323MOL   H11539399   5.641   7.346   7.482 -1.6401  1.1473 -0.7984
  323MOL   C11639400   5.576   7.395   7.683 -0.3715  0.5514 -0.1168
  323MOL   C11739401   5.424   7.393   7.643  0.4211 -0.2372  0.4818
  323MOL  Cl11839402   5.391   7.234   7.565  0.2043  0.4210 -0.5560
  323MOL   H11939403   5.587   7.467   7.763 -1.4926 -1.4834  1.9228
  323MOL   H12039404   5.595   7.295   7.723  0.8126  1.5476  1.9022
  323MOL   H12139405   5.359   7.397   7.730 -0.9922 -0.5285 -0.5368
  323MOL   H12239406   5.398   7.470   7.571  0.3739 -0.6613  0.0399
  324MOL     C139407   6.955   4.819   2.517 -0.2501  0.2230  0.2262
  324MOL     C239408   6.854   4.780   2.409  0.0712  0.5122 -0.0789
  324MOL    Cl339409   6.768   4.934   2.380 -0.0794  0.1036  0.0458
  324MOL     H439410   6.914   4.843   2.616  0.0571  0.0774  0.3878
  324MOL     H539411   7.016   4.732   2.540 -0.8335 -0.2769 -0.1050
  324MOL     H639412   6.905   4.764   2.314 -1.9529 -0.3893 -1.0479
  324MOL     H739413   7.025   4.895   2.484  0.5028 -0.3501  0.4756
  324MOL     C839414   6.762   4.661   2.447  0.3130 -0.3442  0.1807
  324MOL     C939415   6.828   4.520   2.467  0.1177  0.0558 -0.9772
  324MOL   Cl1039416   6.895   4.467   2.314  0.3947  0.2418  0.0335
  324MOL    H1139417   6.681   4.655   2.374  1.2769 -1.6821 -0.8168
  324MOL    H1239418   6.726   4.680   2.548 -1.1198  0.6029 -0.5008
  324MOL    H1339419   6.911   4.517   2.538  0.0667 -1.5324 -0.9688
  324MOL    C1439420   6.723   4.409   2.497 -0.1888  0.1766  0.4308
  324MOL    C1539421   6.664   4.421   2.636  0.0559  0.3580  0.2496
  324MOL   Cl1639422   6.783   4.380   2.757  0.0702  0.0253  0.2501
  324MOL    H1739423   6.765   4.312   2.470 -0.8559 -0.4303  1.5473
  324MOL    H1839424   6.651   4.414   2.415 -0.0537  0.3844  0.3257
  324MOL    H1939425   6.630   4.524   2.649 -1.7629 -0.1961  0.0545
  324MOL    C2039426   6.545   4.329   2.652 -0.4839 -0.5984 -0.1509
  324MOL    C2139427   6.477   4.337   2.787  0.8756  0.3454 -0.2559
  324MOL   Cl2239428   6.350   4.209   2.799 -0.0072  0.3801 -0.0529
  324MOL    H2339429   6.580   4.228   2.629 -1.9072 -1.2908  0.7066
  324MOL    H2439430   6.471   4.348   2.574  1.7150  1.9207 -1.7469
  324MOL    H2539431   6.545   4.305   2.866 -0.2284 -0.9076  0.2138
  324MOL    C2639432   6.404   4.467   2.819 -0.1776 -0.0789  1.0681
  324MOL    C2739433   6.293   4.509   2.723  0.1453  0.6811 -0.1114
  324MOL   Cl2839434   6.344   4.584   2.572 -0.0979  0.1174  0.0544
  324MOL    H2939435   6.478   4.546   2.834 -0.4601  0.0066  2.0448
  324MOL    H3039436   6.375   4.454   2.923 -0.7786 -1.7324  0.7078
  324MOL    H3139437   6.232   4.423   2.695  0.6688  0.3717 -0.3007
  324MOL    C3239438   6.190   4.607   2.785 -0.2728  0.3519 -0.4232
  324MOL    C3339439   6.058   4.634   2.710 -0.6461  0.5136 -0.3739
  324MOL   Cl3439440   5.990   4.781   2.793 -0.2987  0.0452 -0.1075
  324MOL    H3539441   6.235   4.703   2.810 -1.4546  0.6539  0.5802
  324MOL    H3639442   6.178   4.575   2.888  0.9579 -1.2338 -0.7565
  324MOL    H3739443   6.079   4.662   2.606  2.0423 -2.6526 -0.7770
  324MOL    C3839444   5.954   4.518   2.704  0.5160 -0.1435 -0.3806
  324MOL    C3939445   5.825   4.543   2.622 -0.0160 -0.4078 -0.1342
  324MOL   Cl4039446   5.720   4.396   2.642 -0.2853 -0.0097  0.4191
  324MOL    H4139447   5.924   4.484   2.803  1.0098 -1.0164 -0.5294
  324MOL    H4239448   6.012   4.439   2.657 -0.4703 -0.9523 -0.2421
  324MOL    H4339449   5.761   4.621   2.663 -1.5313 -1.3891 -0.6207
  324MOL    C4439450   5.830   4.587   2.470 -0.0030  0.4061  0.4719
  324MOL    C4539451   5.906   4.485   2.378  0.1958  0.2335 -0.0860
  324MOL   Cl4639452   6.080   4.506   2.391 -0.2598 -0.1929  0.0517
  324MOL    H4739453   5.870   4.686   2.446  2.3527 -0.8179 -0.8688
  324MOL    H4839454   5.729   4.580   2.431  0.6144 -0.2260 -1.0585
  324MOL    H4939455   5.894   4.388   2.427  3.9374  0.6379  1.8549
  324MOL    C5039456   5.866   4.479   2.227 -0.6859 -0.4782  0.6039
  324MOL    C5139457   5.874   4.609   2.140  0.4949 -0.2399 -0.3441
  324MOL   Cl5239458   5.743   4.719   2.188 -0.0017  0.0465 -0.0041
  324MOL    H5339459   5.763   4.447   2.213 -0.5449 -0.7356  0.1529
  324MOL    H5439460   5.925   4.406   2.172 -0.1495  2.1594 -2.5043
  324MOL    H5539461   5.963   4.667   2.166  0.2824  1.7959 -3.7161
  324MOL    C5639462   5.864   4.580   1.988  0.4632 -0.1109  0.0283
  324MOL    C5739463   5.978   4.504   1.921  0.4391  0.3831 -0.3161
  324MOL   Cl5839464   6.114   4.615   1.931 -0.0066  0.0048  0.1147
  324MOL    H5939465   5.857   4.679   1.943  3.9192  0.3132  0.3313
  324MOL    H6039466   5.773   4.526   1.962  1.3025 -2.2035  1.3294
  324MOL    H6139467   6.002   4.407   1.964 -3.2259 -1.5542 -2.3014
  324MOL    C6239468   5.950   4.472   1.768  0.0141  0.3923 -0.6774
  324MOL    C6339469   6.075   4.403   1.703 -0.4422 -0.9148 -0.3272
  324MOL   Cl6439470   6.042   4.394   1.523  0.3383  0.1438 -0.1551
  324MOL    H6539471   5.930   4.563   1.711 -1.0964  0.1595 -0.6693
  324MOL    H6639472   5.863   4.408   1.754  0.3509 -0.4547  1.0190
  324MOL    H6739473   6.159   4.469   1.727  0.1900 -2.3438  1.5189
  324MOL    C6839474   6.112   4.266   1.734 -0.2822  0.1968  0.1446
  324MOL    C6939475   6.264   4.237   1.717 -0.0066 -0.5690 -0.3297
  324MOL   Cl7039476   6.308   4.069   1.699  0.1492  0.0514 -0.3797
  324MOL    H7139477   6.067   4.189   1.671 -0.8259 -1.6893  2.7365
  324MOL    H7239478   6.079   4.236   1.834  0.3330 -2.0773 -0.2981
  324MOL    H7339479   6.286   4.287   1.623 -1.7862 -1.2290 -1.1154
  324MOL    C7439480   6.362   4.292   1.820  0.6253  0.6230  0.5279
  324MOL    C7539481   6.362   4.230   1.959 -0.2454  0.2754  0.2279
  324MOL   Cl7639482   6.214   4.268   2.047  0.4313 -0.0132  0.4262
  324MOL    H7739483   6.346   4.399   1.830  0.4212  0.4043  2.6481
  324MOL    H7839484   6.459   4.264   1.779 -0.1337 -0.0251 -0.8773
  324MOL    H7939485   6.364   4.121   1.950  1.1895  0.4111 -1.0850
  324MOL    C8039486   6.474   4.286   2.050 -0.4726  0.3929 -0.3757
  324MOL    C8139487   6.612   4.217   2.032 -0.0649 -0.5115 -0.5559
  324MOL   Cl8239488   6.659   4.140   2.181 -0.3249 -0.0482 -0.1604
  324MOL    H8339489   6.443   4.270   2.154  2.1863 -1.5021  0.1612
  324MOL    H8439490   6.481   4.392   2.025 -2.1700  0.1982 -1.7819
  324MOL    H8539491   6.602   4.141   1.954  0.2024  1.3483 -2.4258
  324MOL    C8639492   6.730   4.309   1.993  0.0082 -0.1019  0.3467
  324MOL    C8739493   6.743   4.359   1.850  0.5613  0.7890  1.0010
  324MOL   Cl8839494   6.732   4.230   1.719 -0.0975  0.0454 -0.1085
  324MOL    H8939495   6.822   4.254   2.016  0.5332  0.7701  0.3421
  324MOL    H9039496   6.736   4.385   2.070  2.0080 -1.3310  1.4539
  324MOL    H9139497   6.657   4.425   1.835 -1.2587 -2.2667 -3.1516
  324MOL    C9239498   6.879   4.425   1.826 -0.0338 -0.5863 -0.2490
  324MOL    C9339499   6.893   4.542   1.731  0.1173 -0.1040 -1.0268
  324MOL   Cl9439500   6.758   4.666   1.745 -0.1069 -0.3535 -0.1507
  324MOL    H9539501   6.954   4.347   1.815  0.9235  0.2846 -0.0236
  324MOL    H9639502   6.920   4.451   1.924 -2.8196  0.6420  0.6374
  324MOL    H9739503   6.985   4.587   1.768  0.4579 -1.9805  0.4786
  324MOL    C9839504   6.911   4.518   1.584 -0.3023  0.7290 -0.0297
  324MOL    C9939505   7.021   4.422   1.545 -0.4137  0.3740 -0.2656
  324MOL  Cl10039506   7.177   4.494   1.598  0.0805  0.0188  0.2358
  324MOL   H10139507   6.920   4.613   1.532 -2.5937  1.0851  0.1741
  324MOL   H10239508   6.816   4.475   1.553 -2.1179  2.9677  2.2860
  324MOL   H10339509   7.009   4.323   1.588 -4.2421  1.9895  2.6178
  324MOL   C10439510   7.021   4.407   1.389  0.2258 -0.0678 -0.4300
  324MOL   C10539511   7.130   4.321   1.331 -0.3696  0.2008  0.0209
  324MOL  Cl10639512   7.115   4.319   1.159 -0.0237  0.4375 -0.2452
  324MOL   H10739513   7.034   4.507   1.347  2.6592  0.1051  0.6644
  324MOL   H10839514   6.928   4.358   1.360  1.1967 -1.7214 -0.7905
  324MOL   H10939515   7.224   4.372   1.354  0.8722 -1.1482 -1.9070
  324MOL   C11039516   7.144   4.174   1.375 -0.4246 -0.4560  0.7443
  324MOL   C11139517   7.029   4.080   1.331 -0.4543 -0.1454  0.4809
  324MOL  Cl11239518   6.883   4.093   1.438  0.0921  0.1024  0.1899
  324MOL   H11339519   7.149   4.167   1.484 -0.3139  2.1958  0.9355
  324MOL   H11439520   7.240   4.138   1.337 -1.5282  2.1046 -4.9743
  324MOL   H11539521   6.990   4.106   1.232  3.6743  1.4895 -0.8258
  324MOL   C11639522   7.069   3.929   1.328  0.9257 -0.3104 -0.0399
  324MOL   C11739523   7.100   3.876   1.472  0.0536 -0.2674  0.8584
  324MOL  Cl11839524   7.110   3.700   1.473  0.4233  0.2578 -0.2300
  324MOL   H11939525   7.153   3.914   1.260  2.7220  1.1812  1.8141
  324MOL   H12039526   6.995   3.866   1.278  0.0257  0.8240 -0.1688
  324MOL   H12139527   7.200   3.909   1.499 -0.8103  1.3128  2.1819
  324MOL   H12239528   7.035   3.900   1.555  0.3915  0.5824  0.8750
  325MOL     C139529   2.185   0.069   2.805 -0.0747 -0.3506 -0.6558
  325MOL     C239530   2.211   8.444   2.785  0.7215 -0.1644  0.8364
  325MOL    Cl339531   2.134   8.345   2.912 -0.0170 -0.1967  0.1475
  325MOL     H439532   2.078   0.093   2.802 -0.0186 -0.0320 -0.1907
  325MOL     H539533   2.220   0.101   2.903  0.7610 -0.0469 -1.0458
  325MOL     H639534   2.167   8.411   2.690  0.7434 -1.0898  1.1480
  325MOL     H739535   2.233   0.128   2.726  1.1479  1.2526  1.2349
  325MOL     C839536   2.363   8.416   2.789 -0.6003 -0.1743  0.1094
  325MOL     C939537   2.426   8.448   2.657  0.0471 -0.2891 -0.0802
  325MOL   Cl1039538   2.368   8.325   2.544  0.1398 -0.2285 -0.0916
  325MOL    H1139539   2.389   8.315   2.821  0.4462  0.9982  3.1777
  325MOL    H1239540   2.407   8.487   2.859  0.2610 -0.9143  0.3239
  325MOL    H1339541   2.393   0.023   2.632  1.7746  0.6790  1.3928
  325MOL    C1439542   2.582   8.442   2.666  0.2393  0.1429 -0.0123
  325MOL    C1539543   2.648   0.010   2.566  0.0739  0.1249 -0.7918
  325MOL   Cl1639544   2.675   8.427   2.422 -0.2771  0.0868 -0.2505
  325MOL    H1739545   2.615   8.338   2.663 -1.7095 -0.4661 -1.5092
  325MOL    H1839546   2.615   8.473   2.765  0.9161  1.4148 -0.6146
  325MOL    H1939547   2.590   0.097   2.535 -0.6093 -0.5817 -1.5196
  325MOL    C2039548   2.774   0.053   2.628 -0.1227  0.3905 -1.2823
  325MOL    C2139549   2.875   0.112   2.525  0.2497 -0.1555 -0.0165
  325MOL   Cl2239550   3.025   0.165   2.612  0.1425 -0.5089 -0.1783
  325MOL    H2339551   2.829   8.500   2.680 -0.6174 -0.4832 -2.0615
  325MOL    H2439552   2.747   0.133   2.696  2.8935  1.6196 -1.4253
  325MOL    H2539553   2.902   0.023   2.467 -1.7524  0.4429 -1.9410
  325MOL    C2639554   2.820   0.221   2.434  0.1718  0.4324 -0.2078
  325MOL    C2739555   2.903   0.279   2.327  0.1140 -0.0666 -0.2758
  325MOL   Cl2839556   2.950   0.153   2.214 -0.3988  0.2074 -0.0242
  325MOL    H2939557   2.765   0.295   2.493 -0.8176 -0.4525 -0.0056
  325MOL    H3039558   2.746   0.169   2.373  2.1576 -2.5995 -0.1419
  325MOL    H3139559   2.832   0.342   2.273 -1.2953  0.1445  1.7701
  325MOL    C3239560   3.029   0.372   2.357 -0.0996 -0.8404 -0.2723
  325MOL    C3339561   3.010   0.482   2.463  0.1431  0.1524 -0.0125
  325MOL   Cl3439562   2.888   0.606   2.412  0.4462 -0.3798  0.0655
  325MOL    H3539563   3.061   0.426   2.268  0.1351  2.4492  1.7341
  325MOL    H3639564   3.105   0.304   2.395  0.9877  0.3522 -0.3062
  325MOL    H3739565   2.975   0.430   2.552  0.7442  0.2178  0.2677
  325MOL    C3839566   3.136   0.551   2.507 -0.3853  0.1910 -0.1617
  325MOL    C3939567   3.128   0.655   2.627 -0.0955 -0.1193 -0.8808
  325MOL   Cl4039568   3.290   0.737   2.627 -0.2650 -0.1787 -0.1946
  325MOL    H4139569   3.172   0.609   2.423  0.1902 -0.4999 -0.3946
  325MOL    H4239570   3.215   0.477   2.523  0.0360  0.2186 -2.0284
  325MOL    H4339571   3.052   0.730   2.604 -1.7810 -1.2278  0.8628
  325MOL    C4439572   3.103   0.567   2.756  0.1576  0.2527 -0.4879
  325MOL    C4539573   3.170   0.625   2.883  0.0303 -0.4109  0.3600
  325MOL   Cl4639574   3.127   0.515   3.011 -0.0197  0.0137 -0.3399
  325MOL    H4739575   3.137   0.464   2.748 -0.0798  0.3777 -3.5103
  325MOL    H4839576   2.995   0.574   2.769  0.3710 -0.6753  2.2081
  325MOL    H4939577   3.279   0.615   2.878 -0.0429 -0.9336 -0.2946
  325MOL    C5039578   3.120   0.768   2.927 -0.0598 -0.7485  0.0075
  325MOL    C5139579   3.166   0.826   3.065 -0.0026  0.2289 -0.2546
  325MOL   Cl5239580   3.098   0.990   3.072 -0.0529  0.0364  0.0705
  325MOL    H5339581   3.013   0.786   2.917  0.3748  0.5339 -2.7491
  325MOL    H5439582   3.161   0.835   2.851  0.7420 -0.6711  0.5066
  325MOL    H5539583   3.136   0.761   3.147 -1.6561  0.0967 -0.9529
  325MOL    C5639584   3.322   0.839   3.068  0.3454  0.2476 -0.1530
  325MOL    C5739585   3.379   0.889   3.203 -0.1481  0.2715 -0.3570
  325MOL   Cl5839586   3.546   0.942   3.166 -0.1914 -0.2531  0.4255
  325MOL    H5939587   3.349   0.918   2.998 -1.2238 -1.0299 -2.2395
  325MOL    H6039588   3.376   0.747   3.047  0.0263 -0.8120  3.2265
  325MOL    H6139589   3.320   0.971   3.245 -1.2478 -0.1869 -0.9819
  325MOL    C6239590   3.392   0.775   3.304 -0.0421  0.5393 -0.3917
  325MOL    C6339591   3.454   0.816   3.442 -0.8645 -0.0936 -0.3127
  325MOL   Cl6439592   3.489   0.662   3.518  0.3928 -0.3090 -0.2919
  325MOL    H6539593   3.444   0.690   3.260 -0.3506  1.0339 -1.7703
  325MOL    H6639594   3.290   0.748   3.331 -0.0588  1.3020  0.3271
  325MOL    H6739595   3.551   0.863   3.427 -1.2886 -0.0710 -3.3627
  325MOL    C6839596   3.364   0.902   3.533  0.0052  0.2038  0.5023
  325MOL    C6939597   3.220   0.851   3.556  0.8136 -0.3288 -0.3306
  325MOL   Cl7039598   3.110   0.919   3.424 -0.2265 -0.1078  0.0554
  325MOL    H7139599   3.366   1.007   3.502  0.5569 -0.2400 -1.0048
  325MOL    H7239600   3.415   0.900   3.629 -2.6056 -1.9257  1.9220
  325MOL    H7339601   3.229   0.743   3.548  1.3030 -0.4466  1.4988
  325MOL    C7439602   3.150   0.881   3.692  0.3830  0.2624 -0.1595
  325MOL    C7539603   3.226   0.852   3.829  0.1829 -0.1384  0.9672
  325MOL   Cl7639604   3.289   0.682   3.834 -0.3044  0.4055  0.0493
  325MOL    H7739605   3.049   0.840   3.694  0.7199 -0.5628 -0.0861
  325MOL    H7839606   3.137   0.989   3.699  1.8061  0.4751 -0.7162
  325MOL    H7939607   3.318   0.910   3.833 -1.2172  2.0944  2.3221
  325MOL    C8039608   3.134   0.876   3.949  0.4738 -0.1645  0.1581
  325MOL    C8139609   3.116   1.024   3.983  0.8070  0.4409 -0.3990
  325MOL   Cl8239610   3.268   1.118   3.999 -0.0894 -0.1604  0.2755
  325MOL    H8339611   3.178   0.832   4.038  0.1715 -1.2807 -0.2396
  325MOL    H8439612   3.043   0.819   3.928 -0.4437  0.7040  1.7035
  325MOL    H8539613   3.060   1.062   3.898  0.0199 -0.4338 -0.2776
  325MOL    C8639614   3.026   1.037   4.106 -0.2281 -0.4976 -0.1475
  325MOL    C8739615   2.949   1.172   4.136  0.4048 -0.6902  0.8087
  325MOL   Cl8839616   2.848   1.195   3.991  0.1466  0.3278  0.2507
  325MOL    H8939617   3.091   1.030   4.193 -1.8889  0.0356  1.1801
  325MOL    H9039618   2.950   0.959   4.117 -1.1755  0.3644 -0.5430
  325MOL    H9139619   2.879   1.147   4.216 -1.0497 -0.8968 -0.5294
  325MOL    C9239620   3.034   1.294   4.163  0.4090  0.0986 -0.2027
  325MOL    C9339621   3.062   1.315   4.312  0.1970  0.1673 -0.3432
  325MOL   Cl9439622   2.920   1.320   4.410 -0.0136 -0.0874 -0.0856
  325MOL    H9539623   2.979   1.383   4.133  0.7563  0.4350  0.1482
  325MOL    H9639624   3.133   1.293   4.116  0.0851 -1.1244 -0.8750
  325MOL    H9739625   3.105   1.220   4.346 -1.7984 -0.2709  1.0559
  325MOL    C9839626   3.162   1.422   4.347 -0.5847  0.7722 -0.4557
  325MOL    C9939627   3.111   1.574   4.343 -0.1832  0.1153  0.5857
  325MOL  Cl10039628   3.086   1.625   4.173 -0.2916 -0.3342  0.1314
  325MOL   H10139629   3.255   1.413   4.291  0.9274 -2.1308  2.4288
  325MOL   H10239630   3.193   1.412   4.451 -2.1515  0.5423  0.0111
  325MOL   H10339631   3.021   1.606   4.395  1.9702  4.0443  2.1399
  325MOL   C10439632   3.215   1.664   4.411 -0.1636 -0.6133 -0.3945
  325MOL   C10539633   3.154   1.805   4.459 -0.7023  0.0960 -0.0345
  325MOL  Cl10639634   3.094   1.912   4.333  0.0490  0.1443  0.1682
  325MOL   H10739635   3.303   1.673   4.348 -2.9027 -0.3591 -4.3972
  325MOL   H10839636   3.250   1.616   4.502  0.8306  0.0438 -0.4328
  325MOL   H10939637   3.066   1.783   4.519 -1.1724 -1.5777 -1.2888
  325MOL   C11039638   3.258   1.876   4.549 -0.7992  0.2139 -0.4923
  325MOL   C11139639   3.237   1.862   4.700 -0.1476 -0.2490 -0.0327
  325MOL  Cl11239640   3.089   1.951   4.753  0.4012  0.2742  0.1540
  325MOL   H11339641   3.247   1.983   4.530  2.5648  0.5592 -0.9063
  325MOL   H11439642   3.360   1.847   4.521 -1.9595 -0.5565 -4.2288
  325MOL   H11539643   3.219   1.759   4.730 -2.5085 -0.4595 -2.0038
  325MOL   C11639644   3.359   1.904   4.787 -0.4070 -0.3826  0.3855
  325MOL   C11739645   3.409   2.048   4.782  0.5830 -0.3665  0.3795
  325MOL  Cl11839646   3.549   2.087   4.887 -0.5439  0.1948  0.4539
  325MOL   H11939647   3.448   1.843   4.769 -0.8752 -0.8187 -0.4598
  325MOL   H12039648   3.320   1.883   4.887 -0.5950 -0.8256  0.2240
  325MOL   H12139649   3.450   2.076   4.685 -0.3949 -1.8034 -0.4588
  325MOL   H12239650   3.321   2.107   4.805  0.5425 -0.6688  0.9949
  326MOL     C139651   4.150   0.251   3.696  0.0659  0.3239 -0.2260
  326MOL     C239652   4.138   0.248   3.845 -0.0802  0.3667 -0.2706
  326MOL    Cl339653   3.966   0.275   3.895 -0.0681  0.1437 -0.1028
  326MOL     H439654   4.250   0.228   3.660 -0.8880 -1.5519 -1.7255
  326MOL     H539655   4.094   0.177   3.638  1.5100  0.5330 -1.9354
  326MOL     H639656   4.165   0.148   3.878 -2.7476 -0.4683 -0.5236
  326MOL     H739657   4.118   0.348   3.658 -2.2136  0.1100  1.0804
  326MOL     C839658   4.235   0.342   3.919 -0.1293 -0.7057 -0.1574
  326MOL     C939659   4.381   0.324   3.863  0.1772  0.2079  0.0841
  326MOL   Cl1039660   4.438   0.161   3.879  0.2288 -0.1047 -0.3058
  326MOL    H1139661   4.238   0.322   4.026 -4.0553 -0.3706  0.0869
  326MOL    H1239662   4.202   0.445   3.903  2.5128  0.3313  0.7388
  326MOL    H1339663   4.390   0.355   3.759  0.4959  0.2995  0.1393
  326MOL    C1439664   4.469   0.423   3.942 -0.1298  0.2241 -0.0713
  326MOL    C1539665   4.614   0.425   3.889 -0.1834  0.3710  0.4682
  326MOL   Cl1639666   4.726   0.482   4.015  0.0699 -0.1629  0.0011
  326MOL    H1739667   4.473   0.384   4.043  1.0366  1.4180  0.3660
  326MOL    H1839668   4.433   0.526   3.943  2.1320  1.0534  3.5031
  326MOL    H1939669   4.653   0.326   3.866  0.5098 -0.1498  3.5836
  326MOL    C2039670   4.633   0.503   3.753 -0.0363 -1.2036 -0.6537
  326MOL    C2139671   4.586   0.651   3.754 -0.1489  0.7348  0.7759
  326MOL   Cl2239672   4.411   0.646   3.706  0.2647  0.4722  0.2773
  326MOL    H2339673   4.582   0.450   3.673 -1.5596 -0.9838  0.1616
  326MOL    H2439674   4.737   0.499   3.720  0.1838 -0.7549 -0.0250
  326MOL    H2539675   4.588   0.684   3.857  0.9193 -0.0497  1.0107
  326MOL    C2639676   4.664   0.735   3.664  0.1700 -0.1331 -0.7013
  326MOL    C2739677   4.798   0.788   3.723  0.6022 -0.0870  0.1157
  326MOL   Cl2839678   4.755   0.931   3.818 -0.1338 -0.4114  0.0708
  326MOL    H2939679   4.598   0.817   3.638  1.0812  0.1300 -2.2809
  326MOL    H3039680   4.682   0.676   3.574  0.1704  0.7847 -1.3039
  326MOL    H3139681   4.842   0.710   3.786 -0.9591 -1.6280 -0.6720
  326MOL    C3239682   4.888   0.828   3.612 -0.0171  0.7822 -0.0344
  326MOL    C3339683   5.032   0.869   3.647 -0.3990  0.6132  0.5872
  326MOL   Cl3439684   5.041   1.046   3.683 -0.1428 -0.1484  0.4465
  326MOL    H3539685   4.831   0.902   3.557 -1.5963 -0.9101 -0.7297
  326MOL    H3639686   4.882   0.743   3.543  1.1557  0.0653  0.7213
  326MOL    H3739687   5.060   0.823   3.741 -1.2696 -0.0292  0.5407
  326MOL    C3839688   5.135   0.826   3.541 -0.4058  0.6684  0.2454
  326MOL    C3939689   5.194   0.682   3.551 -0.0557 -0.2115  0.1433
  326MOL   Cl4039690   5.279   0.657   3.708 -0.3328  0.0512  0.0074
  326MOL    H4139691   5.208   0.907   3.546  0.3626  0.1747 -2.2422
  326MOL    H4239692   5.081   0.830   3.446 -0.8726  0.4673  0.4990
  326MOL    H4339693   5.122   0.600   3.548 -1.5100  1.1049 -1.7390
  326MOL    C4439694   5.297   0.659   3.435 -0.0769  0.0085  0.5865
  326MOL    C4539695   5.244   0.679   3.292  0.1601  0.8316  0.3579
  326MOL   Cl4639696   5.087   0.582   3.267 -0.2553  0.0120 -0.0008
  326MOL    H4739697   5.351   0.566   3.452 -0.4046 -0.6814 -2.0218
  326MOL    H4839698   5.377   0.732   3.451  0.9134 -0.7070 -1.0318
  326MOL    H4939699   5.226   0.787   3.286 -1.8917  0.5195  0.4279
  326MOL    C5039700   5.333   0.650   3.174 -0.4605 -0.6301  0.1457
  326MOL    C5139701   5.464   0.737   3.148  0.1892 -0.2709  0.6568
  326MOL   Cl5239702   5.421   0.907   3.119  0.0573 -0.0340 -0.0968
  326MOL    H5339703   5.280   0.655   3.079 -0.7819 -1.4442  0.2786
  326MOL    H5439704   5.358   0.544   3.170 -2.5363 -1.2003  1.7085
  326MOL    H5539705   5.518   0.736   3.243 -1.6210 -0.4240  1.7132
  326MOL    C5639706   5.558   0.686   3.037 -0.8115  0.5925 -0.9933
  326MOL    C5739707   5.695   0.753   3.029  0.2797 -0.1348 -0.9097
  326MOL   Cl5839708   5.788   0.721   2.877 -0.0667  0.2667 -0.0959
  326MOL    H5939709   5.508   0.695   2.941 -1.7934 -1.8804 -0.7631
  326MOL    H6039710   5.568   0.581   3.066 -1.1820  1.1624  1.2941
  326MOL    H6139711   5.683   0.862   3.027  0.0144 -0.1169  0.9553
  326MOL    C6239712   5.786   0.720   3.151  0.4236 -0.2753 -0.0742
  326MOL    C6339713   5.810   0.570   3.182  0.4159  0.4035 -0.6929
  326MOL   Cl6439714   5.685   0.512   3.292 -0.6831  0.5829  0.0689
  326MOL    H6539715   5.730   0.748   3.241  0.0897 -1.4716  0.1043
  326MOL    H6639716   5.867   0.792   3.139 -1.5097  1.7680 -1.1786
  326MOL    H6739717   5.809   0.503   3.096 -1.0558 -1.9021  1.0554
  326MOL    C6839718   5.935   0.533   3.255 -0.1837 -1.0837  0.8795
  326MOL    C6939719   6.058   0.567   3.168 -0.2822  0.0906 -0.6704
  326MOL   Cl7039720   6.060   0.523   3.004  0.2661 -0.0400  0.5844
  326MOL    H7139721   5.948   0.429   3.286  0.1758 -0.4714  2.8917
  326MOL    H7239722   5.944   0.577   3.354 -1.4483  0.1560  0.4494
  326MOL    H7339723   6.080   0.674   3.169 -1.1889  0.2935 -1.8205
  326MOL    C7439724   6.180   0.506   3.248 -0.5910  0.2556  0.1867
  326MOL    C7539725   6.233   0.364   3.206 -0.0015  0.1016 -0.4522
  326MOL   Cl7639726   6.170   0.241   3.308  0.2419  0.1566  0.3902
  326MOL    H7739727   6.167   0.515   3.356 -1.8715  1.0516 -0.0235
  326MOL    H7839728   6.263   0.571   3.219 -0.8052  1.1186  1.4395
  326MOL    H7939729   6.208   0.337   3.103 -1.6856  0.4628 -0.1508
  326MOL    C8039730   6.384   0.349   3.202  0.3948 -0.0874 -0.0013
  326MOL    C8139731   6.438   0.213   3.179  0.3474  0.5474 -0.3776
  326MOL   Cl8239732   6.614   0.222   3.156 -0.5774  0.0054 -0.2729
  326MOL    H8339733   6.427   0.381   3.297  0.0159 -0.9767  0.4772
  326MOL    H8439734   6.433   0.417   3.132 -0.4834  0.7859  0.2206
  326MOL    H8539735   6.431   0.165   3.276 -0.8534  0.7144 -0.3809
  326MOL    C8639736   6.372   0.143   3.056 -0.4085 -0.0459 -0.3179
  326MOL    C8739737   6.412   8.517   3.041  0.0043  0.2339 -0.1238
  326MOL   Cl8839738   6.337   8.453   2.888  0.0951  0.0700 -0.3917
  326MOL    H8939739   6.389   0.205   2.968 -2.7358  0.3182 -0.5507
  326MOL    H9039740   6.265   0.126   3.073 -0.0510 -1.1779  0.8768
  326MOL    H9139741   6.515   8.496   3.013 -0.0564 -1.1618  0.6545
  326MOL    C9239742   6.376   8.431   3.163  0.1512  0.1106  0.1683
  326MOL    C9339743   6.434   8.284   3.157 -0.0328  0.1721  0.2795
  326MOL   Cl9439744   6.329   8.179   3.251 -0.6690 -0.2341  0.1807
  326MOL    H9539745   6.269   8.425   3.184  0.0674  1.7927  0.2586
  326MOL    H9639746   6.417   8.470   3.255 -0.9397  1.4705  0.0860
  326MOL    H9739747   6.432   8.246   3.055 -1.7243 -0.5537  0.5609
  326MOL    C9839748   6.583   8.284   3.198  0.2747  0.2155 -0.1739
  326MOL    C9939749   6.645   8.142   3.195 -0.1258 -0.5774  0.9449
  326MOL  Cl10039750   6.806   8.143   3.284 -0.0548 -0.0151  0.1221
  326MOL   H10139751   6.606   8.324   3.297 -1.5868  0.1900  0.2819
  326MOL   H10239752   6.650   8.341   3.133  0.3437 -0.6043 -0.8348
  326MOL   H10339753   6.576   8.067   3.235 -0.6615 -0.6037 -0.0179
  326MOL   C10439754   6.668   8.104   3.040  0.2800 -0.5055 -0.2009
  326MOL   C10539755   6.736   7.965   3.013  0.0465 -0.8792  0.2708
  326MOL  Cl10639756   6.778   7.945   2.841 -0.0315 -0.4756 -0.2652
  326MOL   H10739757   6.731   8.181   2.997  1.6288 -1.1177  0.6007
  326MOL   H10839758   6.580   8.107   2.977 -0.6211 -2.9780  0.8408
  326MOL   H10939759   6.829   7.982   3.066  0.2154  0.0599 -0.3043
  326MOL   C11039760   6.657   7.839   3.060 -0.7605 -0.4714 -0.5175
  326MOL   C11139761   6.736   7.712   3.063 -0.2670 -0.3440  0.3868
  326MOL  Cl11239762   6.626   7.570   3.036 -0.2350 -0.5513 -0.3494
  326MOL   H11339763   6.562   7.826   3.010  0.0364 -3.7107 -1.2998
  326MOL   H11439764   6.629   7.848   3.165  0.1683  0.2714 -0.3220
  326MOL   H11539765   6.810   7.712   2.982  2.0926  0.8710  2.5014
  326MOL   C11639766   6.795   7.688   3.206 -0.4136  0.4761 -0.1470
  326MOL   C11739767   6.883   7.561   3.213  1.3365  0.2501  0.3517
  326MOL  Cl11839768   6.947   7.564   3.375 -0.3988  0.1913 -0.1531
  326MOL   H11939769   6.715   7.675   3.278 -0.1396  2.3210  0.5132
  326MOL   H12039770   6.863   7.769   3.232 -4.0334  3.7060 -0.3181
  326MOL   H12139771   6.823   7.471   3.197  0.8381  0.7063 -0.4084
  326MOL   H12239772   6.963   7.563   3.139 -0.2320  1.3382 -1.3684
  327MOL     C139773   6.416   3.471   2.842  0.5510 -0.6969 -0.7118
  327MOL     C239774   6.565   3.495   2.821 -0.1138 -0.6712  0.0418
  327MOL    Cl339775   6.645   3.401   2.954  0.4069 -0.1536  0.2249
  327MOL     H439776   6.388   3.509   2.940  2.0477  0.2866 -0.6428
  327MOL     H539777   6.351   3.513   2.765 -0.8318 -3.0976 -0.8898
  327MOL     H639778   6.574   3.438   2.729  1.1034 -4.4863  2.3930
  327MOL     H739779   6.394   3.365   2.848  1.3774 -0.7699  1.6994
  327MOL     C839780   6.612   3.646   2.815  0.7607 -0.5775 -0.6143
  327MOL     C939781   6.556   3.732   2.695  1.3611  0.8173  0.3832
  327MOL   Cl1039782   6.584   3.659   2.538  0.0469 -0.4993 -0.0208
  327MOL    H1139783   6.721   3.648   2.811  0.7197  1.1227 -1.1777
  327MOL    H1239784   6.584   3.686   2.912  0.8234 -4.0096  0.9069
  327MOL    H1339785   6.448   3.727   2.711  1.5581 -1.0421  1.3917
  327MOL    C1439786   6.602   3.884   2.695  0.3744 -0.0610 -0.0699
  327MOL    C1539787   6.751   3.914   2.655 -0.3368 -0.5225  0.0277
  327MOL   Cl1639788   6.858   3.899   2.796 -0.0046  0.1377  0.1552
  327MOL    H1739789   6.570   3.937   2.785  1.0510  1.3147 -0.6135
  327MOL    H1839790   6.538   3.930   2.619 -0.2344 -0.8561 -0.0453
  327MOL    H1939791   6.775   3.826   2.595 -0.2334  0.0852 -0.8150
  327MOL    C2039792   6.783   4.039   2.570 -0.6074  0.2229  0.2980
  327MOL    C2139793   6.893   4.025   2.458  0.7195  0.2362 -0.0254
  327MOL   Cl2239794   6.846   3.892   2.342  0.1632 -0.1004 -0.2069
  327MOL    H2339795   6.807   4.121   2.638 -2.7002  2.3675 -1.4518
  327MOL    H2439796   6.691   4.070   2.520 -1.7962 -2.0433  0.9805
  327MOL    H2539797   6.900   4.114   2.396  1.3753  0.5609  0.5189
  327MOL    C2639798   7.040   3.991   2.508  0.2933 -0.2559  0.9721
  327MOL    C2739799   7.095   4.096   2.605 -0.3394  0.1927  0.1308
  327MOL   Cl2839800   7.081   4.259   2.529 -0.0190 -0.0420 -0.0676
  327MOL    H2939801   7.117   3.978   2.431 -0.7196 -2.0006  0.2329
  327MOL    H3039802   7.043   3.891   2.551 -0.6985 -0.7217 -0.0231
  327MOL    H3139803   7.041   4.096   2.699  1.8817  1.3254  1.4457
  327MOL    C3239804   7.247   4.084   2.646  0.1201  0.4103 -0.4642
  327MOL    C3339805   7.267   3.953   2.736 -0.1399  0.3392  0.4879
  327MOL   Cl3439806   7.179   3.979   2.887  0.2694  0.3513  0.4090
  327MOL    H3539807   7.273   4.164   2.716 -0.4428  0.0904  0.1164
  327MOL    H3639808   7.301   4.078   2.552 -2.1608 -0.1229 -1.7696
  327MOL    H3739809   7.238   3.856   2.696 -0.1138  0.2690  0.6410
  327MOL    C3839810   7.419   3.937   2.765  0.1196  0.7451 -0.1239
  327MOL    C3939811   7.508   3.891   2.648  1.0397  0.5746  0.1762
  327MOL   Cl4039812   7.501   3.712   2.621  0.1760 -0.1164 -0.1705
  327MOL    H4139813   7.433   3.876   2.855  0.4793 -0.0984 -0.7418
  327MOL    H4239814   7.451   4.035   2.800  2.5226 -0.3405  0.8501
  327MOL    H4339815   7.466   3.930   2.555 -0.6235 -0.5992  0.4189
  327MOL    C4439816   7.654   3.936   2.665 -0.1996  0.0883  0.3401
  327MOL    C4539817   7.691   4.082   2.626 -0.4966 -0.2273 -0.2696
  327MOL   Cl4639818   7.627   4.106   2.458  0.0081 -0.3055 -0.3598
  327MOL    H4739819   7.724   3.877   2.607  3.6090  1.6499  3.1303
  327MOL    H4839820   7.680   3.916   2.769  0.0915  0.6934  0.3868
  327MOL    H4939821   7.638   4.156   2.685  1.8750  0.6343  0.8591
  327MOL    C5039822   7.838   4.118   2.622 -0.8474 -0.0437  0.3027
  327MOL    C5139823   7.869   4.266   2.644 -0.2967 -0.5372 -0.3237
  327MOL   Cl5239824   7.795   4.367   2.511  0.3263  0.1653 -0.0714
  327MOL    H5339825   7.889   4.084   2.532 -3.1731  0.4917 -1.2461
  327MOL    H5439826   7.888   4.072   2.708  1.7609  0.1009 -1.1039
  327MOL    H5539827   7.833   4.314   2.735 -0.9710  0.2520 -1.0007
  327MOL    C5639828   8.022   4.282   2.657 -0.7894 -0.0059 -0.1838
  327MOL    C5739829   8.063   4.422   2.699 -0.4320  0.1732  0.0885
  327MOL   Cl5839830   8.171   4.497   2.582  0.7297 -0.5076  0.0709
  327MOL    H5939831   8.070   4.254   2.564  0.0522 -2.1575  0.8491
  327MOL    H6039832   8.060   4.207   2.726 -1.3678  0.0254  0.1700
  327MOL    H6139833   7.979   4.491   2.692  1.0881  2.4123  2.6774
  327MOL    C6239834   8.126   4.418   2.836  0.6141 -0.1669  0.2294
  327MOL    C6339835   8.146   4.556   2.890 -0.8964 -0.5016  0.4766
  327MOL   Cl6439836   8.254   4.542   3.037  0.5380 -0.3431 -0.0528
  327MOL    H6539837   8.222   4.368   2.821  1.3286  1.5087 -1.0258
  327MOL    H6639838   8.061   4.367   2.906  0.3461  0.5102  0.4847
  327MOL    H6739839   8.201   4.623   2.824 -2.3909  0.7353  0.4417
  327MOL    C6839840   8.020   4.630   2.938 -0.6048  0.0464  0.3166
  327MOL    C6939841   7.975   4.732   2.832 -0.2787 -0.0798  0.3428
  327MOL   Cl7039842   8.092   4.869   2.857  0.0172 -0.2676  0.2129
  327MOL    H7139843   8.035   4.682   3.033 -0.6265 -3.5898  2.3838
  327MOL    H7239844   7.941   4.559   2.961 -0.6063 -1.1304 -3.1104
  327MOL    H7339845   8.005   4.701   2.732  1.9207 -0.1641  1.0164
  327MOL    C7439846   7.831   4.775   2.842  0.2445  0.2476  0.6671
  327MOL    C7539847   7.728   4.673   2.783 -0.3839  0.0717 -0.2300
  327MOL   Cl7639848   7.747   4.692   2.611 -0.2476 -0.0707 -0.1351
  327MOL    H7739849   7.815   4.868   2.788 -0.2222  0.9784  2.0285
  327MOL    H7839850   7.819   4.789   2.950 -0.6080 -2.3264  0.9343
  327MOL    H7939851   7.765   4.570   2.784 -1.0414 -0.1693 -0.8472
  327MOL    C8039852   7.586   4.690   2.835 -0.1396  0.2610 -0.5363
  327MOL    C8139853   7.500   4.561   2.830  0.0235  0.4658 -0.1786
  327MOL   Cl8239854   7.590   4.431   2.918  0.4437 -0.0768  0.0057
  327MOL    H8339855   7.541   4.777   2.787 -0.6552  0.2070 -0.1615
  327MOL    H8439856   7.579   4.734   2.935 -2.0284 -1.3040  0.0419
  327MOL    H8539857   7.408   4.569   2.887  0.7644  0.8194  0.9913
  327MOL    C8639858   7.469   4.511   2.683 -0.5408 -0.1543 -0.0225
  327MOL    C8739859   7.395   4.617   2.588  0.0166  0.1095 -0.4933
  327MOL   Cl8839860   7.234   4.644   2.658 -0.2021 -0.4134  0.0414
  327MOL    H8939861   7.424   4.412   2.698  1.9030 -1.0319  1.7290
  327MOL    H9039862   7.566   4.494   2.636 -0.4355  1.7867 -0.5185
  327MOL    H9139863   7.451   4.711   2.583  0.8136 -0.3826 -0.8733
  327MOL    C9239864   7.360   4.565   2.441 -0.1194  0.2996 -0.3663
  327MOL    C9339865   7.483   4.539   2.344  0.2470 -0.1526 -0.2431
  327MOL   Cl9439866   7.555   4.700   2.320 -0.4670  0.2383 -0.3419
  327MOL    H9539867   7.286   4.632   2.398 -1.2266  0.5966  1.9245
  327MOL    H9639868   7.298   4.476   2.458  0.5566  0.0525  0.8522
  327MOL    H9739869   7.552   4.482   2.405  1.1528  1.5553  0.3583
  327MOL    C9839870   7.453   4.470   2.207 -0.0757  0.3575  0.4829
  327MOL    C9939871   7.571   4.428   2.120  0.9627  0.5671 -0.3098
  327MOL  Cl10039872   7.515   4.379   1.961 -0.0922 -0.0207  0.0132
  327MOL   H10139873   7.389   4.537   2.150 -2.4846 -3.3418 -1.3605
  327MOL   H10239874   7.400   4.380   2.238  1.3442  0.1305  2.3496
  327MOL   H10339875   7.638   4.514   2.110  0.7745  0.5443 -1.9695
  327MOL   C10439876   7.643   4.306   2.178 -0.0398 -0.1260  0.2972
  327MOL   C10539877   7.789   4.282   2.122  0.6292  0.0166 -0.1595
  327MOL  Cl10639878   7.844   4.124   2.175 -0.2304 -0.1609 -0.1374
  327MOL   H10739879   7.582   4.217   2.171 -1.6081  0.7884  1.8846
  327MOL   H10839880   7.660   4.322   2.285  1.7989  1.0292 -0.1422
  327MOL   H10939881   7.777   4.268   2.015  0.2976 -1.0715  0.0227
  327MOL   C11039882   7.897   4.379   2.165  0.3793 -0.6624  0.6336
  327MOL   C11139883   8.030   4.363   2.098  0.1696  0.1166 -0.5292
  327MOL  Cl11239884   8.144   4.499   2.162 -0.2845  0.3075 -0.3415
  327MOL   H11339885   7.914   4.372   2.273  2.7720  0.8877  0.4026
  327MOL   H11439886   7.863   4.476   2.130 -1.4605 -2.1677 -1.8886
  327MOL   H11539887   8.069   4.264   2.120 -1.1830 -0.3073  0.0050
  327MOL   C11639888   8.042   4.394   1.940  0.1487  0.3792 -0.9402
  327MOL   C11739889   8.182   4.385   1.883 -0.5112 -0.0993  0.5978
  327MOL  Cl11839890   8.249   4.221   1.913  0.1782  0.1455  0.1583
  327MOL   H11939891   7.985   4.485   1.920 -1.0646 -0.5637 -1.8273
  327MOL   H12039892   7.997   4.311   1.886 -0.2359 -0.4562  0.6409
  327MOL   H12139893   8.199   4.384   1.776 -1.4584 -0.1867  0.4455
  327MOL   H12239894   8.242   4.460   1.936 -2.1705  0.4809  1.6932
  328MOL     C139895   1.828   5.868   2.603  0.6293 -0.0703 -0.0023
  328MOL     C239896   1.812   5.953   2.476  0.5963  0.6506  0.5211
  328MOL    Cl339897   1.636   5.997   2.487 -0.3192  0.1381 -0.5084
  328MOL     H439898   1.752   5.789   2.603  0.0141  0.4189 -4.3649
  328MOL     H539899   1.924   5.816   2.604  0.0732 -1.2567 -3.1075
  328MOL     H639900   1.876   6.040   2.488  1.1285  0.9458 -3.9085
  328MOL     H739901   1.793   5.926   2.688 -1.1252 -0.8730 -0.1531
  328MOL     C839902   1.846   5.875   2.347 -0.0121 -0.6504  0.8136
  328MOL     C939903   1.869   5.970   2.226 -0.0912 -0.3685 -0.2796
  328MOL   Cl1039904   2.020   6.062   2.259  0.2892  0.0381  0.1700
  328MOL    H1139905   1.768   5.804   2.321 -1.3776  0.5269  1.6359
  328MOL    H1239906   1.933   5.814   2.372  2.2775  1.6176 -1.3031
  328MOL    H1339907   1.888   5.903   2.142 -1.7150  0.1865 -1.0979
  328MOL    C1439908   1.763   6.071   2.187  0.6364  0.4815  0.5825
  328MOL    C1539909   1.790   6.174   2.081  0.2204 -0.4041 -0.3256
  328MOL   Cl1639910   1.658   6.287   2.077 -0.1036 -0.0671  0.1700
  328MOL    H1739911   1.733   6.121   2.279  1.5656  0.4639  0.8964
  328MOL    H1839912   1.671   6.015   2.171 -0.0380  1.9839 -0.9931
  328MOL    H1939913   1.881   6.233   2.092  0.0635 -0.2412  0.1230
  328MOL    C2039914   1.795   6.102   1.942  0.4726  0.2515 -0.4177
  328MOL    C2139915   1.829   6.195   1.821  0.2468 -0.2415 -0.3310
  328MOL   Cl2239916   1.775   6.117   1.672  0.5584  0.1160 -0.0730
  328MOL    H2339917   1.703   6.045   1.934  0.1669  0.5795  0.6277
  328MOL    H2439918   1.880   6.034   1.949 -0.2205 -0.5207  0.5571
  328MOL    H2539919   1.782   6.293   1.811  0.6060 -0.0841 -0.4876
  328MOL    C2639920   1.988   6.210   1.806  0.6551 -0.3488  0.0801
  328MOL    C2739921   2.060   6.085   1.755 -0.7114 -0.0896  0.4527
  328MOL   Cl2839922   2.210   6.067   1.851  0.3455 -0.2612  0.0277
  328MOL    H2939923   2.031   6.232   1.903  1.2844 -4.5402  0.8254
  328MOL    H3039924   2.023   6.292   1.742  1.3967 -0.2859  0.5680
  328MOL    H3139925   1.996   5.999   1.776 -1.2243  0.2975  0.4703
  328MOL    C3239926   2.104   6.106   1.604  0.5696  0.1535  0.3955
  328MOL    C3339927   2.155   5.982   1.542  0.6302 -0.7794 -0.1898
  328MOL   Cl3439928   2.254   6.024   1.399  0.1614  0.0805 -0.0994
  328MOL    H3539929   2.188   6.174   1.591  0.2904  0.2409 -0.9604
  328MOL    H3639930   2.028   6.152   1.541  2.1986  1.0760 -0.9376
  328MOL    H3739931   2.220   5.930   1.613 -0.1849 -1.0760  0.3462
  328MOL    C3839932   2.035   5.897   1.492  0.0284  0.4017  0.4738
  328MOL    C3939933   2.067   5.746   1.457  0.1662  0.0233  0.0454
  328MOL   Cl4039934   2.121   5.653   1.596 -0.1254 -0.2763  0.2630
  328MOL    H4139935   1.993   5.952   1.408  1.6017  0.5058 -0.2582
  328MOL    H4239936   1.956   5.888   1.567  0.9991 -2.8491  1.2161
  328MOL    H4339937   1.969   5.706   1.427  1.2698  0.6469 -4.6733
  328MOL    C4439938   2.147   5.720   1.335 -0.5359 -0.1888  0.4060
  328MOL    C4539939   2.113   5.794   1.208  0.1923  0.2693 -1.0011
  328MOL   Cl4639940   1.953   5.734   1.147 -0.1106  0.1809 -0.0775
  328MOL    H4739941   2.146   5.615   1.308 -2.5820 -0.2261  0.5477
  328MOL    H4839942   2.252   5.734   1.363 -0.1288  0.3662 -1.3442
  328MOL    H4939943   2.116   5.901   1.230 -0.9558  0.2383 -0.7047
  328MOL    C5039944   2.222   5.750   1.110  0.2915 -0.2958 -0.8584
  328MOL    C5139945   2.211   5.775   0.958  0.6860  0.4554 -0.3468
  328MOL   Cl5239946   2.344   5.686   0.875  0.0399 -0.3304  0.3031
  328MOL    H5339947   2.231   5.642   1.124  0.6492 -0.2748 -0.9266
  328MOL    H5439948   2.310   5.801   1.148  1.0647 -1.7896 -0.5997
  328MOL    H5539949   2.117   5.732   0.923  0.8063  0.3179 -0.5010
  328MOL    C5639950   2.217   5.927   0.917 -0.3461 -0.1541  0.4714
  328MOL    C5739951   2.175   5.970   0.772  0.4553  0.2575 -0.1550
  328MOL   Cl5839952   2.187   6.149   0.764 -0.0831 -0.0752 -0.2814
  328MOL    H5939953   2.322   5.949   0.938  0.0748  0.7271 -2.2810
  328MOL    H6039954   2.167   5.984   0.995  0.8036  0.5999  0.6759
  328MOL    H6139955   2.244   5.922   0.703  1.3386  0.0902  0.8252
  328MOL    C6239956   2.023   5.940   0.744 -0.8975  0.1878 -0.1021
  328MOL    C6339957   1.995   5.958   0.595  0.1179  0.2435  0.6830
  328MOL   Cl6439958   1.817   5.962   0.580 -0.2851  0.2320  0.3874
  328MOL    H6539959   1.962   6.006   0.804 -0.5799  0.1824  0.2295
  328MOL    H6639960   2.002   5.834   0.761  1.8940 -0.2289  1.1247
  328MOL    H6739961   2.039   6.055   0.572  1.1392 -0.4603 -0.4127
  328MOL    C6839962   2.054   5.852   0.498 -0.2082  0.1366  0.4916
  328MOL    C6939963   2.015   5.850   0.356 -0.2161 -0.0833 -0.8316
  328MOL   Cl7039964   2.094   5.704   0.293  0.3303  0.2494  0.2536
  328MOL    H7139965   2.026   5.754   0.537 -0.0580 -0.3604 -0.6352
  328MOL    H7239966   2.162   5.857   0.512 -0.1645 -0.2826  0.3080
  328MOL    H7339967   1.908   5.828   0.350 -0.0133 -1.8329  1.4139
  328MOL    C7439968   2.049   5.973   0.266 -1.0968  0.3684 -0.4119
  328MOL    C7539969   2.192   6.023   0.272  0.0792 -0.1241  0.0589
  328MOL   Cl7639970   2.231   6.115   0.419  0.0120 -0.2114  0.1864
  328MOL    H7739971   1.988   6.058   0.295 -1.4328 -0.5154  1.5360
  328MOL    H7839972   2.019   5.951   0.164 -2.1211 -0.1509 -0.0077
  328MOL    H7939973   2.256   5.935   0.280 -2.5518 -2.0414  0.6239
  328MOL    C8039974   2.232   6.106   0.150  0.3049  0.9627 -0.0446
  328MOL    C8139975   2.377   6.153   0.153 -0.0514  0.0292  0.2308
  328MOL   Cl8239976   2.388   6.286   0.050  0.5266 -0.1822 -0.0923
  328MOL    H8339977   2.161   6.189   0.152 -0.7539  0.0716 -0.1549
  328MOL    H8439978   2.218   6.047   0.060 -0.5187  0.7850  0.1882
  328MOL    H8539979   2.400   6.208   0.244  1.3522  0.8832 -0.6121
  328MOL    C8639980   2.476   6.040   0.108 -0.0583  0.2513  0.4464
  328MOL    C8739981   2.620   6.080   0.140  0.6913  0.7294  0.7280
  328MOL   Cl8839982   2.742   5.983   0.055  0.1443 -0.1082 -0.3069
  328MOL    H8939983   2.478   6.043   8.525  1.0564  0.7729  0.4698
  328MOL    H9039984   2.451   5.939   0.141  2.7850  0.1547  2.5562
  328MOL    H9139985   2.630   6.187   0.122 -0.9269  0.5167 -1.6044
  328MOL    C9239986   2.652   6.053   0.289 -0.1310 -0.1722 -0.0878
  328MOL    C9339987   2.787   6.088   0.351 -0.6262  0.0474 -0.7822
  328MOL   Cl9439988   2.779   6.029   0.521  0.1453 -0.0406 -0.0027
  328MOL    H9539989   2.644   5.944   0.295  0.6083 -0.2050  0.4455
  328MOL    H9639990   2.572   6.096   0.350  0.4937 -0.5657  1.0201
  328MOL    H9739991   2.862   6.025   0.303 -0.6938 -0.0221 -0.7953
  328MOL    C9839992   2.837   6.234   0.368 -0.3881  0.2133 -0.7549
  328MOL    C9939993   2.897   6.289   0.239 -0.0668 -0.1989  0.1467
  328MOL  Cl10039994   3.044   6.190   0.204  0.1296 -0.4580  0.2412
  328MOL   H10139995   2.913   6.235   0.445  0.5114  0.4814 -1.6329
  328MOL   H10239996   2.757   6.299   0.405 -2.5764 -1.3143 -2.6274
  328MOL   H10339997   2.822   6.279   0.161  0.5376 -0.2709 -0.4333
  328MOL   C10439998   2.948   6.432   0.237  0.3503  0.3976  0.1837
  328MOL   C10539999   2.846   6.536   0.276  0.1574  0.3479 -0.0555
  328MOL  Cl10640000   2.707   6.529   0.166 -0.2469 -0.2038  0.3464
  328MOL   H10740001   2.981   6.452   0.135 -0.9273 -0.8927 -0.4960
  328MOL   H10840002   3.036   6.442   0.300  0.2676  0.7789  0.2383
  328MOL   H10940003   2.798   6.508   0.370  1.1433  0.8353  0.5943
  328MOL   C11040004   2.908   6.679   0.274  0.3544  0.4464 -0.4595
  328MOL   C11140005   2.822   6.792   0.333 -0.0947 -0.4319  0.5485
  328MOL  Cl11240006   2.851   6.940   0.236  0.1455  0.0227 -0.3177
  328MOL   H11340007   2.938   6.698   0.171 -0.4461  1.6824 -0.4796
  328MOL   H11440008   3.003   6.676   0.328  0.2281 -1.1844 -0.3245
  328MOL   H11540009   2.715   6.771   0.329 -0.3543  1.1234 -1.4546
  328MOL   C11640010   2.860   6.820   0.477  0.5974  0.6344  0.4332
  328MOL   C11740011   2.844   6.702   0.576  0.4349  0.0327 -0.3249
  328MOL  Cl11840012   2.988   6.608   0.595 -0.0454 -0.2744 -0.0783
  328MOL   H11940013   2.787   6.897   0.503  0.7862  0.9631 -0.0161
  328MOL   H12040014   2.955   6.870   0.490  0.2630  1.2940  0.3553
  328MOL   H12140015   2.828   6.752   0.671  2.2292  0.2166 -0.1055
  328MOL   H12240016   2.770   6.624   0.556  0.9727 -0.5675  0.0388
  329MOL     C140017   0.736   1.885   2.453 -0.8927  0.2817 -0.0284
  329MOL     C240018   0.772   1.762   2.540  0.3150 -0.0944 -0.5175
  329MOL    Cl340019   0.722   1.783   2.714 -0.2524  0.1962 -0.2065
  329MOL     H440020   0.786   1.974   2.491  1.0309 -0.0895 -1.6204
  329MOL     H540021   0.765   1.878   2.349 -1.5676 -1.9627 -0.1076
  329MOL     H640022   0.714   1.677   2.502 -0.8058 -0.3126  1.5959
  329MOL     H740023   0.627   1.892   2.452 -0.9044  0.6176  1.6607
  329MOL     C840024   0.923   1.731   2.538 -0.9802  0.1884 -0.1111
  329MOL     C940025   0.959   1.581   2.555 -0.4584  0.1012  0.1108
  329MOL   Cl1040026   0.921   1.494   2.403 -0.3704 -0.2604 -0.2799
  329MOL    H1140027   0.978   1.787   2.614 -0.6079 -0.3617  0.0251
  329MOL    H1240028   0.968   1.772   2.448 -2.2618 -0.6029 -1.1164
  329MOL    H1340029   1.067   1.595   2.558 -0.3109 -0.3065 -2.0492
  329MOL    C1440030   0.905   1.496   2.671 -0.4203 -0.5220 -0.0339
  329MOL    C1540031   0.968   1.541   2.802 -0.0046  0.2275  0.8853
  329MOL   Cl1640032   1.140   1.503   2.802 -0.1833  0.0714  0.2302
  329MOL    H1740033   0.918   1.389   2.663 -0.3885 -0.4050 -1.6735
  329MOL    H1840034   0.797   1.504   2.678 -0.3083 -0.7465  2.6590
  329MOL    H1940035   0.963   1.650   2.797 -1.5432  0.0512 -2.1999
  329MOL    C2040036   0.897   1.479   2.921 -0.6806 -0.0795  0.5981
  329MOL    C2140037   0.767   1.544   2.968  0.0469  0.5986 -0.2998
  329MOL   Cl2240038   0.811   1.697   3.050 -0.0703  0.3739 -0.1153
  329MOL    H2340039   0.967   1.476   3.005  1.0457 -0.2027 -0.8147
  329MOL    H2440040   0.893   1.372   2.901  0.2859 -0.2181  1.0914
  329MOL    H2540041   0.705   1.581   2.886  1.8509  3.3986 -0.4573
  329MOL    C2640042   0.684   1.460   3.066  0.0490 -0.4057 -0.7324
  329MOL    C2740043   0.584   1.367   2.991 -0.3495  0.4474 -0.1260
  329MOL   Cl2840044   0.479   1.450   2.877  0.1592 -0.0582  0.2193
  329MOL    H2940045   0.626   1.521   3.135 -0.6289 -2.0983  0.2416
  329MOL    H3040046   0.749   1.400   3.130  0.3418  0.5506 -0.1314
  329MOL    H3140047   0.635   1.289   2.935 -1.5981  0.0243 -0.6732
  329MOL    C3240048   0.497   1.298   3.094  0.2137 -0.2068 -0.7439
  329MOL    C3340049   0.392   1.203   3.030 -0.3180 -0.0418  0.2940
  329MOL   Cl3440050   0.290   1.137   3.148  0.2810  0.4122  0.0816
  329MOL    H3540051   0.446   1.367   3.161 -1.3214 -0.5007 -1.5893
  329MOL    H3640052   0.553   1.233   3.161 -0.6078 -1.6122 -1.4158
  329MOL    H3740053   0.322   1.255   2.964 -0.8627 -1.5205 -0.3218
  329MOL    C3840054   0.442   1.088   2.941  1.1899 -0.1834  0.2064
  329MOL    C3940055   0.335   1.000   2.870 -0.2161 -0.4120 -0.0961
  329MOL   Cl4040056   0.414   0.864   2.787 -0.4356 -0.1372  0.3130
  329MOL    H4140057   0.496   1.019   3.006 -1.4301 -1.7346  0.8172
  329MOL    H4240058   0.510   1.133   2.869  3.0271  0.5024  2.2967
  329MOL    H4340059   0.282   0.948   2.950  0.0309 -0.0635  0.3023
  329MOL    C4440060   0.235   1.066   2.776  0.2780 -0.1914 -0.6155
  329MOL    C4540061   0.295   1.120   2.644  0.2486 -0.4954  0.5851
  329MOL   Cl4640062   0.315   1.295   2.663  0.0636  0.0958 -0.2358
  329MOL    H4740063   0.189   1.152   2.824  1.1608  0.5945 -1.1524
  329MOL    H4840064   0.161   0.989   2.753 -1.2694  0.7992  0.9366
  329MOL    H4940065   0.393   1.073   2.638  0.4786  0.1178 -0.6505
  329MOL    C5040066   0.207   1.081   2.521 -0.1982 -0.5568  0.3316
  329MOL    C5140067   0.258   1.133   2.383 -0.0780 -0.0108 -1.2555
  329MOL   Cl5240068   0.113   1.132   2.283 -0.2178 -0.0003 -0.1261
  329MOL    H5340069   0.109   1.122   2.542 -0.6723 -0.3399 -2.1437
  329MOL    H5440070   0.202   0.972   2.510  1.3784 -0.7284  1.0757
  329MOL    H5540071   0.278   1.239   2.395 -0.2181 -0.1339  0.1520
  329MOL    C5640072   0.365   1.055   2.312  0.0623 -0.8950 -0.6612
  329MOL    C5740073   0.462   1.119   2.218  0.0532  0.2838  0.9220
  329MOL   Cl5840074   0.521   1.270   2.290  0.0868  0.0546 -0.0355
  329MOL    H5940075   0.316   0.966   2.271 -0.2379 -1.3201  0.5911
  329MOL    H6040076   0.433   1.012   2.385  0.1138 -2.7723 -1.7713
  329MOL    H6140077   0.543   1.051   2.192  0.3694  1.8608 -2.6152
  329MOL    C6240078   0.385   1.138   2.085 -0.0209  0.4841 -0.8787
  329MOL    C6340079   0.340   1.010   2.000  0.2144  0.3016  0.3737
  329MOL   Cl6440080   0.489   0.919   1.953  0.2353  0.0787 -0.0922
  329MOL    H6540081   0.453   1.198   2.024  2.2098 -0.9930  0.1010
  329MOL    H6640082   0.298   1.204   2.085 -1.2650 -1.1188 -1.5556
  329MOL    H6740083   0.277   0.949   2.065  0.6073  0.8340  1.2643
  329MOL    C6840084   0.276   1.050   1.861  0.1751 -0.1324 -0.7985
  329MOL    C6940085   0.137   1.111   1.867  0.4555  0.0484 -0.0656
  329MOL   Cl7040086   0.021   0.981   1.912  0.0074  0.1617  0.2261
  329MOL    H7140087   0.289   0.956   1.808 -3.7266  0.5748 -3.1936
  329MOL    H7240088   0.352   1.113   1.814  0.1466  1.2595  0.9304
  329MOL    H7340089   0.123   1.202   1.926 -0.9933 -0.8218  0.9469
  329MOL    C7440090   0.101   1.163   1.721  0.3475 -0.1227  0.4209
  329MOL    C7540091   8.487   1.219   1.692  0.5959 -0.7316 -0.3296
  329MOL   Cl7640092   8.467   1.228   1.517  0.1857  0.3091  0.0688
  329MOL    H7740093   0.120   1.078   1.656  2.5024  0.6900 -0.0528
  329MOL    H7840094   0.174   1.235   1.684 -0.5013  0.3183 -0.4048
  329MOL    H7940095   8.406   1.157   1.733 -1.1494  2.3805  1.1500
  329MOL    C8040096   8.461   1.359   1.755  0.6011  0.7790 -0.1153
  329MOL    C8140097   8.329   1.434   1.726  0.5404 -0.4395  0.2138
  329MOL   Cl8240098   8.345   1.600   1.793 -0.2757  0.3241  0.0288
  329MOL    H8340099   0.012   1.416   1.702  0.6181  0.0858 -0.8423
  329MOL    H8440100   8.471   1.355   1.864  0.9927  1.5479 -0.1163
  329MOL    H8540101   8.321   1.442   1.617  2.0528 -0.4694  0.0951
  329MOL    C8640102   8.208   1.372   1.797 -0.1374  0.2875 -0.0206
  329MOL    C8740103   8.066   1.441   1.771  0.6957  0.2434  0.1454
  329MOL   Cl8840104   7.960   1.371   1.897  0.2713  0.3810 -0.3056
  329MOL    H8940105   8.229   1.360   1.903 -3.6602  0.2998  0.7403
  329MOL    H9040106   8.185   1.271   1.764 -0.9292  0.2935  0.4953
  329MOL    H9140107   8.084   1.547   1.792 -1.0174  0.6961 -0.5787
  329MOL    C9240108   8.004   1.410   1.632  0.7974 -0.3344  0.2245
  329MOL    C9340109   7.893   1.507   1.591  0.3264 -0.6510  0.8042
  329MOL   Cl9440110   7.768   1.406   1.511  0.2183 -0.2165 -0.0282
  329MOL    H9540111   7.965   1.309   1.642 -0.8026  0.2458 -0.0821
  329MOL    H9640112   8.076   1.408   1.550 -0.2870  0.2465 -0.7594
  329MOL    H9740113   7.844   1.530   1.685 -0.2790  0.2589  0.2719
  329MOL    C9840114   7.932   1.625   1.506  0.0603 -0.2246  0.4295
  329MOL    C9940115   8.034   1.724   1.569 -0.2332  0.6971 -0.0758
  329MOL  Cl10040116   7.958   1.805   1.705 -0.4922  0.2397 -0.0468
  329MOL   H10140117   7.848   1.684   1.468  1.4985  2.5126  1.3964
  329MOL   H10240118   7.978   1.580   1.418  1.8286  2.1009  0.1147
  329MOL   H10340119   8.114   1.668   1.617  0.1132 -0.4514 -1.9495
  329MOL   C10440120   8.102   1.826   1.480  0.6705  1.1441  0.4064
  329MOL   C10540121   8.181   1.773   1.357 -0.0317  0.2781 -0.2765
  329MOL  Cl10640122   8.297   1.650   1.420  0.2592  0.3050 -0.1655
  329MOL   H10740123   8.178   1.878   1.537  0.6853  0.0659  1.3728
  329MOL   H10840124   8.017   1.891   1.458 -1.2280 -0.7154  2.1383
  329MOL   H10940125   8.113   1.714   1.295 -0.0180 -1.9744  1.8187
  329MOL   C11040126   8.249   1.863   1.255 -0.5675 -0.5541  1.0871
  329MOL   C11140127   8.154   1.953   1.179  0.0804 -0.3633 -0.0194
  329MOL  Cl11240128   8.030   1.847   1.095 -0.0304  0.1674  0.0679
  329MOL   H11340129   8.314   1.814   1.182 -0.2397  2.3021 -0.6220
  329MOL   H11440130   8.307   1.936   1.312 -1.6427  0.4688  0.8752
  329MOL   H11540131   8.104   2.019   1.249  1.5984  1.5326 -0.6894
  329MOL   C11640132   8.225   2.029   1.063 -0.3283 -0.8457 -0.6211
  329MOL   C11740133   8.336   2.122   1.117 -0.1591  0.2651  0.1669
  329MOL  Cl11840134   8.285   2.240   1.236 -0.0345 -0.0226 -0.2912
  329MOL   H11940135   8.150   2.098   1.023  3.0450  1.4626 -3.2570
  329MOL   H12040136   8.264   1.958   0.991 -2.9385 -3.4055  0.3945
  329MOL   H12140137   8.423   2.068   1.155 -0.3122 -1.4584 -1.8316
  329MOL   H12240138   8.374   2.171   1.028  2.3480 -0.3016  0.8943
  330MOL     C140139   7.626   2.395   8.505 -0.3896  0.4618 -0.0844
  330MOL     C240140   7.779   2.427   8.502  0.2510  0.0224 -0.4847
  330MOL    Cl340141   7.842   2.500   0.132 -0.1624  0.2416  0.5246
  330MOL     H440142   7.578   2.493   8.501 -1.6439 -0.1509 -0.3935
  330MOL     H540143   7.589   2.350   8.412 -0.5797  3.2876 -1.4420
  330MOL     H640144   7.837   2.338   8.478  1.4697  0.9529 -1.0926
  330MOL     H740145   7.604   2.338   0.070  1.4095  1.3227  0.9209
  330MOL     C840146   7.815   2.524   8.390  0.7423 -0.4508 -0.7018
  330MOL     C940147   7.766   2.490   8.251  0.7197 -0.4729  0.2603
  330MOL   Cl1040148   7.844   2.341   8.186  0.0512  0.4264  0.3452
  330MOL    H1140149   7.924   2.533   8.389  0.5790  1.8510 -0.4164
  330MOL    H1240150   7.783   2.626   8.414  0.0229 -1.3928  2.5663
  330MOL    H1340151   7.660   2.463   8.251  1.0161 -1.7389  1.8229
  330MOL    C1440152   7.789   2.607   8.148 -0.0927 -0.7495  0.7713
  330MOL    C1540153   7.761   2.567   8.000  0.3405  0.1566  0.1487
  330MOL   Cl1640154   7.784   2.713   7.893 -0.1532 -0.2807  0.0551
  330MOL    H1740155   7.889   2.650   8.156 -0.8394  1.0937  0.4942
  330MOL    H1840156   7.722   2.687   8.176  0.4948  0.2638 -0.6710
  330MOL    H1940157   7.839   2.493   7.981  1.9476  1.4649  1.4628
  330MOL    C2040158   7.627   2.501   7.946 -0.6718 -0.4753  0.6057
  330MOL    C2140159   7.636   2.352   7.904 -0.0234 -0.6261 -0.0022
  330MOL   Cl2240160   7.738   2.339   7.757  0.0079 -0.3874 -0.2751
  330MOL    H2340161   7.599   2.546   7.851  0.2033 -1.4195 -0.1053
  330MOL    H2440162   7.545   2.529   8.012 -1.0906  2.2676 -0.9863
  330MOL    H2540163   7.672   2.283   7.980 -0.7711 -1.3415 -0.2865
  330MOL    C2640164   7.490   2.300   7.870 -1.0115 -0.3036  0.0055
  330MOL    C2740165   7.476   2.150   7.836 -0.4217  0.1479 -0.4718
  330MOL   Cl2840166   7.306   2.110   7.800 -0.1867 -0.1107 -0.2036
  330MOL    H2940167   7.454   2.364   7.789 -3.6609 -1.3765  0.2882
  330MOL    H3040168   7.418   2.315   7.951  1.0096 -0.4533  1.8802
  330MOL    H3140169   7.540   2.134   7.749 -2.1716 -0.4624 -1.6608
  330MOL    C3240170   7.518   2.055   7.959  0.1408 -0.0149 -0.3786
  330MOL    C3340171   7.435   2.071   8.090 -0.1266 -0.0624 -0.1026
  330MOL   Cl3440172   7.505   2.202   8.189 -0.1599 -0.1028 -0.2893
  330MOL    H3540173   7.624   2.061   7.983  0.2956  0.2561 -1.1282
  330MOL    H3640174   7.499   1.956   7.917 -0.3880  0.0558 -0.3024
  330MOL    H3740175   7.335   2.107   8.066 -0.1706  0.6012  1.0557
  330MOL    C3840176   7.423   1.939   8.170 -0.4469  0.1263 -0.4134
  330MOL    C3940177   7.359   1.939   8.309  0.9149  0.0283  0.0256
  330MOL   Cl4040178   7.363   1.766   8.367 -0.5211  0.3887  0.1314
  330MOL    H4140179   7.522   1.896   8.181 -1.9208 -3.0067  1.2690
  330MOL    H4240180   7.370   1.871   8.102  0.6349 -0.7477 -0.3905
  330MOL    H4340181   7.429   1.991   8.374 -0.3310  1.8816 -0.0780
  330MOL    C4440182   7.208   1.983   8.325 -0.6700  0.3256  0.1370
  330MOL    C4540183   7.185   2.135   8.311  0.5983 -0.1863 -0.5044
  330MOL   Cl4640184   7.217   2.205   8.470 -0.0340 -0.2554 -0.1033
  330MOL    H4740185   7.184   1.955   8.427 -0.4632 -1.5686 -0.3150
  330MOL    H4840186   7.147   1.919   8.261  0.6762 -1.5263  0.6474
  330MOL    H4940187   7.257   2.188   8.249 -1.5333  2.0092 -1.1805
  330MOL    C5040188   7.051   2.181   8.252 -0.2865  0.6412 -0.4023
  330MOL    C5140189   7.043   2.333   8.230 -0.4001 -0.4755  0.3257
  330MOL   Cl5240190   6.878   2.358   8.164  0.0513  0.0154  0.0376
  330MOL    H5340191   6.967   2.155   8.317  1.0682 -0.1317  1.0554
  330MOL    H5440192   7.035   2.144   8.150 -1.3551 -0.5044  0.1617
  330MOL    H5540193   7.062   2.404   8.310 -0.6144 -0.0886  0.0305
  330MOL    C5640194   7.146   2.384   8.124 -0.3784  0.7017 -0.7104
  330MOL    C5740195   7.137   2.519   8.061 -0.2855 -0.5253  0.1462
  330MOL   Cl5840196   7.079   2.628   8.190  0.0748  0.5369  0.1719
  330MOL    H5940197   7.152   2.308   8.046  0.4525 -1.0217  0.9971
  330MOL    H6040198   7.240   2.376   8.178  0.2589  0.1953 -1.8900
  330MOL    H6140199   7.238   2.555   8.039 -1.1801  1.1369 -1.3564
  330MOL    C6240200   7.052   2.539   7.935  0.6588 -0.0925 -0.0920
  330MOL    C6340201   7.107   2.494   7.803  0.1154  0.1892  0.0805
  330MOL   Cl6440202   7.275   2.549   7.783 -0.1407  0.4538  0.1642
  330MOL    H6540203   7.031   2.644   7.917  1.9452  0.3086  0.6969
  330MOL    H6640204   6.953   2.493   7.943  1.4655 -1.6134  1.4780
  330MOL    H6740205   7.112   2.385   7.800  1.7099  0.2719 -0.8667
  330MOL    C6840206   7.020   2.545   7.681 -0.6081 -0.1922 -0.4531
  330MOL    C6940207   7.002   2.441   7.565  0.3400  0.3035  0.2453
  330MOL   Cl7040208   7.156   2.381   7.499  0.1173  0.0901 -0.7285
  330MOL    H7140209   7.062   2.639   7.646 -1.2756  1.0403  1.9321
  330MOL    H7240210   6.916   2.562   7.711 -0.5570  0.5319 -0.6929
  330MOL    H7340211   6.957   2.350   7.606  0.6338  0.3027  0.5683
  330MOL    C7440212   6.916   2.493   7.447 -0.1593 -0.3537  0.0096
  330MOL    C7540213   6.897   2.399   7.332 -0.0803  0.0106 -0.0448
  330MOL   Cl7640214   6.806   2.507   7.214  0.5013  0.0549 -0.1150
  330MOL    H7740215   6.968   2.577   7.403  0.0048 -0.2392  0.4200
  330MOL    H7840216   6.818   2.535   7.469 -0.4397  0.8824 -3.3970
  330MOL    H7940217   6.992   2.373   7.286 -0.0442 -0.4081  0.2602
  330MOL    C8040218   6.796   2.286   7.369 -0.1066  0.2480  0.7453
  330MOL    C8140219   6.741   2.200   7.248  0.6001  0.9038 -0.0388
  330MOL   Cl8240220   6.649   2.074   7.329 -0.3831 -0.1997 -0.1291
  330MOL    H8340221   6.709   2.335   7.413 -0.4336  1.0090 -0.7296
  330MOL    H8440222   6.833   2.213   7.441 -0.0036  0.1725  0.6160
  330MOL    H8540223   6.670   2.257   7.189  0.4566  0.7874  0.0202
  330MOL    C8640224   6.840   2.125   7.166 -0.1566  0.5032 -0.1098
  330MOL    C8740225   6.916   2.218   7.061 -0.2990  0.7660  0.4547
  330MOL   Cl8840226   6.802   2.260   6.928 -0.4336  0.0160  0.1788
  330MOL    H8940227   6.799   2.047   7.102 -0.1086 -0.3170  0.8411
  330MOL    H9040228   6.909   2.071   7.232  0.4226  1.4278  0.0518
  330MOL    H9140229   6.949   2.318   7.089  1.5711  0.7131 -1.4435
  330MOL    C9240230   7.042   2.145   7.003  0.6614 -0.6269 -0.9039
  330MOL    C9340231   7.167   2.139   7.096  0.2035 -0.6326  0.0302
  330MOL   Cl9440232   7.228   2.301   7.125 -0.3054  0.4494 -0.3064
  330MOL    H9540233   7.073   2.176   6.903 -0.3304 -0.7038 -1.2400
  330MOL    H9640234   7.004   2.043   6.995  1.3396 -1.0370  0.8305
  330MOL    H9740235   7.133   2.093   7.188  1.1306  0.2538  0.8268
  330MOL    C9840236   7.273   2.048   7.030 -0.3922  0.1811  0.1906
  330MOL    C9940237   7.407   2.054   7.109 -0.1091  0.4305 -0.1030
  330MOL  Cl10040238   7.531   1.944   7.041  0.5109  0.4830  0.2256
  330MOL   H10140239   7.297   2.090   6.932  2.7531  0.6696  1.1349
  330MOL   H10240240   7.247   1.944   7.007 -0.2722  0.7015 -2.4213
  330MOL   H10340241   7.453   2.151   7.094  2.0795 -0.0369  3.1030
  330MOL   C10440242   7.400   2.021   7.261 -0.4533 -0.4321 -0.8192
  330MOL   C10540243   7.534   2.032   7.338 -0.6631  1.0403  0.5907
  330MOL  Cl10640244   7.505   1.985   7.507 -0.1744 -0.1969 -0.5063
  330MOL   H10740245   7.360   1.921   7.271 -0.6438 -0.4133 -1.3806
  330MOL   H10840246   7.318   2.082   7.301 -0.6537 -0.5050 -1.1136
  330MOL   H10940247   7.600   1.953   7.302 -0.2486  1.1120  1.1886
  330MOL   C11040248   7.600   2.172   7.338  0.1484  0.0164  0.3288
  330MOL   C11140249   7.742   2.170   7.395 -0.1564 -0.6696 -0.9083
  330MOL  Cl11240250   7.793   2.339   7.382 -0.0989 -0.2308  0.3042
  330MOL   H11340251   7.522   2.223   7.394 -0.3426  1.4964 -1.6394
  330MOL   H11440252   7.594   2.230   7.246 -2.5258  2.9897  2.2703
  330MOL   H11540253   7.737   2.149   7.502 -0.5039  1.8596 -0.3924
  330MOL   C11640254   7.845   2.068   7.331  0.8357 -0.2344  0.1325
  330MOL   C11740255   7.847   2.059   7.180  0.3501 -0.6175  0.3061
  330MOL  Cl11840256   7.979   1.951   7.138 -0.0247  0.5387  0.0561
  330MOL   H11940257   7.827   1.969   7.371 -2.1929 -0.2590 -1.0856
  330MOL   H12040258   7.944   2.104   7.360  0.8368  0.2478 -0.4402
  330MOL   H12140259   7.754   2.036   7.128  2.0226 -0.9563 -2.6747
  330MOL   H12240260   7.872   2.159   7.145  3.0537 -1.5844 -0.6728
  331MOL     C140261   0.231   5.137   1.629 -0.0646  0.1077 -0.7087
  331MOL     C240262   0.382   5.170   1.594  0.4359 -0.0426  0.6576
  331MOL    Cl340263   0.483   5.117   1.726  0.0391 -0.2239 -0.2678
  331MOL     H440264   0.170   5.172   1.546 -0.6848  3.3860  1.0487
  331MOL     H540265   0.214   5.041   1.677 -1.0658 -0.5247 -2.2840
  331MOL     H640266   0.409   5.118   1.502 -0.5898  0.2201  0.1989
  331MOL     H740267   0.194   5.211   1.700 -2.3070 -0.1350 -1.5871
  331MOL     C840268   0.414   5.316   1.565  0.3876 -0.1359 -1.1012
  331MOL     C940269   0.347   5.371   1.441  0.5071 -0.4775 -0.1370
  331MOL   Cl1040270   0.442   5.315   1.304 -0.1188  0.0368 -0.0153
  331MOL    H1140271   0.520   5.339   1.575 -0.0819  0.7990  2.4111
  331MOL    H1240272   0.377   5.370   1.653 -1.6311 -2.3364 -0.5564
  331MOL    H1340273   0.246   5.338   1.417 -0.6449  0.9320  2.4808
  331MOL    C1440274   0.352   5.529   1.463  0.1562  1.2181 -0.1882
  331MOL    C1540275   0.254   5.601   1.558  0.1199  0.2563  0.0121
  331MOL   Cl1640276   0.093   5.573   1.502 -0.0773  0.3964  0.3582
  331MOL    H1740277   0.330   5.578   1.368 -3.4727  0.3851  0.1544
  331MOL    H1840278   0.452   5.567   1.487  0.4937 -0.5737  1.3919
  331MOL    H1940279   0.245   5.545   1.651 -0.4579 -0.0212 -0.2075
  331MOL    C2040280   0.284   5.755   1.587  0.1994 -0.2781 -0.5473
  331MOL    C2140281   0.393   5.784   1.692  0.4838 -0.6107  0.2489
  331MOL   Cl2240282   0.325   5.727   1.844 -0.0807  0.2631 -0.0655
  331MOL    H2340283   0.196   5.811   1.618  0.5334 -0.3859  0.6149
  331MOL    H2440284   0.316   5.790   1.488  1.1311 -2.6933 -1.1350
  331MOL    H2540285   0.479   5.728   1.656  0.1594 -0.2276 -1.1576
  331MOL    C2640286   0.441   5.926   1.707  0.1807  0.2565  0.4182
  331MOL    C2740287   0.569   5.947   1.798 -0.0091 -0.4878  0.9488
  331MOL   Cl2840288   0.595   6.116   1.822 -0.0202  0.3679 -0.0439
  331MOL    H2940289   0.358   5.984   1.748 -1.3953 -1.8826  0.3558
  331MOL    H3040290   0.457   5.975   1.611 -0.1936  1.7516  1.0969
  331MOL    H3140291   0.554   5.908   1.899  1.0330 -2.6447  0.2968
  331MOL    C3240292   0.701   5.883   1.733 -0.3213 -0.0515 -0.0137
  331MOL    C3340293   0.817   5.860   1.835 -0.3080  0.2327  0.4613
  331MOL   Cl3440294   0.977   5.859   1.759 -0.1561 -0.1407  0.0087
  331MOL    H3540295   0.728   5.946   1.649 -1.9343  1.4057  0.5495
  331MOL    H3640296   0.695   5.788   1.680  2.4332 -0.2606 -0.0469
  331MOL    H3740297   0.817   5.948   1.899 -2.9269 -1.1845  2.5420
  331MOL    C3840298   0.804   5.734   1.918  0.7925 -0.2838  0.4449
  331MOL    C3940299   0.798   5.598   1.830 -0.2292 -0.6161 -0.5859
  331MOL   Cl4040300   0.635   5.544   1.783  0.3156 -0.3990 -0.1102
  331MOL    H4140301   0.710   5.746   1.973 -0.0681  0.9697 -1.2956
  331MOL    H4240302   0.892   5.726   1.982 -0.0751  2.7414  2.1315
  331MOL    H4340303   0.857   5.606   1.739  0.6159 -3.8510 -0.3871
  331MOL    C4440304   0.854   5.472   1.900 -0.1716  0.4178  0.1926
  331MOL    C4540305   0.911   5.359   1.804  0.6314 -0.3081  0.3391
  331MOL   Cl4640306   1.078   5.407   1.750 -0.0517 -0.1446  0.2085
  331MOL    H4740307   0.789   5.435   1.979 -0.2728  0.3462  0.0750
  331MOL    H4840308   0.935   5.504   1.967  0.7157  1.7198 -1.4456
  331MOL    H4940309   0.930   5.269   1.864  1.0840 -1.2122 -1.1196
  331MOL    C5040310   0.819   5.316   1.679  0.1209  0.0455  0.1979
  331MOL    C5140311   0.885   5.215   1.573 -1.0479  0.2643 -0.1078
  331MOL   Cl5240312   0.770   5.178   1.444  0.5265  0.3326  0.0539
  331MOL    H5340313   0.784   5.400   1.619 -0.5200 -1.6272 -1.8027
  331MOL    H5440314   0.723   5.282   1.718  0.2712  1.0874  1.4943
  331MOL    H5540315   0.973   5.260   1.527  0.3416 -2.5918 -0.2976
  331MOL    C5640316   0.921   5.077   1.631 -0.2819  0.2395  0.1879
  331MOL    C5740317   0.973   4.971   1.530 -0.3043 -0.0590  0.4347
  331MOL   Cl5840318   0.995   4.827   1.614 -0.4136  0.2373  0.0342
  331MOL    H5940319   0.839   5.042   1.694 -0.6669 -1.4155 -1.2132
  331MOL    H6040320   1.007   5.088   1.698  0.3254 -2.5739 -0.0695
  331MOL    H6140321   0.889   4.948   1.464  0.3141  1.4249 -0.8900
  331MOL    C6240322   1.106   5.018   1.462  0.3062 -0.4885 -0.5899
  331MOL    C6340323   1.169   4.907   1.376 -0.4017  0.1873 -0.1646
  331MOL   Cl6440324   1.331   4.957   1.323 -0.1187  0.0111 -0.0549
  331MOL    H6540325   1.180   5.056   1.532 -0.2062 -0.0079 -0.3090
  331MOL    H6640326   1.080   5.101   1.397 -1.0718 -0.2151  0.2837
  331MOL    H6740327   1.189   4.824   1.444 -0.6046 -0.5126 -0.9516
  331MOL    C6840328   1.101   4.855   1.250  0.3169  0.2189 -0.1154
  331MOL    C6940329   1.172   4.732   1.186  0.0128  0.2144  0.1427
  331MOL   Cl7040330   1.089   4.705   1.028 -0.1423 -0.1882 -0.5979
  331MOL    H7140331   1.108   4.932   1.173  0.2840 -1.8169 -2.1978
  331MOL    H7240332   0.998   4.823   1.268  0.9487 -1.2093  1.0574
  331MOL    H7340333   1.274   4.742   1.150 -0.2283  0.0367 -0.5837
  331MOL    C7440334   1.156   4.605   1.273 -0.2646  0.4010  0.0827
  331MOL    C7540335   1.276   4.513   1.267  0.0311  0.1080  0.1344
  331MOL   Cl7640336   1.426   4.589   1.318 -0.0215  0.2917 -0.1052
  331MOL    H7740337   1.064   4.550   1.250 -1.0188  1.6273  0.1380
  331MOL    H7840338   1.142   4.617   1.381  1.7078 -1.8657  0.6290
  331MOL    H7940339   1.264   4.427   1.333 -1.1490 -0.0747 -0.2868
  331MOL    C8040340   1.296   4.439   1.122  0.0044  0.7962  0.4552
  331MOL    C8140341   1.381   4.307   1.120 -0.0328 -0.0503 -0.5283
  331MOL   Cl8240342   1.323   4.172   1.227 -0.1495  0.1791  0.0438
  331MOL    H8340343   1.343   4.509   1.052  0.4061 -2.1179 -2.3509
  331MOL    H8440344   1.192   4.421   1.093  0.3313 -3.5320  1.5772
  331MOL    H8540345   1.383   4.261   1.021  1.6502 -1.2558  0.0410
  331MOL    C8640346   1.532   4.335   1.140  0.0393  0.2516 -0.4760
  331MOL    C8740347   1.608   4.448   1.060 -0.0563 -0.9912  0.5382
  331MOL   Cl8840348   1.593   4.434   0.881 -0.1209  0.2496  0.0956
  331MOL    H8940349   1.584   4.239   1.131 -2.4797 -1.1497 -0.7396
  331MOL    H9040350   1.549   4.357   1.246  1.0481  0.3247 -0.6493
  331MOL    H9140351   1.568   4.542   1.098 -1.4141 -1.4113  0.1764
  331MOL    C9240352   1.755   4.459   1.100 -0.3786  0.4706  0.1218
  331MOL    C9340353   1.820   4.600   1.086 -0.0716 -0.8453 -0.3063
  331MOL   Cl9440354   1.815   4.665   0.913 -0.5724  0.3773  0.1350
  331MOL    H9540355   1.805   4.388   1.033 -1.2196  1.0493 -1.1551
  331MOL    H9640356   1.757   4.422   1.202 -1.5234  0.0066 -0.0063
  331MOL    H9740357   1.776   4.677   1.149  1.5912 -0.5329  0.5150
  331MOL    C9840358   1.971   4.591   1.141 -0.6740 -0.1112  0.8224
  331MOL    C9940359   2.059   4.708   1.123  0.6138 -0.6194 -0.3049
  331MOL  Cl10040360   2.216   4.668   1.203 -0.0990 -0.0510  0.0104
  331MOL   H10140361   2.019   4.514   1.081 -0.2743  0.9189 -0.2039
  331MOL   H10240362   1.970   4.558   1.245  0.9199 -2.5979  0.1020
  331MOL   H10340363   2.078   4.713   1.016 -1.0181  2.7021 -0.5043
  331MOL   C10440364   2.016   4.848   1.180  0.3888 -1.0555 -0.1314
  331MOL   C10540365   2.097   4.981   1.146 -0.1121 -0.1837  0.3141
  331MOL  Cl10640366   2.088   4.981   0.967 -0.0071 -0.0758 -0.2568
  331MOL   H10740367   2.003   4.843   1.288  0.6422 -1.3111 -0.1110
  331MOL   H10840368   1.915   4.867   1.144  0.1881 -0.4306  0.7718
  331MOL   H10940369   2.038   5.068   1.174 -1.6452 -1.1516  0.0937
  331MOL   C11040370   2.237   4.985   1.202 -0.0436 -0.5832  0.6215
  331MOL   C11140371   2.296   5.127   1.212 -0.7638 -0.7123  0.0746
  331MOL  Cl11240372   2.206   5.226   1.329 -0.3759 -0.0647 -0.3019
  331MOL   H11340373   2.303   4.926   1.139  0.9987 -0.1231  1.2544
  331MOL   H11440374   2.249   4.941   1.301 -1.4933 -0.9809  0.6410
  331MOL   H11540375   2.397   5.111   1.249 -0.3839 -0.4216 -0.8303
  331MOL   C11640376   2.304   5.202   1.078 -0.0556 -0.4841  0.3540
  331MOL   C11740377   2.408   5.146   0.977  0.3716 -0.3368  0.3576
  331MOL  Cl11840378   2.411   5.215   0.815 -0.0490 -0.0235 -0.0721
  331MOL   H11940379   2.328   5.305   1.105  1.5116 -1.0259  1.0941
  331MOL   H12040380   2.211   5.215   1.023  1.0625  0.5711 -1.3448
  331MOL   H12140381   2.509   5.156   1.017  0.1552  0.8987  0.5966
  331MOL   H12240382   2.387   5.041   0.954  0.0998 -0.1044 -0.4632
  332MOL     C140383   7.499   1.282   6.709 -0.3987  0.3450 -0.1872
  332MOL     C240384   7.648   1.290   6.722 -0.5087  0.3951 -0.3702
  332MOL    Cl340385   7.716   1.155   6.811 -0.1444 -0.4877 -0.2331
  332MOL     H440386   7.453   1.363   6.652  1.1089  2.2486  1.2326
  332MOL     H540387   7.467   1.181   6.682 -1.9305  0.8552 -0.3436
  332MOL     H640388   7.686   1.273   6.621  3.9642 -2.4022  1.6163
  332MOL     H740389   7.457   1.295   6.809  0.6269 -0.4699  0.3612
  332MOL     C840390   7.706   1.427   6.771 -0.1010 -0.8074  0.1215
  332MOL     C940391   7.859   1.455   6.740 -0.2076  0.4616  0.4738
  332MOL   Cl1040392   7.878   1.460   6.564 -0.2199 -0.3203 -0.4774
  332MOL    H1140393   7.684   1.457   6.873  1.6943  1.6210 -0.1639
  332MOL    H1240394   7.668   1.512   6.714  1.6591 -0.4323 -0.5332
  332MOL    H1340395   7.875   1.560   6.763  3.9369  0.2716 -1.1643
  332MOL    C1440396   7.960   1.368   6.819 -0.5969  0.9109  0.3100
  332MOL    C1540397   7.944   1.360   6.976  0.2883 -0.2344  0.2099
  332MOL   Cl1640398   7.994   1.522   7.039  0.1700  0.3910  0.0663
  332MOL    H1740399   8.058   1.403   6.788 -0.6330  0.8245  0.0933
  332MOL    H1840400   7.951   1.265   6.783 -2.8150  1.0936  0.2542
  332MOL    H1940401   7.838   1.345   6.999  0.1490  3.0961  2.0226
  332MOL    C2040402   8.033   1.251   7.040 -0.2125  0.1619 -0.1219
  332MOL    C2140403   8.036   1.226   7.192  0.1821  0.2634  0.4047
  332MOL   Cl2240404   8.122   1.081   7.235 -0.2508 -0.2578 -0.0787
  332MOL    H2340405   8.132   1.277   7.002 -0.3931  0.6259 -0.2719
  332MOL    H2440406   8.005   1.158   6.991 -1.0281 -0.4419  1.4599
  332MOL    H2540407   8.101   1.303   7.235  2.7283 -1.0540 -1.0031
  332MOL    C2640408   7.894   1.227   7.256 -0.2942 -0.3564  0.2778
  332MOL    C2740409   7.885   1.221   7.406  0.5053  0.2020 -0.0284
  332MOL   Cl2840410   7.714   1.204   7.445 -0.1759 -0.0236 -0.4289
  332MOL    H2940411   7.837   1.152   7.202 -1.2726 -1.7992  3.2087
  332MOL    H3040412   7.851   1.322   7.223  2.2116 -0.1326 -2.5470
  332MOL    H3140413   7.937   1.130   7.437  2.8608  1.2935 -0.6123
  332MOL    C3240414   7.939   1.338   7.492 -0.7891 -0.3518 -0.1909
  332MOL    C3340415   7.999   1.300   7.633  0.4094  0.5373  0.1826
  332MOL   Cl3440416   7.988   1.449   7.731 -0.2631  0.2342  0.0451
  332MOL    H3540417   7.863   1.415   7.506 -0.4971  0.1821 -1.4885
  332MOL    H3640418   8.016   1.384   7.430 -0.4850 -1.3943 -0.5927
  332MOL    H3740419   7.932   1.223   7.673  1.5171 -1.2007 -1.2006
  332MOL    C3840420   8.147   1.247   7.622  0.1527  0.6146  0.5397
  332MOL    C3940421   8.210   1.181   7.746 -0.5287 -0.3177 -0.3833
  332MOL   Cl4040422   8.114   1.040   7.792 -0.4305 -0.0426  0.1079
  332MOL    H4140423   8.220   1.320   7.586  1.2172 -1.4454 -1.6860
  332MOL    H4240424   8.146   1.168   7.547 -3.4911  0.5170  0.6428
  332MOL    H4340425   8.309   1.140   7.726 -0.3668  1.6084 -3.8808
  332MOL    C4440426   8.215   1.269   7.870 -0.0775 -0.4648 -0.2035
  332MOL    C4540427   8.294   1.400   7.868 -0.2765  0.5559  0.8634
  332MOL   Cl4640428   8.448   1.372   7.786  0.1884  0.1798  0.3794
  332MOL    H4740429   8.258   1.212   7.953 -0.4319  0.0202  0.3183
  332MOL    H4840430   8.108   1.266   7.893 -0.1356 -0.3395 -0.4548
  332MOL    H4940431   8.233   1.466   7.807 -2.6776 -1.5489  0.8826
  332MOL    C5040432   8.318   1.460   8.005  0.4935  0.6758  0.1042
  332MOL    C5140433   8.200   1.475   8.113 -1.1338 -0.9437  0.3262
  332MOL   Cl5240434   8.083   1.588   8.050 -0.0904  0.0269  0.1368
  332MOL    H5340435   8.348   1.564   7.994  0.0631  0.8672  0.6952
  332MOL    H5440436   8.400   1.420   8.064 -0.8261 -1.5214  0.5042
  332MOL    H5540437   8.147   1.380   8.119 -1.8481 -0.4695  1.7468
  332MOL    C5640438   8.259   1.532   8.249 -0.5619  0.2644  0.2103
  332MOL    C5740439   8.171   1.523   8.381 -0.3370 -0.1006  0.0242
  332MOL   Cl5840440   8.031   1.638   8.372  0.3641 -0.5299 -0.3784
  332MOL    H5940441   8.300   1.633   8.237  1.0607 -0.6237 -2.0202
  332MOL    H6040442   8.343   1.466   8.271  0.4186  1.1452 -0.8520
  332MOL    H6140443   8.123   1.425   8.383  1.9889 -1.2526  1.7749
  332MOL    C6240444   8.249   1.550   8.509 -0.5118  0.7563  0.6630
  332MOL    C6340445   8.176   1.525   0.111 -0.1294  0.4432 -0.8191
  332MOL   Cl6440446   8.292   1.568   0.236  0.0532  0.0404 -0.3373
  332MOL    H6540447   8.270   1.657   8.512  1.3746  0.3755  1.0458
  332MOL    H6640448   8.344   1.498   8.520 -0.4076  0.9474  0.6638
  332MOL    H6740449   8.091   1.592   0.114 -0.4666  0.0304 -1.0459
  332MOL    C6840450   8.126   1.381   0.139 -0.6960  0.3694 -0.2679
  332MOL    C6940451   8.059   1.344   0.278 -0.0239 -0.2882 -0.6639
  332MOL   Cl7040452   7.957   1.476   0.345  0.1910  0.5096  0.2274
  332MOL    H7140453   8.201   1.308   0.109 -1.1504  1.1184 -3.3602
  332MOL    H7240454   8.045   1.360   0.069  1.4525 -0.2203 -2.6355
  332MOL    H7340455   7.988   1.263   0.258 -0.2071 -0.9868  2.5299
  332MOL    C7440456   8.155   1.314   0.393 -0.1994  0.8215 -0.3768
  332MOL    C7540457   8.080   1.243   0.511 -0.4771 -0.1260  0.0214
  332MOL   Cl7640458   8.181   1.232   0.659  0.2313  0.0048 -0.3061
  332MOL    H7740459   8.213   1.401   0.424  0.3302  0.4152 -0.2143
  332MOL    H7840460   8.226   1.238   0.363 -1.0226  0.1451 -0.6245
  332MOL    H7940461   7.990   1.302   0.529  0.8293  1.3798  1.8369
  332MOL    C8040462   8.034   1.096   0.479 -1.0313  0.1500  0.0093
  332MOL    C8140463   8.142   0.994   0.449  0.4125  1.0534  0.4083
  332MOL   Cl8240464   8.188   0.994   0.273 -0.1786 -0.1163  0.1338
  332MOL    H8340465   7.944   1.084   0.419 -0.1910 -3.0351 -0.7116
  332MOL    H8440466   7.987   1.072   0.575 -0.4058 -0.1613  0.2407
  332MOL    H8540467   8.231   1.023   0.505  1.5040  0.4937 -1.0172
  332MOL    C8640468   8.093   0.851   0.487  0.5736 -0.0926  0.5287
  332MOL    C8740469   8.049   0.821   0.628  0.0489 -0.0059 -0.6703
  332MOL   Cl8840470   8.161   0.896   0.750  0.0696 -0.0359  0.2981
  332MOL    H8940471   8.170   0.783   0.448  1.6176  1.9661 -1.1353
  332MOL    H9040472   8.005   0.814   0.435 -0.4588 -2.0801  3.5632
  332MOL    H9140473   7.948   0.862   0.624  0.1989  0.3338 -1.0429
  332MOL    C9240474   8.031   0.670   0.656  0.7861  0.3334 -0.5921
  332MOL    C9340475   7.957   0.612   0.774 -0.0271  0.3134 -1.0892
  332MOL   Cl9440476   7.932   0.440   0.732 -0.4393 -0.0205 -0.3977
  332MOL    H9540477   8.124   0.616   0.643  0.1802 -0.7110 -0.6173
  332MOL    H9640478   7.983   0.627   0.568 -0.2783 -1.9095  1.0432
  332MOL    H9740479   8.029   0.616   0.855  0.0536  2.0331 -1.2271
  332MOL    C9840480   7.816   0.669   0.814  0.3861 -0.3031  0.1690
  332MOL    C9940481   7.830   0.801   0.896 -0.0578  0.1213  0.2458
  332MOL  Cl10040482   7.904   0.748   1.047 -0.1787  0.1302  0.0228
  332MOL   H10140483   7.768   0.588   0.870 -1.8437  2.8416  2.9851
  332MOL   H10240484   7.768   0.686   0.718  1.1931  0.0575 -0.1721
  332MOL   H10340485   7.892   0.873   0.842 -1.3172  0.3243 -0.9616
  332MOL   C10440486   7.695   0.864   0.941 -0.3310 -0.1038  0.2658
  332MOL   C10540487   7.605   0.898   0.821  0.7618 -0.3113  0.0125
  332MOL  Cl10640488   7.691   1.014   0.706  0.2804 -0.1375  0.3263
  332MOL   H10740489   7.720   0.948   1.004  0.0689  1.7365 -2.2505
  332MOL   H10840490   7.645   0.792   1.005  0.8515 -0.8727  0.3356
  332MOL   H10940491   7.588   0.808   0.763  0.5399  0.3255 -0.9269
  332MOL   C11040492   7.464   0.961   0.850 -0.1431 -0.3629  0.0474
  332MOL   C11140493   7.381   0.976   0.721  0.2409  0.2571 -0.6185
  332MOL  Cl11240494   7.236   1.066   0.756 -0.0756 -0.1931 -0.3666
  332MOL   H11340495   7.474   1.063   0.889 -2.1206 -0.6311  1.3581
  332MOL   H11440496   7.410   0.894   0.918 -0.8652 -0.9862 -1.1231
  332MOL   H11540497   7.441   1.021   0.642  1.5639 -1.3414 -0.5532
  332MOL   C11640498   7.327   0.835   0.675  0.1183  0.4779 -0.1011
  332MOL   C11740499   7.263   0.829   0.538  0.3418 -0.2383  0.2991
  332MOL  Cl11840500   7.221   0.656   0.498 -0.1162  0.0105  0.3507
  332MOL   H11940501   7.254   0.795   0.746  1.7674  1.4082  2.1959
  332MOL   H12040502   7.407   0.761   0.674 -1.1369 -1.1061  4.1194
  332MOL   H12140503   7.179   0.897   0.523  0.3378 -0.4363 -0.6012
  332MOL   H12240504   7.344   0.856   0.471  0.1176  0.2383  0.2194
  333MOL     C140505   5.606   0.048   8.160 -0.0365  0.2773 -0.4075
  333MOL     C240506   5.560   0.101   8.024 -1.0078 -0.1881  0.8212
  333MOL    Cl340507   5.700   0.129   7.912 -0.3537 -0.5403 -0.2025
  333MOL     H440508   5.670   0.115   8.218 -0.2630  0.2729 -0.1517
  333MOL     H540509   5.520   0.020   8.220  1.9639  0.4179  2.6165
  333MOL     H640510   5.504   0.020   7.977  0.5505 -0.0576 -1.3670
  333MOL     H740511   5.673   8.488   8.155 -2.1913 -1.5607  0.8445
  333MOL     C840512   5.484   0.235   8.020  0.8666 -0.0108 -0.7792
  333MOL     C940513   5.335   0.231   8.071  0.1996 -0.0679  0.2425
  333MOL   Cl1040514   5.233   0.132   7.960 -0.1367  0.1609  0.5339
  333MOL    H1140515   5.491   0.270   7.917 -1.4744  1.7159 -0.3903
  333MOL    H1240516   5.536   0.310   8.081 -1.6492 -0.9310  2.6527
  333MOL    H1340517   5.334   0.185   8.170  0.7817  0.4033  0.4682
  333MOL    C1440518   5.266   0.370   8.074 -0.0880 -0.0157  0.4140
  333MOL    C1540519   5.313   0.466   8.186 -0.4623 -0.5407  0.6126
  333MOL   Cl1640520   5.281   0.397   8.352  0.1409 -0.3663  0.1903
  333MOL    H1740521   5.159   0.358   8.091 -0.5442  0.9416 -1.5838
  333MOL    H1840522   5.272   0.415   7.975  1.6575 -0.0618  0.4983
  333MOL    H1940523   5.416   0.503   8.184 -0.3568 -0.8114  1.1523
  333MOL    C2040524   5.229   0.591   8.171 -0.7948  0.4588 -0.3409
  333MOL    C2140525   5.280   0.706   8.267  0.0283 -0.2118  0.5836
  333MOL   Cl2240526   5.135   0.809   8.283  0.0051 -0.3720 -0.0382
  333MOL    H2340527   5.132   0.572   8.216 -1.4808  1.9363 -1.1849
  333MOL    H2440528   5.225   0.633   8.071 -0.2622  0.7092 -0.2628
  333MOL    H2540529   5.304   0.674   8.369  0.8939 -1.4413  0.0087
  333MOL    C2640530   5.397   0.785   8.219  0.2006 -0.6570 -0.2855
  333MOL    C2740531   5.417   0.930   8.275 -0.0590  0.2591  1.7395
  333MOL   Cl2840532   5.539   1.013   8.178 -0.2871  0.0100 -0.0796
  333MOL    H2940533   5.375   0.780   8.112 -0.7958  1.4358 -0.2023
  333MOL    H3040534   5.480   0.717   8.237  0.1437 -0.8777 -0.8308
  333MOL    H3140535   5.321   0.979   8.259 -0.4751 -0.7057  1.1932
  333MOL    C3240536   5.452   0.931   8.422 -0.3266  0.3064 -0.6046
  333MOL    C3340537   5.589   0.862   8.445 -0.2295  0.4386  0.4854
  333MOL   Cl3440538   5.547   0.687   8.470 -0.0550 -0.1411 -0.1605
  333MOL    H3540539   5.382   0.886   8.492 -1.9778  0.6217 -2.0059
  333MOL    H3640540   5.456   1.035   8.455 -1.6630 -0.1357  1.0312
  333MOL    H3740541   5.654   0.875   8.359 -0.8515  1.4391  0.1608
  333MOL    C3840542   5.661   0.918   0.050 -0.1965 -0.2674  0.3883
  333MOL    C3940543   5.802   0.865   0.088  0.8435  0.1082  0.0650
  333MOL   Cl4040544   5.850   0.940   0.243 -0.0917  0.4620 -0.4132
  333MOL    H4140545   5.594   0.915   0.136 -0.8626  2.8430  0.0247
  333MOL    H4240546   5.671   1.023   0.025 -3.3285 -0.0327 -0.0648
  333MOL    H4340547   5.797   0.759   0.113 -0.8616  0.0929 -0.2786
  333MOL    C4440548   5.916   0.893   8.513  0.2820  0.0599 -0.6639
  333MOL    C4540549   5.940   0.780   8.410 -0.2504 -0.5248 -0.0981
  333MOL   Cl4640550   6.001   0.638   8.497  0.2002 -0.0849 -0.4156
  333MOL    H4740551   6.015   0.897   0.034  0.1883  0.5798 -0.5096
  333MOL    H4840552   5.896   0.990   8.467 -0.0389  1.0902  1.5789
  333MOL    H4940553   5.840   0.752   8.375  0.4856 -2.2006 -0.9274
  333MOL    C5040554   6.044   0.818   8.305 -0.6457 -0.3667  0.5269
  333MOL    C5140555   6.009   0.930   8.210 -0.8198 -0.1099 -0.1656
  333MOL   Cl5240556   5.844   0.908   8.152 -0.1843  0.0546 -0.0676
  333MOL    H5340557   6.064   0.730   8.245  0.2531 -0.3902  0.8498
  333MOL    H5440558   6.133   0.834   8.366  0.4042  1.6526 -1.4633
  333MOL    H5540559   6.015   1.027   8.261  0.7032 -1.5703  2.5227
  333MOL    C5640560   6.108   0.938   8.086  0.7060  0.4466 -0.2774
  333MOL    C5740561   6.258   0.968   8.116  0.4163 -0.0818 -0.3041
  333MOL   Cl5840562   6.280   1.126   8.192  0.3620  0.1065  0.2803
  333MOL    H5940563   6.068   1.011   8.015  0.1154  0.6261  0.2410
  333MOL    H6040564   6.099   0.837   8.047  1.3406 -0.1636  1.1078
  333MOL    H6140565   6.298   0.895   8.187  0.7300  0.9125  0.5448
  333MOL    C6240566   6.331   0.960   7.979  0.0685  0.5746 -0.0442
  333MOL    C6340567   6.348   0.814   7.934 -0.2844 -0.2178  0.1541
  333MOL   Cl6440568   6.480   0.740   8.037  0.1914 -0.0456  0.1215
  333MOL    H6540569   6.427   1.011   7.990  0.4628  0.1337 -1.3877
  333MOL    H6640570   6.279   1.024   7.907  1.1893  0.1207 -1.2706
  333MOL    H6740571   6.261   0.750   7.950 -2.6812  2.6721 -0.7912
  333MOL    C6840572   6.388   0.813   7.781  0.0485  0.0492 -0.0647
  333MOL    C6940573   6.278   0.860   7.684 -0.9463  0.5908  0.0104
  333MOL   Cl7040574   6.125   0.765   7.706  0.1220  0.0930 -0.1336
  333MOL    H7140575   6.419   0.711   7.759 -0.0507  0.0770 -0.3271
  333MOL    H7240576   6.482   0.866   7.766  0.9512 -1.3058  0.6803
  333MOL    H7340577   6.243   0.963   7.694 -1.3090  0.7515 -2.4753
  333MOL    C7440578   6.333   0.849   7.540  0.1572  0.0405  0.2155
  333MOL    C7540579   6.412   0.973   7.502 -0.1434 -0.5178  0.0623
  333MOL   Cl7640580   6.311   1.115   7.497 -0.1135  0.2826  0.6065
  333MOL    H7740581   6.247   0.836   7.475  1.3134 -2.8712 -0.7798
  333MOL    H7840582   6.388   0.757   7.523 -0.6798 -0.5571  0.7422
  333MOL    H7940583   6.492   0.978   7.577  1.1856  1.9308 -1.4519
  333MOL    C8040584   6.488   0.953   7.365 -0.5914  0.2124 -0.1410
  333MOL    C8140585   6.552   1.077   7.302  0.7164  0.1168  0.5148
  333MOL   Cl8240586   6.633   1.017   7.159  0.4142  0.3178 -0.2451
  333MOL    H8340587   6.412   0.910   7.299  0.0292  1.5094 -1.7530
  333MOL    H8440588   6.554   0.867   7.371 -0.6688  0.0715 -1.0991
  333MOL    H8540589   6.474   1.142   7.264 -0.7361 -1.7872  0.1310
  333MOL    C8640590   6.661   1.139   7.392 -0.2032  0.4329 -0.3348
  333MOL    C8740591   6.700   1.279   7.349 -0.1562  0.1603  0.2919
  333MOL   Cl8840592   6.837   1.333   7.453 -0.1798  0.3533  0.0763
  333MOL    H8940593   6.748   1.076   7.378  0.6457  1.7662 -1.1971
  333MOL    H9040594   6.641   1.139   7.499  0.8768  0.0396 -0.1310
  333MOL    H9140595   6.733   1.276   7.246 -0.2600 -1.5631  0.2965
  333MOL    C9240596   6.585   1.391   7.343  0.0274 -0.5026 -0.2366
  333MOL    C9340597   6.631   1.534   7.348 -0.6075 -0.1896  0.1813
  333MOL   Cl9440598   6.486   1.643   7.357 -0.2709  0.2327  0.1705
  333MOL    H9540599   6.510   1.372   7.420  0.4878 -1.8523 -0.1060
  333MOL    H9640600   6.520   1.382   7.257  0.9876 -0.2346 -1.0019
  333MOL    H9740601   6.679   1.543   7.445 -0.8652  0.1966  0.2785
  333MOL    C9840602   6.722   1.595   7.239 -0.1897  0.8336  0.2440
  333MOL    C9940603   6.792   1.731   7.274 -0.8093  0.4857 -0.4364
  333MOL  Cl10040604   6.888   1.777   7.121 -0.4077  0.1251  0.2586
  333MOL   H10140605   6.653   1.619   7.159 -2.0413 -0.4449  1.4198
  333MOL   H10240606   6.791   1.516   7.210 -0.5303  0.4560  0.4645
  333MOL   H10340607   6.722   1.811   7.300  0.1450  1.4149 -0.6958
  333MOL   C10440608   6.886   1.712   7.393  0.5287  0.4772  0.4253
  333MOL   C10540609   6.982   1.825   7.433  0.4993  0.5998  0.0811
  333MOL  Cl10640610   7.129   1.837   7.328  0.0590  0.2453 -0.0405
  333MOL   H10740611   6.944   1.621   7.378 -1.1693 -0.6813  0.8249
  333MOL   H10840612   6.818   1.702   7.477  0.6123 -1.2686  0.3035
  333MOL   H10940613   6.927   1.917   7.415  0.0608  0.2506 -0.3841
  333MOL   C11040614   7.026   1.810   7.579  0.1481  0.5523 -0.3733
  333MOL   C11140615   6.923   1.856   7.687  0.0958  0.1240  0.1693
  333MOL  Cl11240616   6.839   2.015   7.650 -0.0469 -0.6958  0.1781
  333MOL   H11340617   7.116   1.869   7.596 -0.1533  0.8427  0.2369
  333MOL   H11440618   7.057   1.708   7.598  3.7879  1.6694 -0.0712
  333MOL   H11540619   6.839   1.787   7.682 -0.0683  0.4405 -1.4379
  333MOL   C11640620   6.986   1.860   7.828  0.3966 -0.4019 -0.2411
  333MOL   C11740621   6.899   1.901   7.944  0.2674  0.6235 -0.7935
  333MOL  Cl11840622   6.775   1.771   7.963 -0.0557  0.0645  0.4501
  333MOL   H11940623   7.075   1.923   7.824 -0.2424  0.4163 -2.1926
  333MOL   H12040624   7.026   1.764   7.859  2.5602 -0.3399 -2.6651
  333MOL   H12140625   6.955   1.897   8.037 -0.7894  0.5289 -0.1506
  333MOL   H12240626   6.862   2.003   7.950 -0.9350  0.2712 -1.9425
  334MOL     C140627   3.332   2.802   5.843  0.1924  0.2859 -0.2251
  334MOL     C240628   3.321   2.652   5.797  0.3543  0.2346  0.2307
  334MOL    Cl340629   3.316   2.528   5.929 -0.0832 -0.0508  0.0177
  334MOL     H440630   3.260   2.823   5.922  0.3453 -1.2961  0.3550
  334MOL     H540631   3.428   2.811   5.893 -0.7796  0.3055  1.6753
  334MOL     H640632   3.226   2.631   5.747  0.7852 -1.1051 -0.0649
  334MOL     H740633   3.318   2.865   5.755  0.3072 -1.8743 -1.8350
  334MOL     C840634   3.434   2.605   5.696  0.3852 -0.9464  0.2059
  334MOL     C940635   3.429   2.659   5.555  0.2311 -0.1571  0.2156
  334MOL   Cl1040636   3.263   2.648   5.485 -0.1314 -0.3118  0.3409
  334MOL    H1140637   3.423   2.496   5.688 -0.9447 -0.8933  1.0938
  334MOL    H1240638   3.537   2.618   5.727  1.9346 -0.2978 -4.7297
  334MOL    H1340639   3.445   2.766   5.564 -1.6378  0.1805 -0.2810
  334MOL    C1440640   3.526   2.592   5.450 -1.0435 -0.1327 -0.2775
  334MOL    C1540641   3.668   2.656   5.436  0.2835 -0.1466  0.0849
  334MOL   Cl1640642   3.749   2.644   5.590 -0.4593 -0.2316 -0.1488
  334MOL    H1740643   3.476   2.593   5.353 -1.8366  4.5225  0.0284
  334MOL    H1840644   3.527   2.484   5.462  0.0667 -0.2903 -1.6682
  334MOL    H1940645   3.733   2.606   5.365  0.7847 -0.5297  0.7992
  334MOL    C2040646   3.672   2.803   5.392 -0.0515 -0.4559 -0.4324
  334MOL    C2140647   3.591   2.833   5.265  0.4618  0.1872 -0.4617
  334MOL   Cl2240648   3.640   2.730   5.135 -0.3102  0.0563 -0.1230
  334MOL    H2340649   3.774   2.839   5.383  0.5580 -1.8572  0.6907
  334MOL    H2440650   3.638   2.852   5.483 -2.7831 -2.4747 -0.2981
  334MOL    H2540651   3.487   2.803   5.281  1.4072 -2.1819  1.5555
  334MOL    C2640652   3.586   2.982   5.212  0.5189  0.5595 -0.0529
  334MOL    C2740653   3.521   3.080   5.313  0.5830  0.1746  0.3391
  334MOL   Cl2840654   3.354   3.035   5.353 -0.2507  0.1300  0.1223
  334MOL    H2940655   3.531   2.988   5.118  0.5291  0.2141 -0.0795
  334MOL    H3040656   3.691   3.008   5.197  1.4440 -2.2499  1.2762
  334MOL    H3140657   3.570   3.061   5.408  0.9427  0.6003  0.2383
  334MOL    C3240658   3.525   3.220   5.258 -0.5344  0.2663  0.1518
  334MOL    C3340659   3.655   3.296   5.265  0.4721  0.3692 -0.1072
  334MOL   Cl3440660   3.745   3.256   5.415  0.0905  0.4676 -0.6268
  334MOL    H3540661   3.449   3.278   5.311 -0.8613  0.8622 -0.9491
  334MOL    H3640662   3.491   3.210   5.154 -0.2262  0.0347  0.0727
  334MOL    H3740663   3.713   3.257   5.181 -0.4041 -1.3927  0.1013
  334MOL    C3840664   3.652   3.450   5.244  0.6061  0.4583  0.4209
  334MOL    C3940665   3.572   3.500   5.127  0.0500  0.3456  0.1548
  334MOL   Cl4040666   3.634   3.432   4.978 -0.1764 -0.0524  0.1059
  334MOL    H4140667   3.757   3.479   5.236  0.8203 -0.4044  0.0402
  334MOL    H4240668   3.605   3.482   5.336 -2.5088 -1.8348 -0.3005
  334MOL    H4340669   3.471   3.460   5.135 -0.1546  1.0132  0.8438
  334MOL    C4440670   3.560   3.653   5.104  0.0431  0.3483 -0.2180
  334MOL    C4540671   3.495   3.727   5.229 -0.3808  0.1720 -0.3619
  334MOL   Cl4640672   3.329   3.658   5.251  0.0783  0.0856 -0.1683
  334MOL    H4740673   3.502   3.663   5.013  0.0214  0.0279 -0.2373
  334MOL    H4840674   3.657   3.689   5.069 -1.0114  2.0996 -1.4424
  334MOL    H4940675   3.553   3.708   5.319 -2.0121 -0.6482  0.5345
  334MOL    C5040676   3.466   3.877   5.200  0.1823  0.8977  0.2196
  334MOL    C5140677   3.584   3.971   5.245 -0.1503  0.0169 -0.9417
  334MOL   Cl5240678   3.572   4.022   5.418 -0.0523  0.1759 -0.0669
  334MOL    H5340679   3.378   3.922   5.246 -0.2594  0.3991 -0.1328
  334MOL    H5440680   3.456   3.898   5.093 -1.1599 -5.4769 -1.1040
  334MOL    H5540681   3.679   3.918   5.232  0.3277  0.2846  1.1983
  334MOL    C5640682   3.591   4.100   5.159  0.3152  0.3939 -0.1632
  334MOL    C5740683   3.645   4.078   5.017 -0.7809 -0.6167  0.2818
  334MOL   Cl5840684   3.802   4.165   5.017 -0.0176 -0.1170 -0.4840
  334MOL    H5940685   3.632   4.186   5.213  1.1894  0.7361 -1.3667
  334MOL    H6040686   3.488   4.136   5.155  0.1355  0.2200  2.1275
  334MOL    H6140687   3.679   3.976   4.997  0.5726 -0.4190  1.4956
  334MOL    C6240688   3.572   4.130   4.899 -0.5446  0.4730  1.3121
  334MOL    C6340689   3.429   4.071   4.874 -0.6426 -0.1039  0.2681
  334MOL   Cl6440690   3.442   3.899   4.804 -0.1298  0.5115 -0.0618
  334MOL    H6540691   3.628   4.124   4.806  1.4207 -0.4850  2.5318
  334MOL    H6640692   3.550   4.234   4.921 -0.5960  0.7955 -0.2419
  334MOL    H6740693   3.376   4.068   4.969 -0.4082 -1.4874  0.3690
  334MOL    C6840694   3.348   4.156   4.768  0.2521  0.0115 -0.4065
  334MOL    C6940695   3.339   4.308   4.800  0.4411 -0.3540 -0.1099
  334MOL   Cl7040696   3.270   4.331   4.963  0.2622 -0.0114  0.0005
  334MOL    H7140697   3.244   4.123   4.774  0.1464  0.3854 -0.1276
  334MOL    H7240698   3.382   4.141   4.666  1.3917 -0.6110  0.0530
  334MOL    H7340699   3.434   4.362   4.793  0.8790 -1.0838  0.0682
  334MOL    C7440700   3.251   4.375   4.698  0.6014 -0.0250  0.2623
  334MOL    C7540701   3.265   4.531   4.686  0.4363 -0.5209 -0.3073
  334MOL   Cl7640702   3.114   4.588   4.623 -0.2045 -0.0492 -0.1529
  334MOL    H7740703   3.151   4.341   4.723  0.4231  0.4312  0.1777
  334MOL    H7840704   3.261   4.338   4.596  1.2809  1.0354 -0.0618
  334MOL    H7940705   3.282   4.560   4.790  0.4643  0.9832 -0.7108
  334MOL    C8040706   3.379   4.567   4.590 -0.3216 -0.0065 -0.3435
  334MOL    C8140707   3.440   4.703   4.613 -0.0585  0.1216 -0.2990
  334MOL   Cl8240708   3.507   4.713   4.783  0.1962 -0.0262 -0.0027
  334MOL    H8340709   3.341   4.570   4.488 -1.4661  1.6768  0.0893
  334MOL    H8440710   3.457   4.492   4.593  0.0543  0.4206  1.3014
  334MOL    H8540711   3.532   4.701   4.553  0.0400 -2.4519 -0.0905
  334MOL    C8640712   3.347   4.824   4.578  0.3658  0.0628  0.1616
  334MOL    C8740713   3.285   4.838   4.433 -0.8705  0.2126 -0.5022
  334MOL   Cl8840714   3.411   4.855   4.322 -0.5618 -0.2170  0.4868
  334MOL    H8940715   3.390   4.918   4.609  0.6178 -0.4590  1.4026
  334MOL    H9040716   3.263   4.821   4.647  1.2352 -2.8561  1.1919
  334MOL    H9140717   3.222   4.757   4.395 -1.0526 -0.2634  0.7958
  334MOL    C9240718   3.187   4.959   4.429  0.6844  0.5486  1.2456
  334MOL    C9340719   3.054   4.936   4.503  0.8389  0.0050  0.2671
  334MOL   Cl9440720   2.966   4.814   4.411 -0.2026  0.1775  0.1831
  334MOL    H9540721   3.169   4.992   4.327  0.3184  0.4894  1.2902
  334MOL    H9640722   3.234   5.047   4.472 -0.0861  0.7517  1.6809
  334MOL    H9740723   3.078   4.898   4.602 -0.2844  0.0769  0.5701
  334MOL    C9840724   2.967   5.067   4.508 -0.0471 -0.4493  0.4631
  334MOL    C9940725   3.013   5.178   4.612 -0.2482 -0.3196  0.0165
  334MOL  Cl10040726   3.022   5.104   4.772  0.0749 -0.0507  0.3192
  334MOL   H10140727   2.865   5.040   4.535 -0.5167  0.7689 -0.0606
  334MOL   H10240728   2.957   5.102   4.406 -0.1617 -0.5935  0.4259
  334MOL   H10340729   3.108   5.219   4.580 -0.2182  0.2214  0.7970
  334MOL   C10440730   2.914   5.291   4.620  0.2284  0.6028  0.1742
  334MOL   C10540731   2.885   5.373   4.490  0.7765 -0.2368  0.4183
  334MOL  Cl10640732   3.022   5.482   4.450  0.2477 -0.2536  0.1769
  334MOL   H10740733   2.935   5.365   4.697  0.3106 -1.3165  2.0485
  334MOL   H10840734   2.820   5.243   4.651 -1.0067  2.3813 -0.7655
  334MOL   H10940735   2.872   5.304   4.407 -1.0631  0.9886 -0.3485
  334MOL   C11040736   2.762   5.466   4.508 -0.2398  0.4659  0.0744
  334MOL   C11140737   2.628   5.396   4.520 -0.6763  0.7089  0.0796
  334MOL  Cl11240738   2.606   5.256   4.410 -0.1539 -0.1199  0.0237
  334MOL   H11340739   2.748   5.535   4.425  2.3326 -0.8742 -1.5445
  334MOL   H11440740   2.788   5.522   4.599  1.2798 -0.8964  0.4986
  334MOL   H11540741   2.633   5.351   4.619 -1.8315 -0.2651 -0.2989
  334MOL   C11640742   2.514   5.501   4.509 -0.9570  1.2423 -0.0195
  334MOL   C11740743   2.372   5.449   4.525 -0.0474 -0.4981  0.8757
  334MOL  Cl11840744   2.330   5.420   4.697 -0.2304  0.3309 -0.3286
  334MOL   H11940745   2.520   5.551   4.412 -4.8623  2.0472  0.0985
  334MOL   H12040746   2.538   5.588   4.570 -2.2977  2.1595 -0.7732
  334MOL   H12140747   2.302   5.524   4.486  0.9014 -0.5020 -0.8896
  334MOL   H12240748   2.343   5.361   4.467  1.4021 -0.1751 -0.3561
  335MOL     C140749   4.632   7.905   4.471 -0.6989 -0.4569 -0.1572
  335MOL     C240750   4.698   8.030   4.406  0.3505 -0.1631  0.3210
  335MOL    Cl340751   4.596   8.164   4.429  0.2514 -0.4191  0.4039
  335MOL     H440752   4.693   7.817   4.453 -1.8379 -1.2835  0.0484
  335MOL     H540753   4.639   7.926   4.578 -1.2053  0.9529 -0.3888
  335MOL     H640754   4.792   8.043   4.459  1.7533 -0.6651 -1.9670
  335MOL     H740755   4.529   7.881   4.445 -0.7970 -0.7466  0.4994
  335MOL     C840756   4.745   8.020   4.258  0.3076 -0.2826  0.2643
  335MOL     C940757   4.628   8.023   4.153  0.0924  0.5503  1.0662
  335MOL   Cl1040758   4.548   7.864   4.140 -0.5325  0.0268 -0.0543
  335MOL    H1140759   4.805   7.930   4.255 -1.1686 -1.2539 -0.6251
  335MOL    H1240760   4.812   8.105   4.241 -1.4211  1.0120 -0.2444
  335MOL    H1340761   4.546   8.090   4.176 -0.3482  0.9049 -1.3428
  335MOL    C1440762   4.665   8.053   4.003  0.2954 -0.7317 -0.1057
  335MOL    C1540763   4.737   8.191   3.974  0.0362 -0.4188 -0.5315
  335MOL   Cl1640764   4.617   8.316   4.006 -0.1664  0.2077  0.0819
  335MOL    H1740765   4.577   8.046   3.938 -0.0961 -2.5710  0.6105
  335MOL    H1840766   4.718   7.970   3.957  1.3894 -0.4878  0.7075
  335MOL    H1940767   4.818   8.200   4.047  1.2594  1.5799 -2.0648
  335MOL    C2040768   4.802   8.204   3.834  0.1802  0.0758 -0.1200
  335MOL    C2140769   4.895   8.324   3.814  0.3123 -0.7794  0.9250
  335MOL   Cl2240770   4.916   8.359   3.637 -0.2640  0.5589  0.1716
  335MOL    H2340771   4.723   8.209   3.759 -0.4770  3.9097  0.6945
  335MOL    H2440772   4.857   8.111   3.824 -0.6313 -0.5211  0.8646
  335MOL    H2540773   4.838   8.412   3.844 -0.2313 -0.2264 -1.6240
  335MOL    C2640774   5.031   8.311   3.902  0.2168 -0.2549  0.2220
  335MOL    C2740775   5.127   8.423   3.879 -0.5146 -0.3020  0.2139
  335MOL   Cl2840776   5.252   8.428   4.005 -0.4331 -0.0723  0.1258
  335MOL    H2940777   5.073   8.213   3.882 -2.2123 -1.5030  0.9802
  335MOL    H3040778   5.015   8.318   4.009 -1.6338 -0.4924 -0.0266
  335MOL    H3140779   5.175   8.402   3.783  2.5437 -2.9006  2.1934
  335MOL    C3240780   5.067   0.035   3.877 -0.5841  0.1045  0.3226
  335MOL    C3340781   5.168   0.151   3.852  0.5144 -0.2193  0.1443
  335MOL   Cl3440782   5.077   0.309   3.875  0.5564  0.4125 -0.1984
  335MOL    H3540783   5.015   0.066   3.967  1.3073  0.0583  1.4470
  335MOL    H3640784   4.988   0.037   3.802 -0.4497  1.0262  0.1998
  335MOL    H3740785   5.240   0.152   3.934  0.8028  1.1088 -0.1110
  335MOL    C3840786   5.248   0.161   3.713  0.1643 -0.1901 -0.1965
  335MOL    C3940787   5.354   0.273   3.708  0.3971 -0.5594 -0.2741
  335MOL   Cl4040788   5.429   0.275   3.549  0.0980  0.1255  0.0322
  335MOL    H4140789   5.191   0.176   3.621  1.1712  0.2718 -0.7546
  335MOL    H4240790   5.280   0.063   3.679 -1.7348 -1.1807  0.8208
  335MOL    H4340791   5.307   0.371   3.707  4.0807  1.3234 -0.4789
  335MOL    C4440792   5.469   0.261   3.814 -0.2562 -0.6377  0.0606
  335MOL    C4540793   5.599   0.343   3.785  0.0440  0.2478 -0.3538
  335MOL   Cl4640794   5.694   0.290   3.924 -0.3573  0.0109  0.0369
  335MOL    H4740795   5.503   0.158   3.808 -0.2168 -0.7289  1.6345
  335MOL    H4840796   5.412   0.282   3.904 -0.0136  0.4152 -0.0253
  335MOL    H4940797   5.659   0.305   3.702 -0.0612  1.7931 -1.1487
  335MOL    C5040798   5.573   0.499   3.780 -0.0694 -0.2103  0.7082
  335MOL    C5140799   5.697   0.592   3.806 -0.0288 -0.7667 -0.3678
  335MOL   Cl5240800   5.643   0.764   3.811  0.3238 -0.0561  0.2779
  335MOL    H5340801   5.493   0.526   3.849 -1.4410  1.1498 -1.3532
  335MOL    H5440802   5.529   0.532   3.686 -3.0970 -0.6993  1.9180
  335MOL    H5540803   5.729   0.576   3.908  0.4051  2.8428  0.1366
  335MOL    C5640804   5.822   0.567   3.716  0.3354  0.0069  0.3469
  335MOL    C5740805   5.936   0.668   3.734  0.3309  0.5312 -0.1343
  335MOL   Cl5840806   6.071   0.634   3.618 -0.1624  0.1868  0.2417
  335MOL    H5940807   5.774   0.580   3.619  2.4554  0.5549 -0.6508
  335MOL    H6040808   5.863   0.466   3.726 -1.0523 -0.6510 -0.4946
  335MOL    H6140809   5.898   0.767   3.710 -1.0073 -0.1324 -0.8155
  335MOL    C6240810   5.998   0.656   3.879 -0.5021 -0.4290 -0.3392
  335MOL    C6340811   6.116   0.751   3.915 -0.1245  0.1629  0.4401
  335MOL   Cl6440812   6.185   0.677   4.063 -0.4108 -0.0652  0.0855
  335MOL    H6540813   6.027   0.551   3.889  0.1782 -0.2761 -0.6974
  335MOL    H6640814   5.924   0.675   3.956  0.8455  0.0620  0.8614
  335MOL    H6740815   6.193   0.749   3.838 -1.4638  1.0472 -0.9290
  335MOL    C6840816   6.082   0.896   3.955 -0.1451  0.4757  0.1204
  335MOL    C6940817   5.994   0.984   3.863  0.0686  0.1025  0.2333
  335MOL   Cl7040818   6.064   0.996   3.700 -0.2893 -0.1753  0.0091
  335MOL    H7140819   6.173   0.951   3.977 -1.4431  3.1034 -0.8501
  335MOL    H7240820   6.024   0.902   4.047 -2.3585 -0.0767 -1.1765
  335MOL    H7340821   5.891   0.948   3.852  0.3573 -0.5206 -0.4798
  335MOL    C7440822   5.975   1.124   3.922 -0.4193 -1.1605  0.5656
  335MOL    C7540823   5.936   1.151   4.065  0.1294  0.2310 -0.1152
  335MOL   Cl7640824   5.780   1.087   4.095  0.2832 -0.0328 -0.5138
  335MOL    H7740825   5.909   1.181   3.856  0.0873  1.8048  2.4843
  335MOL    H7840826   6.075   1.167   3.921 -1.2250  0.7662 -1.5007
  335MOL    H7940827   6.003   1.112   4.142 -0.1834  0.1476  0.1161
  335MOL    C8040828   5.932   1.305   4.073  0.5055  0.1972 -0.0965
  335MOL    C8140829   5.894   1.373   4.204 -0.3455  0.1293 -0.1956
  335MOL   Cl8240830   5.842   1.535   4.164 -0.1626 -0.5107 -0.1965
  335MOL    H8340831   5.854   1.331   4.002 -1.7651 -3.0818  1.0628
  335MOL    H8440832   6.019   1.355   4.030 -0.3491  0.1022 -1.9836
  335MOL    H8540833   5.801   1.332   4.242  0.6432 -0.6917  1.3779
  335MOL    C8640834   6.011   1.387   4.307  0.3917 -0.5455  0.7083
  335MOL    C8740835   6.062   1.267   4.397  0.7631 -0.3434 -0.0348
  335MOL   Cl8840836   5.937   1.219   4.511  0.2861  0.1552  0.1796
  335MOL    H8940837   5.979   1.458   4.383 -0.2330  1.4233 -1.3303
  335MOL    H9040838   6.099   1.432   4.260  0.0282  0.4672  0.9670
  335MOL    H9140839   6.077   1.175   4.340  2.7007 -1.1820  1.7838
  335MOL    C9240840   6.194   1.300   4.464  0.3459 -0.0036  0.4352
  335MOL    C9340841   6.255   1.182   4.534 -0.0404  0.8079  0.6071
  335MOL   Cl9440842   6.424   1.218   4.587 -0.0325 -0.2824 -0.3020
  335MOL    H9540843   6.191   1.387   4.531 -1.4958  0.7324 -0.5657
  335MOL    H9640844   6.258   1.326   4.381 -0.4914 -2.8813 -1.1537
  335MOL    H9740845   6.200   1.171   4.628 -0.0767  1.7336  0.6983
  335MOL    C9840846   6.246   1.049   4.458  0.4780  0.4987 -0.1834
  335MOL    C9940847   6.341   1.026   4.336 -0.5042 -1.2183  0.1294
  335MOL  Cl10040848   6.296   1.121   4.194  0.4642  0.4004  0.1488
  335MOL   H10140849   6.142   1.019   4.443  0.6766  0.5934 -1.7789
  335MOL   H10240850   6.275   0.972   4.530  1.7541 -0.4019 -1.6400
  335MOL   H10340851   6.439   1.064   4.367 -0.6378 -2.0531  1.5884
  335MOL   C10440852   6.359   0.875   4.298 -0.1630  0.5655  0.0751
  335MOL   C10540853   6.441   0.782   4.392  0.4143  0.0983  0.0490
  335MOL  Cl10640854   6.612   0.838   4.397 -0.0008  0.1311  0.1395
  335MOL   H10740855   6.409   0.873   4.201  0.4222  1.6561  0.3482
  335MOL   H10840856   6.262   0.828   4.289 -0.1766 -0.1263  3.1965
  335MOL   H10940857   6.399   0.791   4.492  0.3931  1.5596 -0.0777
  335MOL   C11040858   6.453   0.640   4.334 -0.1171  0.0913 -0.5595
  335MOL   C11140859   6.335   0.540   4.356  0.2003 -0.1460 -0.1549
  335MOL  Cl11240860   6.295   0.534   4.533  0.0987  0.1451 -0.0795
  335MOL   H11340861   6.539   0.598   4.386  0.2798  1.8078  0.2225
  335MOL   H11440862   6.474   0.647   4.228 -1.1776  1.4818 -0.6961
  335MOL   H11540863   6.240   0.585   4.324 -1.4101 -2.3320  1.3854
  335MOL   C11640864   6.358   0.395   4.316 -0.3211 -0.4459 -0.5423
  335MOL   C11740865   6.393   0.390   4.167  0.7383  0.5269 -1.2066
  335MOL  Cl11840866   6.377   0.230   4.085 -0.3406  0.5481 -0.0212
  335MOL   H11940867   6.283   0.318   4.337 -0.5299 -0.3519 -0.9413
  335MOL   H12040868   6.450   0.353   4.355  0.2976  2.1525  0.9358
  335MOL   H12140869   6.338   0.466   4.112 -2.0604 -0.7162 -0.2619
  335MOL   H12240870   6.495   0.417   4.140  1.9833 -0.2770  2.3188
  336MOL     C140871   2.908   4.958   7.007  0.4225 -0.6375  0.3722
  336MOL     C240872   2.915   5.038   7.142  0.3436 -0.0860 -0.0768
  336MOL    Cl340873   2.913   5.213   7.100  0.2480 -0.0614  0.1245
  336MOL     H440874   2.812   4.956   6.958  0.9208  0.7046 -0.6825
  336MOL     H540875   2.976   4.994   6.930 -0.8686 -2.8096 -1.8229
  336MOL     H640876   2.840   5.008   7.216  0.8133 -0.5256  0.2257
  336MOL     H740877   2.936   4.853   7.013 -0.1249 -0.9421 -2.2239
  336MOL     C840878   3.048   5.007   7.214 -0.1828 -0.5119  0.1863
  336MOL     C940879   3.060   4.860   7.255 -0.6981 -0.2863  0.0306
  336MOL   Cl1040880   2.950   4.839   7.391 -0.3491  0.1405 -0.2196
  336MOL    H1140881   3.053   5.075   7.299 -1.0304 -0.3121  0.0846
  336MOL    H1240882   3.120   5.033   7.137 -0.8725  1.1589  0.0996
  336MOL    H1340883   3.029   4.788   7.179 -0.1173 -1.0677  0.5109
  336MOL    C1440884   3.196   4.815   7.300 -0.7425  0.5303 -0.1817
  336MOL    C1540885   3.234   4.664   7.331  0.0672  0.3269 -0.2999
  336MOL   Cl1640886   3.412   4.654   7.360  0.2973  0.2750  0.0723
  336MOL    H1740887   3.228   4.868   7.390 -0.8935  0.1014  0.1289
  336MOL    H1840888   3.272   4.828   7.223 -1.0563  2.4001 -0.1923
  336MOL    H1940889   3.179   4.641   7.423  0.8932  0.1192  0.1459
  336MOL    C2040890   3.192   4.569   7.216 -0.0662  0.5480  0.2330
  336MOL    C2140891   3.041   4.512   7.220  0.2527 -0.4775  0.1249
  336MOL   Cl2240892   3.022   4.387   7.342 -0.2216  0.1432  0.4956
  336MOL    H2340893   3.261   4.486   7.228 -0.3988 -0.1572 -2.5185
  336MOL    H2440894   3.219   4.617   7.122 -2.7919 -1.6682 -1.7634
  336MOL    H2540895   2.977   4.593   7.253 -1.9093 -1.9600 -0.3384
  336MOL    C2640896   2.983   4.468   7.080 -0.0203  0.6749 -0.0467
  336MOL    C2740897   2.856   4.383   7.084 -0.1511  0.2779 -0.1820
  336MOL   Cl2840898   2.832   4.328   6.916 -0.3716  0.1114 -0.1369
  336MOL    H2940899   3.063   4.409   7.034  0.4988  0.9038  0.5519
  336MOL    H3040900   2.976   4.557   7.017  1.4336 -0.3601 -1.7470
  336MOL    H3140901   2.878   4.294   7.144  1.4773  0.7694 -0.0290
  336MOL    C3240902   2.722   4.453   7.139  0.0995  0.2621  0.6641
  336MOL    C3340903   2.607   4.364   7.197  0.0247 -0.4335  0.3663
  336MOL   Cl3440904   2.657   4.291   7.354 -0.4635 -0.1219 -0.0813
  336MOL    H3540905   2.676   4.519   7.065 -0.4720 -1.2857 -0.3968
  336MOL    H3640906   2.748   4.519   7.222 -1.4743  0.6199  0.8885
  336MOL    H3740907   2.526   4.431   7.227 -0.5785 -1.7711  1.7769
  336MOL    C3840908   2.560   4.255   7.098 -0.5099 -0.3506 -0.0669
  336MOL    C3940909   2.472   4.141   7.147  0.6403 -0.8539 -0.4228
  336MOL   Cl4040910   2.425   4.043   7.007  0.2227  0.5431 -0.0260
  336MOL    H4140911   2.645   4.201   7.057  0.2306  0.6788  0.1067
  336MOL    H4240912   2.523   4.308   7.009  0.9073 -0.2399 -0.5994
  336MOL    H4340913   2.524   4.070   7.211  0.6734 -0.3265  0.1400
  336MOL    C4440914   2.350   4.204   7.227  0.8230  0.4583 -0.0631
  336MOL    C4540915   2.251   4.101   7.290 -0.3945 -0.0603 -0.6336
  336MOL   Cl4640916   2.112   4.195   7.363  0.1533 -0.2597  0.0978
  336MOL    H4740917   2.294   4.270   7.161 -0.2842 -0.2335  0.1533
  336MOL    H4840918   2.394   4.259   7.310 -0.5643 -0.2593  1.1683
  336MOL    H4940919   2.216   4.049   7.201  0.4010 -0.5624 -0.6647
  336MOL    C5040920   2.313   4.006   7.400 -0.2353 -0.5042 -0.2837
  336MOL    C5140921   2.213   3.911   7.474 -0.3330 -0.5073 -0.4344
  336MOL   Cl5240922   2.302   3.852   7.616  0.2150  0.0583  0.2704
  336MOL    H5340923   2.360   4.074   7.471 -1.8322  2.8127 -2.2860
  336MOL    H5440924   2.398   3.946   7.367  1.5078  0.3673  2.4294
  336MOL    H5540925   2.126   3.967   7.510  0.6119  0.2053  0.7700
  336MOL    C5640926   2.174   3.802   7.376  0.5651  0.5513  0.3150
  336MOL    C5740927   2.098   3.677   7.419 -0.3160  0.2330 -0.0436
  336MOL   Cl5840928   2.105   3.566   7.280 -0.2866  0.1456  0.3402
  336MOL    H5940929   2.262   3.772   7.320  0.1116 -0.6406  0.2258
  336MOL    H6040930   2.103   3.845   7.305 -0.5529  0.4167  1.3249
  336MOL    H6140931   2.155   3.623   7.495  1.9397  2.0441 -0.3896
  336MOL    C6240932   1.948   3.699   7.451 -0.4423  0.3613  0.1327
  336MOL    C6340933   1.876   3.577   7.512  0.5860 -0.4019 -1.0273
  336MOL   Cl6440934   1.696   3.602   7.469  0.0729 -0.3136 -0.1245
  336MOL    H6540935   1.893   3.726   7.361 -1.1023 -1.3041  0.0189
  336MOL    H6640936   1.939   3.776   7.528 -0.0212  1.5759 -1.0061
  336MOL    H6740937   1.900   3.488   7.454 -0.3791 -0.5115 -1.2539
  336MOL    C6840938   1.889   3.575   7.667 -0.1681  0.0383 -0.2965
  336MOL    C6940939   1.788   3.481   7.743 -0.2763  0.6646  0.2432
  336MOL   Cl7040940   1.807   3.510   7.919 -0.1645  0.0084 -0.0249
  336MOL    H7140941   1.871   3.673   7.711 -1.5758 -0.2753 -0.1489
  336MOL    H7240942   1.989   3.544   7.695  0.2781  0.1987 -1.6522
  336MOL    H7340943   1.683   3.498   7.716 -0.8144 -2.3651  0.1766
  336MOL    C7440944   1.811   3.332   7.725 -0.2463  0.1125 -0.1099
  336MOL    C7540945   1.704   3.241   7.781 -0.2160  0.2180  0.1445
  336MOL   Cl7640946   1.749   3.079   7.719 -0.0338  0.0959  0.2465
  336MOL    H7740947   1.905   3.299   7.769 -0.2960 -1.0757 -0.8779
  336MOL    H7840948   1.807   3.304   7.620 -1.9802  1.7220 -0.4883
  336MOL    H7940949   1.726   3.242   7.887 -1.2430  1.2469  0.3587
  336MOL    C8040950   1.553   3.279   7.774  0.2658 -0.0219  0.3951
  336MOL    C8140951   1.454   3.163   7.800  0.2771  0.1750 -0.1322
  336MOL   Cl8240952   1.285   3.202   7.746 -0.3646 -0.0325  0.1848
  336MOL    H8340953   1.532   3.302   7.670  0.1576  2.2604  0.9001
  336MOL    H8440954   1.523   3.370   7.826 -0.6300  1.1631 -2.1356
  336MOL    H8540955   1.492   3.074   7.750  1.1720  2.3805 -3.5240
  336MOL    C8640956   1.444   3.134   7.957 -0.0065 -0.6446  0.3860
  336MOL    C8740957   1.372   3.002   7.977 -0.2702  0.2477  0.0898
  336MOL   Cl8840958   1.337   2.990   8.146 -0.0031 -0.1407  0.2569
  336MOL    H8940959   1.372   3.206   7.994 -0.9387 -0.6169 -1.4232
  336MOL    H9040960   1.543   3.146   8.001  0.2376 -0.7818 -0.1202
  336MOL    H9140961   1.273   3.005   7.930 -1.0101 -0.7677  1.5295
  336MOL    C9240962   1.446   2.870   7.940  0.6214 -0.1008  0.7573
  336MOL    C9340963   1.348   2.754   7.907  0.0986 -0.0593 -0.0238
  336MOL   Cl9440964   1.309   2.662   8.059  0.1191  0.0219  0.0886
  336MOL    H9540965   1.524   2.839   8.010 -0.4948  0.2494  2.1695
  336MOL    H9640966   1.493   2.888   7.843  0.6201 -1.1077  0.5635
  336MOL    H9740967   1.250   2.782   7.867  0.9816  2.9814 -0.1564
  336MOL    C9840968   1.413   2.645   7.813  0.1914  0.1549 -0.0797
  336MOL    C9940969   1.318   2.544   7.750 -1.0790  0.0505  0.1322
  336MOL  Cl10040970   1.399   2.395   7.692  0.2479 -0.0392 -0.0434
  336MOL   H10140971   1.503   2.614   7.867  1.0607  0.3245 -1.3807
  336MOL   H10240972   1.466   2.693   7.730 -0.0477 -0.6066 -0.6725
  336MOL   H10340973   1.257   2.515   7.835  0.7705  0.6057  1.7044
  336MOL   C10440974   1.220   2.597   7.649 -0.4253  0.5454  0.4831
  336MOL   C10540975   1.276   2.669   7.529  0.5575 -0.9524 -0.3013
  336MOL  Cl10640976   1.287   2.839   7.572 -0.3372  0.4456  0.4765
  336MOL   H10740977   1.151   2.665   7.699 -0.0208  1.8298 -0.6776
  336MOL   H10840978   1.169   2.506   7.620  1.7095 -0.4435 -0.2712
  336MOL   H10940979   1.381   2.653   7.507  0.6212 -1.2312  0.2132
  336MOL   C11040980   1.183   2.654   7.403  0.0189  0.0509  0.6221
  336MOL   C11140981   1.230   2.737   7.279  0.5570 -0.1793  0.0739
  336MOL  Cl11240982   1.156   2.897   7.275  0.2103  0.0990 -0.0619
  336MOL   H11340983   1.084   2.683   7.440 -0.6376  0.2077 -1.1783
  336MOL   H11440984   1.183   2.551   7.368  3.0189  0.2173  0.0376
  336MOL   H11540985   1.336   2.759   7.290  0.5525  0.3064 -0.8226
  336MOL   C11640986   1.210   2.678   7.140 -0.3008  0.5675 -1.0916
  336MOL   C11740987   1.282   2.759   7.035 -0.3630 -0.2260 -0.4716
  336MOL  Cl11840988   1.452   2.748   7.048 -0.2615 -0.0222 -0.0216
  336MOL   H11940989   1.101   2.674   7.128 -0.2711  0.9043 -1.5099
  336MOL   H12040990   1.246   2.575   7.143  2.0505  1.3862 -0.6726
  336MOL   H12140991   1.263   2.718   6.936  4.2764 -1.5875 -0.9119
  336MOL   H12240992   1.251   2.863   7.049  0.7751  0.2702 -1.6622
  337MOL     C140993   6.205   4.800   4.063  0.0384 -0.3929  0.0916
  337MOL     C240994   6.118   4.686   4.029  0.3832  0.6853  0.0680
  337MOL    Cl340995   6.169   4.626   3.873 -0.1738 -0.0860  0.2754
  337MOL     H440996   6.313   4.788   4.067  0.1471  0.4586 -0.1202
  337MOL     H540997   6.190   4.887   3.998  0.6300  0.3574  0.9373
  337MOL     H640998   6.132   4.611   4.108 -1.1574  2.1540  1.7942
  337MOL     H740999   6.176   4.847   4.157  0.1101 -0.6278  0.2289
  337MOL     C841000   5.963   4.729   4.005 -0.1743 -0.0280 -0.0570
  337MOL     C941001   5.879   4.745   4.139 -0.1312  0.2937  0.6960
  337MOL   Cl1041002   5.887   4.594   4.234  0.0709  0.3623 -0.7140
  337MOL    H1141003   5.916   4.661   3.934  0.0543 -0.5475  0.2872
  337MOL    H1241004   5.957   4.824   3.951  0.1643 -0.8881 -1.6387
  337MOL    H1341005   5.921   4.821   4.205  2.2277 -0.6597  0.3679
  337MOL    C1441006   5.743   4.773   4.113 -0.3343  0.1938  0.6891
  337MOL    C1541007   5.698   4.912   4.062 -0.1445 -0.7857  0.5669
  337MOL   Cl1641008   5.735   5.043   4.176 -0.4233 -0.0083 -0.3773
  337MOL    H1741009   5.676   4.760   4.198 -3.1159 -0.5555 -1.5169
  337MOL    H1841010   5.700   4.692   4.054 -1.4441  0.4318  1.1413
  337MOL    H1941011   5.758   4.935   3.974  2.4646 -1.8814  1.9794
  337MOL    C2041012   5.549   4.920   4.022  0.6008 -0.1381  0.2394
  337MOL    C2141013   5.512   4.834   3.899 -0.0402 -0.8833  0.2552
  337MOL   Cl2241014   5.464   4.668   3.948 -0.5771  0.4028  0.0553
  337MOL    H2341015   5.516   5.022   4.003  0.0829 -0.2704  0.4057
  337MOL    H2441016   5.492   4.889   4.110  2.0899 -1.4767  0.7605
  337MOL    H2541017   5.417   4.874   3.864  1.0291 -1.2689 -3.3629
  337MOL    C2641018   5.614   4.824   3.778  0.2073 -0.2558  0.0116
  337MOL    C2741019   5.560   4.796   3.641 -0.0002 -0.3035  0.1096
  337MOL   Cl2841020   5.442   4.921   3.593 -0.2545  0.2980  0.5478
  337MOL    H2941021   5.692   4.751   3.800  0.8242  0.3068 -0.2939
  337MOL    H3041022   5.671   4.917   3.774 -0.5840  0.1709 -2.0015
  337MOL    H3141023   5.646   4.818   3.578  1.2555  0.4333  2.0288
  337MOL    C3241024   5.510   4.653   3.600  0.4942 -0.7076  0.4862
  337MOL    C3341025   5.612   4.534   3.622 -0.5920 -0.4703 -0.2113
  337MOL   Cl3441026   5.761   4.565   3.533  0.0268  0.0341 -0.5054
  337MOL    H3541027   5.479   4.659   3.495 -1.1641  0.9028  1.0317
  337MOL    H3641028   5.419   4.629   3.656 -1.4894  0.6201 -2.0365
  337MOL    H3741029   5.645   4.529   3.725  2.1642 -1.8137 -1.0880
  337MOL    C3841030   5.552   4.399   3.574 -0.0347  0.2374  0.1436
  337MOL    C3941031   5.433   4.338   3.649 -0.4824  0.1896  1.1932
  337MOL   Cl4041032   5.465   4.326   3.827  0.3011  0.6217  0.1765
  337MOL    H4141033   5.635   4.329   3.576  0.3428  0.6388 -1.2370
  337MOL    H4241034   5.534   4.395   3.467 -0.7154  1.1660  0.2203
  337MOL    H4341035   5.345   4.401   3.639 -0.2161  0.3663 -0.0907
  337MOL    C4441036   5.398   4.202   3.589  0.4804  0.1821 -0.1634
  337MOL    C4541037   5.365   4.182   3.435  0.5873 -0.3025 -0.2355
  337MOL   Cl4641038   5.252   4.313   3.388  0.1320  0.1663  0.3569
  337MOL    H4741039   5.309   4.163   3.639  0.5159  0.9545  0.5127
  337MOL    H4841040   5.467   4.123   3.619 -1.7070 -0.0136  4.8621
  337MOL    H4941041   5.450   4.205   3.371  1.0490  0.6024  0.6903
  337MOL    C5041042   5.292   4.046   3.404 -0.5472 -0.0261 -0.0035
  337MOL    C5141043   5.376   3.925   3.407  0.2897  0.3597  0.2940
  337MOL   Cl5241044   5.505   3.936   3.286 -0.0855  0.1066  0.1708
  337MOL    H5341045   5.245   4.072   3.309 -2.8862  0.1873  1.1630
  337MOL    H5441046   5.204   4.033   3.468  0.3702  2.9267  1.9673
  337MOL    H5541047   5.422   3.916   3.506  0.8074 -0.8448 -0.0471
  337MOL    C5641048   5.293   3.798   3.395  0.4780 -0.9656 -0.0335
  337MOL    C5741049   5.364   3.661   3.414 -0.0909 -0.1014 -0.1258
  337MOL   Cl5841050   5.246   3.537   3.361  0.2980  0.2263 -0.5323
  337MOL    H5941051   5.248   3.803   3.295  1.4678  0.0411 -0.4399
  337MOL    H6041052   5.213   3.806   3.468  1.2230  1.6690  0.5400
  337MOL    H6141053   5.445   3.661   3.342  1.3411  0.6981  1.4554
  337MOL    C6241054   5.413   3.631   3.561 -0.3953  0.6511 -0.6739
  337MOL    C6341055   5.514   3.517   3.579 -0.3574 -0.2523  0.6801
  337MOL   Cl6441056   5.650   3.549   3.468 -0.4438  0.1112  0.1878
  337MOL    H6541057   5.320   3.626   3.617 -0.6360 -0.5221 -1.1554
  337MOL    H6641058   5.460   3.719   3.604 -0.2909 -0.4139  1.4688
  337MOL    H6741059   5.547   3.539   3.681 -1.6446  1.6716  0.7094
  337MOL    C6841060   5.456   3.380   3.563  0.2330  0.3767  0.5767
  337MOL    C6941061   5.337   3.337   3.651  0.0809 -0.2688 -0.1216
  337MOL   Cl7041062   5.389   3.371   3.819  0.6113 -0.0078  0.1683
  337MOL    H7141063   5.540   3.317   3.594  0.4244  0.1382 -0.4229
  337MOL    H7241064   5.446   3.356   3.457  0.0473  0.5340  0.5585
  337MOL    H7341065   5.245   3.392   3.633  0.8151  1.0235  0.0551
  337MOL    C7441066   5.301   3.187   3.639 -0.5351  0.6960 -1.1381
  337MOL    C7541067   5.242   3.151   3.505  0.1732 -0.0820  0.6600
  337MOL   Cl7641068   5.100   3.247   3.488  0.0795 -0.1768 -0.0809
  337MOL    H7741069   5.227   3.161   3.714  0.6914  1.9487  0.5569
  337MOL    H7841070   5.397   3.137   3.654 -1.6091 -0.4874  2.0392
  337MOL    H7941071   5.309   3.179   3.424  0.9845  0.1773  1.4082
  337MOL    C8041072   5.200   3.006   3.485 -0.6041 -0.3471 -0.0569
  337MOL    C8141073   5.148   2.978   3.347 -0.4946 -0.5928 -0.1730
  337MOL   Cl8241074   5.086   2.814   3.345 -0.3330  0.1271  0.2601
  337MOL    H8341075   5.132   2.973   3.565 -1.8514  0.9042 -0.5829
  337MOL    H8441076   5.287   2.940   3.487  0.8615  1.5839  0.4556
  337MOL    H8541077   5.061   3.040   3.324  1.0770  1.6849 -0.1245
  337MOL    C8641078   5.263   2.998   3.237 -0.3689 -0.6204 -0.5169
  337MOL    C8741079   5.239   2.951   3.093 -0.2293 -0.5134 -0.7485
  337MOL   Cl8841080   5.383   2.991   2.999 -0.2507 -0.0657 -0.1841
  337MOL    H8941081   5.354   2.944   3.263  0.3517  2.2425  3.3644
  337MOL    H9041082   5.297   3.101   3.224 -1.8177 -0.3267 -2.0677
  337MOL    H9141083   5.236   2.842   3.089  1.7486 -0.5810 -0.7306
  337MOL    C9241084   5.110   3.009   3.030 -1.2128  0.4174  0.3845
  337MOL    C9341085   5.036   2.908   2.946  0.0047  0.2824  0.5059
  337MOL   Cl9441086   5.124   2.856   2.800 -0.0457  0.1751  0.0566
  337MOL    H9541087   5.132   3.103   2.980 -0.4175  0.1013  0.1309
  337MOL    H9641088   5.044   3.026   3.115  0.7513  0.1458  2.0008
  337MOL    H9741089   5.024   2.827   3.018 -2.2876  0.6325  0.5543
  337MOL    C9841090   4.899   2.959   2.896 -0.3298  0.2725 -0.5773
  337MOL    C9941091   4.815   2.864   2.822 -0.0658  0.3976  0.1671
  337MOL  Cl10041092   4.679   2.960   2.746 -0.4179 -0.2697  0.0179
  337MOL   H10141093   4.920   3.041   2.827  0.5600 -0.2308 -0.9060
  337MOL   H10241094   4.846   3.013   2.974 -0.9717 -1.2790  0.0752
  337MOL   H10341095   4.866   2.825   2.734 -1.3623 -0.2026 -0.3352
  337MOL   C10441096   4.765   2.735   2.910  0.4113 -0.2123  0.6875
  337MOL   C10541097   4.651   2.765   3.011  0.2140  0.2985  0.3203
  337MOL  Cl10641098   4.710   2.822   3.170  0.4417 -0.2494 -0.0508
  337MOL   H10741099   4.845   2.679   2.958  1.4698  0.6917 -0.0076
  337MOL   H10841100   4.729   2.672   2.828  0.1866  0.9249 -0.1032
  337MOL   H10941101   4.590   2.851   2.987  0.4261 -0.0530 -1.5409
  337MOL   C11041102   4.570   2.638   3.035  0.4243  0.2793  0.1857
  337MOL   C11141103   4.480   2.609   2.917  0.5959 -1.0291  1.0579
  337MOL  Cl11241104   4.321   2.693   2.941  0.3011 -0.0248 -0.2140
  337MOL   H11341105   4.524   2.631   3.134  1.3657 -1.0125  0.5556
  337MOL   H11441106   4.644   2.558   3.045 -0.0021  0.1736  3.1252
  337MOL   H11541107   4.517   2.657   2.826  1.9765 -0.2364  2.0313
  337MOL   C11641108   4.466   2.460   2.886 -0.6534  0.0625 -0.1149
  337MOL   C11741109   4.424   2.432   2.745 -0.4887  0.5040 -0.4440
  337MOL  Cl11841110   4.539   2.497   2.623 -0.2920  0.2478 -0.2103
  337MOL   H11941111   4.401   2.415   2.961  0.4156 -0.4542  0.5015
  337MOL   H12041112   4.559   2.406   2.900 -1.2511 -0.9261  0.0885
  337MOL   H12141113   4.430   2.324   2.733  1.8181  0.7173 -1.5006
  337MOL   H12241114   4.323   2.465   2.722 -1.2470 -1.1478  0.4101
  338MOL     C141115   2.751   3.684   1.583 -0.3045  0.5523  0.3772
  338MOL     C241116   2.674   3.665   1.454  0.6265  0.4693  0.1106
  338MOL    Cl341117   2.788   3.690   1.325  0.5973  0.1430 -0.0043
  338MOL     H441118   2.691   3.652   1.667  1.6117 -0.0131  1.5602
  338MOL     H541119   2.842   3.625   1.577 -0.3201  0.6546 -1.0875
  338MOL     H641120   2.646   3.560   1.457  1.1877  0.3440  1.6716
  338MOL     H741121   2.781   3.788   1.595 -1.3115  0.8572  0.3123
  338MOL     C841122   2.556   3.766   1.427  0.1388 -0.5811 -0.1904
  338MOL     C941123   2.464   3.739   1.302 -0.1928  0.3714 -0.3976
  338MOL   Cl1041124   2.381   3.888   1.256  0.0960  0.1594 -0.2623
  338MOL    H1141125   2.605   3.862   1.413  0.3216 -0.3558  1.7875
  338MOL    H1241126   2.491   3.767   1.515  0.5937 -0.0708  0.1461
  338MOL    H1341127   2.539   3.723   1.225 -1.0692 -1.9045 -0.8330
  338MOL    C1441128   2.376   3.618   1.313  0.1187 -0.0540  0.3703
  338MOL    C1541129   2.302   3.571   1.185  0.4378 -0.2427 -0.3936
  338MOL   Cl1641130   2.143   3.510   1.234  0.1748 -0.1692  0.1914
  338MOL    H1741131   2.301   3.646   1.387  1.4943 -1.1637  2.1952
  338MOL    H1841132   2.430   3.539   1.364 -2.4617 -1.6800  0.6656
  338MOL    H1941133   2.287   3.654   1.116  1.5719  0.1395 -0.2075
  338MOL    C2041134   2.382   3.467   1.116  0.2452 -0.2515  0.2513
  338MOL    C2141135   2.332   3.435   0.975 -0.1907 -0.3965 -0.1950
  338MOL   Cl2241136   2.192   3.329   0.978  0.0065 -0.3998 -0.2906
  338MOL    H2341137   2.396   3.383   1.184 -0.8688  1.0374  2.1164
  338MOL    H2441138   2.485   3.499   1.098 -0.0565  0.3063 -0.4941
  338MOL    H2541139   2.292   3.527   0.934  1.4868  0.4757  0.1010
  338MOL    C2641140   2.435   3.375   0.876  0.8402 -0.5158 -0.1530
  338MOL    C2741141   2.395   3.387   0.726 -0.3215 -0.2064  0.0334
  338MOL   Cl2841142   2.281   3.261   0.673 -0.4438  0.0928  0.1224
  338MOL    H2941143   2.445   3.268   0.899 -1.2120 -0.6696  0.1323
  338MOL    H3041144   2.529   3.428   0.890  0.4803  0.6311 -1.9557
  338MOL    H3141145   2.345   3.482   0.710 -1.5013 -0.7205  0.5536
  338MOL    C3241146   2.522   3.366   0.640  0.2971 -0.3999 -0.1413
  338MOL    C3341147   2.640   3.465   0.655  0.5008  0.0552  0.0119
  338MOL   Cl3441148   2.582   3.626   0.580 -0.1133  0.2000  0.1496
  338MOL    H3541149   2.485   3.362   0.538 -2.1244  0.9060  0.6415
  338MOL    H3641150   2.553   3.264   0.660  0.8109 -0.1295  0.4896
  338MOL    H3741151   2.660   3.485   0.761  0.2551  3.2964 -0.4981
  338MOL    C3841152   2.773   3.416   0.591 -0.4107  0.1910 -0.4706
  338MOL    C3941153   2.816   3.278   0.652  0.2501 -0.0101 -0.0096
  338MOL   Cl4041154   2.796   3.266   0.823  0.2344  0.1443 -0.0815
  338MOL    H4141155   2.849   3.491   0.614  0.6472 -1.5878  2.1323
  338MOL    H4241156   2.764   3.391   0.485 -0.4729 -1.2127 -0.1520
  338MOL    H4341157   2.748   3.198   0.622 -0.2699  0.3286  0.2653
  338MOL    C4441158   2.950   3.231   0.607 -0.4791 -0.1841 -0.0945
  338MOL    C4541159   2.956   3.165   0.469  0.3181 -0.1687 -0.0938
  338MOL   Cl4641160   2.915   2.993   0.499  0.0852  0.3231 -0.1646
  338MOL    H4741161   2.999   3.156   0.668 -0.9039  2.0721  3.1573
  338MOL    H4841162   3.023   3.312   0.604  1.6107 -1.9959  0.8010
  338MOL    H4941163   2.875   3.204   0.408  0.3351 -1.4144 -0.9274
  338MOL    C5041164   3.095   3.164   0.396  0.4042 -0.0670  0.2712
  338MOL    C5141165   3.105   3.069   0.274  0.8647  0.3866  0.7231
  338MOL   Cl5241166   3.271   3.096   0.203 -0.4510  0.0017  0.3103
  338MOL    H5341167   3.163   3.120   0.469 -0.0013 -0.4676  0.4065
  338MOL    H5441168   3.117   3.269   0.375 -0.2034 -0.4762 -2.5902
  338MOL    H5541169   3.114   2.963   0.299  0.8096  0.3229  0.4782
  338MOL    C5641170   2.996   3.106   0.164  0.4304  0.0893  0.0258
  338MOL    C5741171   2.998   3.023   0.033 -0.1977  0.7190  0.1024
  338MOL   Cl5841172   2.942   3.129   8.418  0.3240  0.2539  0.3657
  338MOL    H5941173   3.031   3.204   0.131  1.2904 -0.7578 -1.6755
  338MOL    H6041174   2.893   3.118   0.196 -0.3797 -1.6300 -1.8214
  338MOL    H6141175   3.101   2.988   0.018 -0.8266 -1.0380 -0.2340
  338MOL    C6241176   2.908   2.899   0.041  0.2179  0.8059  0.0367
  338MOL    C6341177   2.948   2.792   0.146  0.3313  0.1704 -0.9094
  338MOL   Cl6441178   3.115   2.736   0.121  0.1154  0.1993  0.3380
  338MOL    H6541179   2.918   2.847   8.472  0.6998 -0.5652  0.8273
  338MOL    H6641180   2.802   2.920   0.058 -0.1324  0.0296 -1.1203
  338MOL    H6741181   2.952   2.829   0.248  0.6645  1.3769 -1.3566
  338MOL    C6841182   2.849   2.679   0.137  0.5136 -0.1563  0.1305
  338MOL    C6941183   2.864   2.578   0.251 -0.3676  0.1078 -0.0517
  338MOL   Cl7041184   2.792   2.424   0.201 -0.3327  0.1737 -0.0445
  338MOL    H7141185   2.868   2.629   0.042 -2.2372 -0.7776 -0.1553
  338MOL    H7241186   2.747   2.719   0.138  1.2596  1.8278 -1.2434
  338MOL    H7341187   2.971   2.566   0.269 -0.2808 -0.7286 -1.0459
  338MOL    C7441188   2.787   2.615   0.377  0.0216  0.1032  0.2929
  338MOL    C7541189   2.808   2.530   0.495  0.7764  0.2205 -0.3741
  338MOL   Cl7641190   2.704   2.384   0.498  0.2987 -0.2532  0.0839
  338MOL    H7741191   2.680   2.629   0.359  0.0453 -1.6526 -1.3665
  338MOL    H7841192   2.831   2.712   0.401 -1.0371  0.4428  0.9119
  338MOL    H7941193   2.912   2.498   0.487  0.4592 -0.7624 -0.6439
  338MOL    C8041194   2.789   2.617   0.624  0.8084 -0.1631  0.2847
  338MOL    C8141195   2.831   2.547   0.753 -0.8017  0.0737  0.6051
  338MOL   Cl8241196   2.796   2.649   0.897 -0.0839  0.4680 -0.4530
  338MOL    H8341197   2.680   2.623   0.622  0.7479 -1.1940 -1.9758
  338MOL    H8441198   2.818   2.722   0.620 -0.0774  0.0444 -1.4835
  338MOL    H8541199   2.757   2.469   0.771 -0.6506  0.1525  1.5931
  338MOL    C8641200   2.985   2.508   0.763  0.7536  0.3743  0.2582
  338MOL    C8741201   3.029   2.427   0.884 -0.7056 -0.2446  0.3913
  338MOL   Cl8841202   3.203   2.396   0.872  0.0331  0.2065  0.2588
  338MOL    H8941203   3.049   2.596   0.756  2.7862 -0.6765  4.2264
  338MOL    H9041204   3.004   2.441   0.679  1.4361  1.1011 -0.1701
  338MOL    H9141205   3.009   2.484   0.975 -0.9578 -2.6379  1.8703
  338MOL    C9241206   2.956   2.291   0.893 -0.1378 -0.1709 -0.2843
  338MOL    C9341207   2.977   2.215   1.024 -0.8686 -1.1526  0.4918
  338MOL   Cl9441208   2.917   2.043   0.992 -0.4351  0.2940 -0.0873
  338MOL    H9541209   2.990   2.242   0.802  0.8152 -1.0980  0.5533
  338MOL    H9641210   2.849   2.312   0.882  0.4051  2.3532 -0.9712
  338MOL    H9741211   3.083   2.219   1.048 -0.8399  2.3762 -0.0603
  338MOL    C9841212   2.892   2.258   1.140 -0.7276 -0.5852 -0.0983
  338MOL    C9941213   2.911   2.189   1.276 -0.4361  0.4064 -0.0581
  338MOL  Cl10041214   2.767   2.233   1.372  0.0886  0.0431 -0.2120
  338MOL   H10141215   2.789   2.253   1.105 -1.2521  0.5209  1.2473
  338MOL   H10241216   2.903   2.365   1.159 -2.9963 -0.2980 -0.3275
  338MOL   H10341217   2.917   2.084   1.250  0.5601  0.2601  0.7362
  338MOL   C10441218   3.046   2.236   1.339  0.1725 -0.3613 -0.5951
  338MOL   C10541219   3.064   2.194   1.479  0.2348  0.7886 -0.2911
  338MOL  Cl10641220   3.195   2.299   1.544 -0.1805 -0.2330 -0.2750
  338MOL   H10741221   3.054   2.343   1.319 -1.0901 -0.3329 -1.0185
  338MOL   H10841222   3.117   2.192   1.269  1.0143  1.5035 -0.9223
  338MOL   H10941223   2.982   2.214   1.549 -1.4739 -1.0270 -1.6968
  338MOL   C11041224   3.121   2.050   1.485 -0.4366 -0.2239  0.3225
  338MOL   C11141225   3.147   1.999   1.633 -0.3352  0.1567  0.3208
  338MOL  Cl11241226   3.183   1.827   1.614  0.2629  0.2657  0.5949
  338MOL   H11341227   3.215   2.040   1.432 -0.9796 -0.6665 -0.5699
  338MOL   H11441228   3.057   1.981   1.430 -2.8324  2.1214  0.0409
  338MOL   H11541229   3.232   2.060   1.663 -1.1449  2.2425 -1.5068
  338MOL   C11641230   3.032   2.031   1.737  0.2700  0.3623  0.2531
  338MOL   C11741231   3.069   1.980   1.877  0.2386  0.2174 -0.1455
  338MOL  Cl11841232   3.228   2.059   1.925 -0.0959  0.0651 -0.1589
  338MOL   H11941233   2.943   1.977   1.707  1.7325 -2.2560  0.4855
  338MOL   H12041234   3.018   2.139   1.745  0.3060  0.4308 -0.5227
  338MOL   H12141235   2.997   2.012   1.953 -0.1435  0.2618 -0.5249
  338MOL   H12241236   3.088   1.873   1.881  1.0419  0.3852  0.8823
  339MOL     C141237   5.789   7.353   6.905 -0.3840  0.0629  0.1180
  339MOL     C241238   5.758   7.209   6.957 -0.2256  0.3326 -0.1356
  339MOL    Cl341239   5.832   7.094   6.839 -0.0430  0.2262  0.0452
  339MOL     H441240   5.781   7.349   6.796  2.2713  1.1336 -0.1458
  339MOL     H541241   5.720   7.424   6.951  0.8950 -0.1358  2.4114
  339MOL     H641242   5.805   7.193   7.055 -1.5070 -0.0482  0.4358
  339MOL     H741243   5.883   7.401   6.932 -0.4598  0.0130  0.4725
  339MOL     C841244   5.611   7.167   6.976 -0.3116 -0.2957  0.8994
  339MOL     C941245   5.522   7.252   7.069  0.3972  0.0848 -0.6643
  339MOL   Cl1041246   5.599   7.226   7.237  0.1196  0.0775 -0.2627
  339MOL    H1141247   5.605   7.061   7.003  0.0601 -0.3453  0.7860
  339MOL    H1241248   5.559   7.170   6.881 -0.4910 -0.6364  0.9862
  339MOL    H1341249   5.524   7.354   7.030  0.5965  0.1334 -0.5222
  339MOL    C1441250   5.369   7.204   7.067  0.1485 -0.4859 -0.1746
  339MOL    C1541251   5.267   7.295   7.148 -0.8410  0.5164  0.4317
  339MOL   Cl1641252   5.108   7.206   7.151 -0.0547  0.0928 -0.8308
  339MOL    H1741253   5.377   7.100   7.099 -2.9982 -1.7088 -3.0545
  339MOL    H1841254   5.329   7.200   6.966  0.3876 -0.8946 -0.2567
  339MOL    H1941255   5.309   7.306   7.248  0.4391 -1.9238  0.2025
  339MOL    C2041256   5.238   7.434   7.083  0.1742 -0.4079 -0.0177
  339MOL    C2141257   5.175   7.536   7.182  0.4844 -0.2610  0.3816
  339MOL   Cl2241258   5.290   7.543   7.316  0.2149 -0.1168  0.1577
  339MOL    H2341259   5.177   7.417   6.995 -1.9546  0.3160  1.2970
  339MOL    H2441260   5.318   7.488   7.031  0.8738 -0.2886  1.1484
  339MOL    H2541261   5.172   7.640   7.151  0.0147 -0.6542 -0.8858
  339MOL    C2641262   5.029   7.509   7.221  0.0142 -0.1227  0.5652
  339MOL    C2741263   4.930   7.500   7.106 -0.6443  0.1362  0.6712
  339MOL   Cl2841264   4.915   7.667   7.042  0.3685 -0.1187  0.1149
  339MOL    H2941265   4.997   7.598   7.275 -4.1893 -2.8121  2.7495
  339MOL    H3041266   5.028   7.418   7.281  1.8663  0.1997  1.1236
  339MOL    H3141267   4.959   7.429   7.029 -0.2568  1.4810 -0.4402
  339MOL    C3241268   4.798   7.448   7.167  0.4722 -0.2174 -0.0968
  339MOL    C3341269   4.684   7.422   7.058  0.6301  0.1986 -0.0095
  339MOL   Cl3441270   4.519   7.426   7.132 -0.1442 -0.0718  0.2341
  339MOL    H3541271   4.763   7.522   7.239  2.1068 -1.6422  2.2042
  339MOL    H3641272   4.815   7.356   7.223 -0.5277  0.3776  1.2008
  339MOL    H3741273   4.691   7.498   6.980 -0.0810 -1.9803 -2.2601
  339MOL    C3841274   4.697   7.282   6.998 -0.4338  0.3648 -0.4551
  339MOL    C3941275   4.605   7.243   6.875 -0.3725  0.3688 -0.0987
  339MOL   Cl4041276   4.643   7.079   6.837  0.2690  0.0384  0.0769
  339MOL    H4141277   4.675   7.214   7.080  1.3055  0.1004 -0.1891
  339MOL    H4241278   4.805   7.273   6.980 -0.3514  0.7037 -0.1371
  339MOL    H4341279   4.502   7.249   6.909 -0.8867  0.4690 -1.6467
  339MOL    C4441280   4.625   7.321   6.745 -0.1511 -1.3358  0.4117
  339MOL    C4541281   4.504   7.345   6.651  0.1121 -0.3627  0.2133
  339MOL   Cl4641282   4.446   7.187   6.606  0.0971  0.0237  0.1102
  339MOL    H4741283   4.704   7.286   6.678 -1.4191  1.9444 -2.9790
  339MOL    H4841284   4.662   7.418   6.776 -2.2704  0.2353 -1.7516
  339MOL    H4941285   4.423   7.396   6.703 -1.0370  1.7547 -3.5161
  339MOL    C5041286   4.554   7.442   6.533 -0.0458  0.1701 -0.3396
  339MOL    C5141287   4.439   7.519   6.469  0.6281  0.7031  0.2626
  339MOL   Cl5241288   4.317   7.405   6.416  0.0203 -0.1310  0.0175
  339MOL    H5341289   4.608   7.378   6.464 -2.7024 -0.3031 -2.0539
  339MOL    H5441290   4.626   7.519   6.562 -0.6556  1.2956 -1.7347
  339MOL    H5541291   4.392   7.563   6.557 -0.9292 -2.7326  1.2443
  339MOL    C5641292   4.477   7.608   6.352  0.1030  0.5759 -0.4123
  339MOL    C5741293   4.589   7.713   6.381 -0.2072  0.2026  0.4783
  339MOL   Cl5841294   4.576   7.797   6.542  0.2013 -0.3956 -0.3214
  339MOL    H5941295   4.382   7.651   6.321  1.0238  1.6731 -1.7654
  339MOL    H6041296   4.506   7.553   6.262 -1.4928 -1.8945  0.5197
  339MOL    H6141297   4.683   7.659   6.373 -1.1597 -1.1369 -2.7095
  339MOL    C6241298   4.591   7.830   6.278 -0.7601 -0.0102 -0.2603
  339MOL    C6341299   4.591   7.784   6.130  0.6000 -0.2190  0.5209
  339MOL   Cl6441300   4.762   7.760   6.086  0.0943  0.1484  0.3251
  339MOL    H6541301   4.678   7.893   6.296 -0.8118 -0.5608  2.1090
  339MOL    H6641302   4.507   7.897   6.294  1.1490  2.3302  0.3923
  339MOL    H6741303   4.543   7.689   6.103  0.1526  0.4245 -0.9973
  339MOL    C6841304   4.538   7.892   6.030  0.6335  0.2461 -0.1452
  339MOL    C6941305   4.546   7.858   5.883 -0.0264 -0.9984  0.1679
  339MOL   Cl7041306   4.528   8.009   5.785  0.0778  0.3858  0.6811
  339MOL    H7141307   4.589   7.987   6.043 -1.9773  1.2825  3.2993
  339MOL    H7241308   4.436   7.917   6.063  0.9965  0.0725  1.1395
  339MOL    H7341309   4.647   7.822   5.861  0.3984 -0.3699  1.0880
  339MOL    C7441310   4.438   7.752   5.836 -0.5159 -0.4701  0.2843
  339MOL    C7541311   4.286   7.777   5.869 -0.1247 -0.2642 -0.6533
  339MOL   Cl7641312   4.222   7.717   6.018  0.0385  0.1730  0.1076
  339MOL    H7741313   4.473   7.653   5.867 -1.1369 -1.1512 -1.1599
  339MOL    H7841314   4.454   7.754   5.729  0.8172 -1.1205  0.4618
  339MOL    H7941315   4.280   7.886   5.878  1.5214 -0.2206  0.0484
  339MOL    C8041316   4.200   7.724   5.751  0.2319  0.4702  0.1471
  339MOL    C8141317   4.050   7.761   5.766  0.4130 -0.9180 -0.4509
  339MOL   Cl8241318   3.976   7.741   5.608 -0.1224 -0.1216  0.2817
  339MOL    H8341319   4.207   7.616   5.740 -3.6942  0.4059 -2.4898
  339MOL    H8441320   4.244   7.766   5.660  0.3068  0.6186  0.2511
  339MOL    H8541321   4.005   7.687   5.832  1.7164 -1.2905  0.0205
  339MOL    C8641322   4.015   7.903   5.809 -0.4964  0.9789  0.1104
  339MOL    C8741323   3.866   7.924   5.851  0.3641  0.5765  0.1173
  339MOL   Cl8841324   3.826   8.100   5.864 -0.2348  0.2353  0.4375
  339MOL    H8941325   4.049   7.972   5.732 -3.0150  2.9979  0.7595
  339MOL    H9041326   4.067   7.934   5.899 -2.0334 -1.6010  1.9565
  339MOL    H9141327   3.794   7.895   5.774  3.0394 -1.4249 -1.6965
  339MOL    C9241328   3.816   7.857   5.987 -0.2177 -0.8884  0.2516
  339MOL    C9341329   3.667   7.873   6.021  0.6061  0.3084 -0.4683
  339MOL   Cl9441330   3.646   7.811   6.180  0.3825 -0.3655 -0.3077
  339MOL    H9541331   3.876   7.902   6.066  0.4673 -3.6395  1.3784
  339MOL    H9641332   3.845   7.752   5.987  2.5485 -0.1705 -0.6496
  339MOL    H9741333   3.632   7.976   6.017 -3.1526 -0.8393  0.9046
  339MOL    C9841334   3.562   7.795   5.931 -0.1306 -0.1409  0.0174
  339MOL    C9941335   3.415   7.816   5.962  0.8083  0.8380  0.6024
  339MOL  Cl10041336   3.335   7.670   5.907 -0.2611 -0.0200 -0.5357
  339MOL   H10141337   3.589   7.690   5.941  0.4951 -0.0935 -1.1470
  339MOL   H10241338   3.575   7.823   5.826  0.6787  3.8723  1.1172
  339MOL   H10341339   3.398   7.824   6.069 -0.5875  1.0059  0.3844
  339MOL   C10441340   3.357   7.940   5.889 -0.1506 -0.5306 -0.3555
  339MOL   C10541341   3.209   7.984   5.911 -0.3205  0.0492 -0.3334
  339MOL  Cl10641342   3.183   8.146   5.840  0.3444  0.0988 -0.2662
  339MOL   H10741343   3.375   7.925   5.783 -1.4917  1.4893 -0.8823
  339MOL   H10841344   3.418   8.028   5.908 -1.4236 -0.1541  2.2526
  339MOL   H10941345   3.146   7.914   5.857  0.7793 -1.5296  0.3826
  339MOL   C11041346   3.163   7.994   6.056 -0.5874  0.3075 -0.1342
  339MOL   C11141347   3.008   8.031   6.080  0.7411 -1.4541 -0.1956
  339MOL  Cl11241348   2.987   8.206   6.103 -0.1045 -0.5929  0.1650
  339MOL   H11341349   3.225   8.062   6.115  0.7805 -1.5817  0.6359
  339MOL   H11441350   3.190   7.898   6.100  0.2969  0.9305  0.6930
  339MOL   H11541351   2.949   8.017   5.989  1.2720 -0.9970 -0.6114
  339MOL   C11641352   2.947   7.960   6.204 -0.0680 -0.1531 -0.3224
  339MOL   C11741353   2.798   7.934   6.203  0.3388  0.2081 -0.4235
  339MOL  Cl11841354   2.744   7.829   6.075  0.3095 -0.6808 -0.1551
  339MOL   H11941355   2.962   8.028   6.288  4.4735 -2.2025  0.6604
  339MOL   H12041356   3.004   7.869   6.218 -0.8404 -0.6112 -0.1320
  339MOL   H12141357   2.784   7.886   6.300  1.3785  0.2749 -0.2288
  339MOL   H12241358   2.741   8.027   6.202  0.5461  0.3478  0.6293
  340MOL     C141359   5.569   2.964   7.522 -0.1108  0.2583 -0.1930
  340MOL     C241360   5.581   2.914   7.377  0.2937 -0.1455  0.1538
  340MOL    Cl341361   5.423   2.899   7.304  0.0752  0.5186 -0.3203
  340MOL     H441362   5.507   3.053   7.539  1.0092  0.8951  0.6055
  340MOL     H541363   5.528   2.882   7.582 -0.5903  0.9703  0.4734
  340MOL     H641364   5.631   2.991   7.318 -2.0228  0.7604 -0.6692
  340MOL     H741365   5.669   2.986   7.560  0.0188 -2.0717  0.8838
  340MOL     C841366   5.662   2.775   7.359 -0.6719  0.4208 -0.0851
  340MOL     C941367   5.806   2.764   7.405 -0.5251  0.0034 -1.0906
  340MOL   Cl1041368   5.898   2.897   7.332  0.5155  0.2648  0.4730
  340MOL    H1141369   5.656   2.759   7.251 -0.1452  1.5930 -0.3045
  340MOL    H1241370   5.604   2.692   7.398  0.2372 -0.3809 -0.4304
  340MOL    H1341371   5.801   2.774   7.514 -4.3308  1.5986 -1.3354
  340MOL    C1441372   5.857   2.624   7.365 -0.3138 -0.4946  0.0773
  340MOL    C1541373   6.003   2.600   7.407 -0.3585  0.4692 -0.4008
  340MOL   Cl1641374   6.046   2.438   7.337  0.2400  0.3543  0.0691
  340MOL    H1741375   5.849   2.618   7.257 -1.9394 -0.1596  0.1715
  340MOL    H1841376   5.784   2.549   7.394 -0.1396 -0.4543  0.6330
  340MOL    H1941377   6.070   2.674   7.364  0.1499  1.0578  1.3662
  340MOL    C2041378   6.015   2.600   7.565 -0.1019 -0.3180 -0.1156
  340MOL    C2141379   6.150   2.543   7.613 -0.2288  0.7939 -0.0523
  340MOL   Cl2241380   6.129   2.509   7.787  0.1691 -0.1805 -0.0728
  340MOL    H2341381   5.951   2.527   7.613  1.4410 -1.6518 -0.0507
  340MOL    H2441382   5.997   2.703   7.597 -2.7664 -0.0005 -2.4465
  340MOL    H2541383   6.170   2.444   7.574  1.4016  1.1054 -0.0415
  340MOL    C2641384   6.272   2.636   7.598 -0.1014  0.4974 -0.4879
  340MOL    C2741385   6.340   2.640   7.463 -0.0491 -0.5487 -0.4227
  340MOL   Cl2841386   6.411   2.481   7.425  0.3885  0.3414 -0.2624
  340MOL    H2941387   6.337   2.618   7.684  0.3423  1.2327 -0.6701
  340MOL    H3041388   6.232   2.735   7.615 -0.2612  0.4316 -0.4781
  340MOL    H3141389   6.267   2.659   7.384 -0.5190  0.9125  0.3351
  340MOL    C3241390   6.451   2.740   7.448 -0.1567  0.0254 -0.7927
  340MOL    C3341391   6.413   2.889   7.477 -0.0544 -0.8171 -0.3510
  340MOL   Cl3441392   6.273   2.930   7.369 -0.1213 -0.0071  0.1246
  340MOL    H3541393   6.488   2.729   7.346  4.7939  3.0579  0.4621
  340MOL    H3641394   6.536   2.720   7.513 -1.1413  1.5099  1.0290
  340MOL    H3741395   6.388   2.899   7.583  1.7173  1.5690 -0.1065
  340MOL    C3841396   6.535   2.988   7.450  0.9435  0.0915  0.3439
  340MOL    C3941397   6.655   2.997   7.546  0.1844  0.0769 -0.3734
  340MOL   Cl4041398   6.609   3.092   7.692 -0.1099  0.4040  0.3942
  340MOL    H4141399   6.494   3.089   7.446  1.9280  0.6664  3.4085
  340MOL    H4241400   6.574   2.974   7.350 -0.4105 -0.5385 -0.1046
  340MOL    H4341401   6.677   2.894   7.570  0.0244  0.0827 -0.1985
  340MOL    C4441402   6.779   3.067   7.490  0.1431 -0.3431  0.2636
  340MOL    C4541403   6.835   3.009   7.357 -0.4687  0.0891  0.3205
  340MOL   Cl4641404   6.851   2.831   7.388 -0.6573  0.1776  0.4627
  340MOL    H4741405   6.859   3.054   7.563 -0.8900 -1.3978  1.2380
  340MOL    H4841406   6.762   3.174   7.480  1.8451 -0.1492 -0.6996
  340MOL    H4941407   6.757   3.019   7.282 -0.6303  0.6784  0.5668
  340MOL    C5041408   6.963   3.080   7.312 -0.1504 -0.1743  0.0358
  340MOL    C5141409   7.041   3.026   7.187 -0.2388  0.5552  0.2429
  340MOL   Cl5241410   7.187   3.134   7.180  0.0939  0.0792 -0.0010
  340MOL    H5341411   7.042   3.075   7.387  1.6722 -0.7094 -1.8457
  340MOL    H5441412   6.929   3.184   7.304  0.4116 -0.0796 -1.2930
  340MOL    H5541413   7.083   2.926   7.205  3.7867  2.0911 -0.0116
  340MOL    C5641414   6.964   3.042   7.056  0.2146 -0.4552 -0.1396
  340MOL    C5741415   7.009   2.953   6.932  0.6892  0.4316  0.1890
  340MOL   Cl5841416   6.955   2.785   6.947 -0.0241  0.4907 -0.2837
  340MOL    H5941417   6.962   3.145   7.021  1.2118 -0.5505 -0.4991
  340MOL    H6041418   6.857   3.024   7.070  0.3844 -0.0124  1.8339
  340MOL    H6141419   6.968   3.001   6.843 -0.1619 -1.8259 -0.6625
  340MOL    C6241420   7.159   2.937   6.901  0.2273 -0.2565 -0.2473
  340MOL    C6341421   7.210   3.061   6.824  0.4159 -0.4534 -0.5162
  340MOL   Cl6441422   7.143   3.042   6.656  0.2484 -0.2638 -0.0019
  340MOL    H6541423   7.192   2.851   6.844  0.1337 -1.6887  1.7925
  340MOL    H6641424   7.223   2.931   6.989  0.9444 -3.8182 -0.9589
  340MOL    H6741425   7.168   3.153   6.864 -1.6615 -1.5375 -0.1288
  340MOL    C6841426   7.361   3.071   6.818 -0.2731 -0.3109 -0.0519
  340MOL    C6941427   7.417   3.204   6.763  0.1612 -0.3031  0.5262
  340MOL   Cl7041428   7.589   3.206   6.810  0.1337 -0.1467  0.7058
  340MOL    H7141429   7.401   2.986   6.763  2.2760  0.4942  0.4945
  340MOL    H7241430   7.394   3.050   6.919  0.6023 -0.1698 -0.3011
  340MOL    H7341431   7.421   3.185   6.656  1.3263  2.5760  0.0013
  340MOL    C7441432   7.363   3.339   6.821 -0.4031  0.1865 -0.2021
  340MOL    C7541433   7.250   3.406   6.738  1.1668  0.9547  0.1313
  340MOL   Cl7641434   7.275   3.389   6.562  0.4073 -0.0892 -0.3725
  340MOL    H7741435   7.441   3.415   6.821 -1.0299  0.8566  1.3399
  340MOL    H7841436   7.335   3.323   6.925  2.2266  2.6652  0.9158
  340MOL    H7941437   7.163   3.348   6.767  2.8238 -1.4972  0.2801
  340MOL    C8041438   7.213   3.553   6.766  0.2875 -0.3943 -0.2887
  340MOL    C8141439   7.194   3.579   6.915  0.0867  0.0240 -0.1690
  340MOL   Cl8241440   7.075   3.464   6.986  0.2616  0.1729  0.4282
  340MOL    H8341441   7.124   3.568   6.705  0.9760 -0.3798 -1.3013
  340MOL    H8441442   7.296   3.615   6.730  0.2790 -0.9607 -1.3243
  340MOL    H8541443   7.287   3.564   6.970  0.9817 -1.4537 -2.0367
  340MOL    C8641444   7.142   3.725   6.931 -0.4592 -0.3396 -0.1225
  340MOL    C8741445   7.143   3.789   7.068 -0.0109  0.5911 -0.1532
  340MOL   Cl8841446   7.291   3.746   7.158 -0.2192 -0.0482  0.0511
  340MOL    H8941447   7.041   3.727   6.888 -1.2803 -1.0974  1.7165
  340MOL    H9041448   7.204   3.790   6.869  1.8203 -0.3603  2.0767
  340MOL    H9141449   7.141   3.897   7.054 -1.7685  0.3204 -2.1096
  340MOL    C9241450   7.022   3.750   7.154 -0.2400  0.0115  0.3739
  340MOL    C9341451   6.892   3.825   7.123  0.1092 -0.2726  0.2822
  340MOL   Cl9441452   6.908   3.992   7.181 -0.0246 -0.2963 -0.0739
  340MOL    H9541453   7.037   3.772   7.260  1.2217  2.3973 -0.2943
  340MOL    H9641454   6.996   3.644   7.158 -3.2316  0.6694 -0.1541
  340MOL    H9741455   6.867   3.836   7.017 -0.1778 -1.1467  0.2554
  340MOL    C9841456   6.757   3.764   7.185 -0.0222  0.4914  0.5905
  340MOL    C9941457   6.720   3.625   7.133  0.4789 -1.0674 -0.5891
  340MOL  Cl10041458   6.685   3.646   6.955 -0.2831  0.1743  0.0482
  340MOL   H10141459   6.675   3.834   7.173 -1.9333 -1.6845  0.5147
  340MOL   H10241460   6.767   3.759   7.294  0.5079  0.0826  0.5287
  340MOL   H10341461   6.803   3.556   7.144  0.5514 -0.9976 -0.7020
  340MOL   C10441462   6.597   3.567   7.206 -0.6558 -0.1705  1.0925
  340MOL   C10541463   6.558   3.424   7.177 -0.1918 -0.1100  0.2577
  340MOL  Cl10641464   6.689   3.312   7.235 -0.1848 -0.3039  0.5373
  340MOL   H10741465   6.511   3.630   7.181 -0.4035 -1.0620 -2.3121
  340MOL   H10841466   6.618   3.571   7.313  0.1765 -1.0009  0.9634
  340MOL   H10941467   6.468   3.397   7.233 -3.0007  3.2240 -2.4285
  340MOL   C11041468   6.530   3.385   7.031 -0.2280 -0.2694  0.3299
  340MOL   C11141469   6.402   3.451   6.965 -0.3314 -0.2835  0.0284
  340MOL  Cl11241470   6.266   3.423   7.083  0.2716  0.0280 -0.0483
  340MOL   H11341471   6.511   3.277   7.031 -0.6016 -0.2320 -1.7949
  340MOL   H11441472   6.623   3.390   6.973 -0.2766 -1.4274  0.1421
  340MOL   H11541473   6.416   3.559   6.962 -1.2088 -0.1126  1.5403
  340MOL   C11641474   6.362   3.391   6.836  0.0234 -0.4400  0.0557
  340MOL   C11741475   6.260   3.472   6.759  0.3105  0.0592 -0.0798
  340MOL  Cl11841476   6.194   3.371   6.630 -0.0224 -0.0196  0.3572
  340MOL   H11941477   6.303   3.301   6.856 -0.3264 -1.0442 -3.3717
  340MOL   H12041478   6.447   3.378   6.768  0.1573  2.3739 -0.3516
  340MOL   H12141479   6.173   3.501   6.819  0.3998  2.3562 -1.0305
  340MOL   H12241480   6.305   3.555   6.706  0.9437 -0.6418 -0.6388
  341MOL     C141481   1.222   8.167   4.379 -0.2888 -0.4524 -0.0541
  341MOL     C241482   1.238   8.268   4.492  0.0080 -0.1717 -0.5628
  341MOL    Cl341483   1.197   8.188   4.647  0.2620  0.2030 -0.3302
  341MOL     H441484   1.259   8.217   4.289 -0.9890 -0.9744 -0.6318
  341MOL     H541485   1.265   8.067   4.380  1.8311  0.4038 -0.8458
  341MOL     H641486   1.343   8.300   4.493  0.5778 -1.9978  0.6691
  341MOL     H741487   1.118   8.139   4.366 -0.4655  1.3845 -3.1654
  341MOL     C841488   1.139   8.385   4.469  0.4288  0.8046 -0.5023
  341MOL     C941489   1.165   8.512   4.556 -0.0764 -0.1820  0.2306
  341MOL   Cl1041490   1.110   8.484   4.728  0.1395  0.5753 -0.1070
  341MOL    H1141491   1.042   8.342   4.496  0.5100 -0.6780 -2.4960
  341MOL    H1241492   1.132   8.415   4.365  0.5710  0.4499 -0.6159
  341MOL    H1341493   1.271   0.012   4.557 -0.0629 -0.2176 -0.1757
  341MOL    C1441494   1.091   0.102   4.496 -0.8729  0.7085 -0.2737
  341MOL    C1541495   1.160   0.180   4.387  0.5770 -0.6678 -0.4174
  341MOL   Cl1641496   1.303   0.275   4.455 -0.1528 -0.5212  0.0624
  341MOL    H1741497   1.078   0.173   4.578 -0.6222 -0.9282  1.2155
  341MOL    H1841498   0.992   0.071   4.461 -1.7357  2.0752  0.8988
  341MOL    H1941499   1.193   0.114   4.306  0.7818 -0.5485 -0.4330
  341MOL    C2041500   1.060   0.294   4.333 -0.0108 -0.2390 -0.0915
  341MOL    C2141501   1.095   0.377   4.210 -0.5262 -0.2297  0.2946
  341MOL   Cl2241502   0.987   0.517   4.202  0.0634  0.4888  0.2239
  341MOL    H2341503   1.038   0.363   4.414 -0.9233 -3.5867  2.6218
  341MOL    H2441504   0.961   0.249   4.322 -1.3106  1.6131  3.3116
  341MOL    H2541505   1.193   0.422   4.229 -0.8985  2.0565 -2.6310
  341MOL    C2641506   1.100   0.296   4.077 -0.0451  0.2077 -0.0574
  341MOL    C2741507   1.131   0.380   3.951  0.0532 -0.3566 -0.0960
  341MOL   Cl2841508   1.136   0.265   3.809 -0.0391  0.0562  0.3528
  341MOL    H2941509   1.001   0.249   4.081 -0.5369  1.3067  1.1373
  341MOL    H3041510   1.169   0.212   4.079  0.4629  0.6347  0.3708
  341MOL    H3141511   1.046   0.448   3.941  0.0293 -0.4622 -0.6296
  341MOL    C3241512   1.254   0.467   3.940 -0.3258  0.3420 -0.1487
  341MOL    C3341513   1.389   0.388   3.903  0.1592  0.3240 -0.2626
  341MOL   Cl3441514   1.420   0.261   4.024 -0.2209 -0.2978 -0.0403
  341MOL    H3541515   1.264   0.524   4.032 -2.2268 -0.0362  0.3020
  341MOL    H3641516   1.242   0.545   3.864 -1.3627 -0.1880 -0.5271
  341MOL    H3741517   1.389   0.349   3.801 -1.0378 -2.3653  0.7240
  341MOL    C3841518   1.501   0.491   3.923 -0.5217  0.5166  0.0088
  341MOL    C3941519   1.645   0.449   3.867  0.2940  0.9482  0.2055
  341MOL   Cl4041520   1.636   0.441   3.685  0.0999  0.5520 -0.3006
  341MOL    H4141521   1.522   0.501   4.029  2.8522  0.1253 -0.5766
  341MOL    H4241522   1.463   0.583   3.879 -0.8866  0.5914  0.4736
  341MOL    H4341523   1.715   0.530   3.887 -0.2610  1.7476 -0.9880
  341MOL    C4441524   1.702   0.313   3.906 -0.2379  0.1403 -0.9482
  341MOL    C4541525   1.839   0.288   3.846  0.0315 -0.2295  0.1746
  341MOL   Cl4641526   1.815   0.198   3.686  0.1751 -0.4752  0.0898
  341MOL    H4741527   1.645   0.223   3.886  1.3681 -0.8299 -1.2460
  341MOL    H4841528   1.712   0.306   4.014 -0.9161  0.1613 -0.8844
  341MOL    H4941529   1.882   0.385   3.823  0.9957 -0.2227  1.8811
  341MOL    C5041530   1.935   0.206   3.930 -0.2582  0.5047 -0.3560
  341MOL    C5141531   2.083   0.203   3.881 -0.1054 -0.0117 -0.0123
  341MOL   Cl5241532   2.173   0.104   4.001 -0.4528  0.3029 -0.0085
  341MOL    H5341533   1.892   0.106   3.931  0.3371  0.1660 -3.1271
  341MOL    H5441534   1.931   0.237   4.034  0.2839  3.1072 -1.0708
  341MOL    H5541535   2.081   0.154   3.784  0.0228  1.1562 -0.6146
  341MOL    C5641536   2.149   0.335   3.853 -0.0627 -0.7578 -0.1716
  341MOL    C5741537   2.175   0.427   3.979 -0.0750 -0.1510  0.1171
  341MOL   Cl5841538   2.037   0.507   4.050  0.2525  0.1052 -0.1980
  341MOL    H5941539   2.086   0.388   3.781 -0.1846  0.1325  0.5792
  341MOL    H6041540   2.238   0.323   3.791 -1.0938  2.1700 -2.3541
  341MOL    H6141541   2.208   0.371   4.066 -0.7993  2.4955  2.1708
  341MOL    C6241542   2.263   0.544   3.931 -0.1326 -0.3640  0.2125
  341MOL    C6341543   2.330   0.621   4.047  0.0040 -0.7774 -0.3524
  341MOL   Cl6441544   2.371   0.789   3.989 -0.3067  0.3688 -0.8006
  341MOL    H6541545   2.199   0.612   3.875  0.2187 -3.4868 -4.2772
  341MOL    H6641546   2.345   0.520   3.863 -0.2130  0.0563 -0.0376
  341MOL    H6741547   2.255   0.650   4.120  1.1510  0.3366  0.3954
  341MOL    C6841548   2.457   0.556   4.107  0.3557  0.8057  0.3301
  341MOL    C6941549   2.490   0.572   4.263  0.8545 -0.2241 -0.4773
  341MOL   Cl7041550   2.362   0.477   4.336  0.1483  0.2442 -0.3330
  341MOL    H7141551   2.543   0.579   4.043 -0.4353 -1.6426 -1.7118
  341MOL    H7241552   2.447   0.450   4.083 -1.8853  0.7536  1.3823
  341MOL    H7341553   2.584   0.527   4.294  0.4301  0.4231  1.7988
  341MOL    C7441554   2.496   0.720   4.316 -0.2073 -0.2148 -0.2667
  341MOL    C7541555   2.612   0.805   4.262 -0.2735  0.5249 -0.4314
  341MOL   Cl7641556   2.758   0.712   4.291  0.0051  0.0737  0.3803
  341MOL    H7741557   2.511   0.712   4.424 -2.1658  2.9886  0.2987
  341MOL    H7841558   2.398   0.765   4.300  0.0840  0.2420 -0.7468
  341MOL    H7941559   2.604   0.823   4.155  2.6200 -2.6566 -1.2853
  341MOL    C8041560   2.629   0.937   4.334 -0.0951 -0.2408  0.3070
  341MOL    C8141561   2.524   1.042   4.297  0.1314  0.5021  0.5134
  341MOL   Cl8241562   2.559   1.092   4.133 -0.2635  0.0293 -0.3342
  341MOL    H8341563   2.730   0.973   4.314 -0.3477  0.9829  1.1826
  341MOL    H8441564   2.630   0.925   4.442 -0.0252 -1.3938  0.1895
  341MOL    H8541565   2.424   0.999   4.310  1.8277 -4.3310 -1.1657
  341MOL    C8641566   2.533   1.169   4.381  0.1501 -0.5836  0.2671
  341MOL    C8741567   2.475   1.170   4.520 -0.2199  0.1613  0.7081
  341MOL   Cl8841568   2.301   1.206   4.529  0.0217  0.3217  0.1126
  341MOL    H8941569   2.468   1.247   4.342 -0.4147 -1.4333 -0.5349
  341MOL    H9041570   2.634   1.209   4.379 -0.8374  2.0173 -1.6440
  341MOL    H9141571   2.486   1.068   4.559  1.1760  1.0404  2.7025
  341MOL    C9241572   2.549   1.276   4.601 -0.2176  0.8310  0.4535
  341MOL    C9341573   2.505   1.289   4.750  0.3122  0.1857  0.1783
  341MOL   Cl9441574   2.624   1.399   4.811 -0.1622 -0.0770 -0.0733
  341MOL    H9541575   2.534   1.373   4.554 -1.2290  0.9361  0.9853
  341MOL    H9641576   2.656   1.256   4.604  0.0674  2.3884  1.3915
  341MOL    H9741577   2.402   1.324   4.752  0.0639 -0.4854 -0.4173
  341MOL    C9841578   2.515   1.150   4.824  0.2809  0.0963  0.7369
  341MOL    C9941579   2.505   1.155   4.977 -0.3569  0.1223 -0.7713
  341MOL  Cl10041580   2.556   1.000   5.050  0.2095  0.2384 -0.1257
  341MOL   H10141581   2.602   1.091   4.793 -0.2517  0.3861 -1.3972
  341MOL   H10241582   2.430   1.089   4.792  0.4449 -0.2829  1.0118
  341MOL   H10341583   2.581   1.223   5.015  1.5871 -3.0427  1.2310
  341MOL   C10441584   2.379   1.207   5.050 -0.2569 -0.0610  0.6510
  341MOL   C10541585   2.252   1.124   5.034  0.4266  0.5548 -0.9117
  341MOL  Cl10641586   2.197   1.151   4.870  0.3645  0.2591  0.2741
  341MOL   H10741587   2.366   1.312   5.022 -0.7685  0.5664  3.1228
  341MOL   H10841588   2.423   1.208   5.150  3.5888 -1.4862 -0.9346
  341MOL   H10941589   2.282   1.020   5.052 -1.2160  0.1289 -0.5972
  341MOL   C11041590   2.146   1.172   5.139  0.3264 -0.0682 -0.1564
  341MOL   C11141591   2.180   1.148   5.286  0.6989  0.3560  0.1104
  341MOL  Cl11241592   2.175   0.977   5.322  0.2621 -0.0661 -0.3320
  341MOL   H11341593   2.056   1.113   5.118 -0.4565  1.4262 -1.1306
  341MOL   H11441594   2.116   1.274   5.114 -1.1769 -0.9136 -1.9586
  341MOL   H11541595   2.280   1.180   5.314 -0.1337  0.6378  2.8795
  341MOL   C11641596   2.065   1.210   5.361  0.2960  0.3220 -0.5921
  341MOL   C11741597   2.094   1.222   5.514 -0.8614 -0.8541  0.0393
  341MOL  Cl11841598   2.240   1.303   5.555 -0.3609 -0.2141 -0.4211
  341MOL   H11941599   1.974   1.151   5.359 -0.1531  0.9617  0.2842
  341MOL   H12041600   2.033   1.311   5.333 -0.7418  0.0986 -0.2496
  341MOL   H12141601   2.016   1.271   5.573 -2.1251 -2.3498 -0.3454
  341MOL   H12241602   2.098   1.119   5.548 -3.8775 -1.3252 -0.8165
  342MOL     C141603   0.517   7.878   7.503  0.4344  0.2979  0.3921
  342MOL     C241604   0.622   7.795   7.574  0.3365  0.5407 -0.8203
  342MOL    Cl341605   0.762   7.901   7.593 -0.1094  0.1610  0.2446
  342MOL     H441606   0.548   7.928   7.411  1.3298 -1.3648 -0.2397
  342MOL     H541607   0.443   7.803   7.474  1.8457 -0.0042 -2.6786
  342MOL     H641608   0.583   7.775   7.674 -0.9748 -2.6168 -1.8780
  342MOL     H741609   0.460   7.944   7.568  1.5314  1.0661  0.5857
  342MOL     C841610   0.655   7.658   7.501  0.3053  0.3824 -0.1640
  342MOL     C941611   0.559   7.542   7.511  0.3011 -0.4839 -0.1601
  342MOL   Cl1041612   0.525   7.513   7.683  0.0871 -0.1475 -0.1775
  342MOL    H1141613   0.748   7.609   7.531 -0.9320 -0.6835  2.0239
  342MOL    H1241614   0.685   7.684   7.399  1.8512 -0.4816  0.0512
  342MOL    H1341615   0.462   7.570   7.471  0.6935  1.3355  0.1175
  342MOL    C1441616   0.609   7.409   7.448  0.6781 -0.1491  0.1604
  342MOL    C1541617   0.621   7.400   7.295  0.3714  0.0493  0.1941
  342MOL   Cl1641618   0.461   7.436   7.229  0.2466  0.3993 -0.0035
  342MOL    H1741619   0.536   7.329   7.460 -1.1512  1.3696 -0.6683
  342MOL    H1841620   0.705   7.386   7.495  0.3531 -0.9376  0.4522
  342MOL    H1941621   0.684   7.478   7.252  0.3874 -0.8197 -1.3960
  342MOL    C2041622   0.674   7.253   7.254  0.7459  0.3036  0.1019
  342MOL    C2141623   0.707   7.226   7.107  0.5747  0.6401 -0.7749
  342MOL   Cl2241624   0.833   7.337   7.042 -0.0514  0.0375 -0.1365
  342MOL    H2341625   0.607   7.177   7.294 -0.3449  2.0930  1.7818
  342MOL    H2441626   0.767   7.228   7.305 -0.0111 -2.2220  0.3261
  342MOL    H2541627   0.747   7.125   7.110 -2.3404 -0.6203 -2.0525
  342MOL    C2641628   0.586   7.210   7.014 -0.2289 -0.1104  0.4301
  342MOL    C2741629   0.478   7.118   7.064  0.4039  0.0261  0.5548
  342MOL   Cl2841630   0.538   6.959   7.109 -0.0706 -0.2345 -0.2392
  342MOL    H2941631   0.628   7.171   6.920  0.7394  0.5708  0.5720
  342MOL    H3041632   0.541   7.305   6.985 -0.5737 -0.8038 -1.4208
  342MOL    H3141633   0.450   7.171   7.155 -0.6131  1.1361 -0.3927
  342MOL    C3241634   0.351   7.103   6.970 -0.3613 -0.9213 -0.1218
  342MOL    C3341635   0.238   7.028   7.042  0.5522  0.1650 -0.0464
  342MOL   Cl3441636   0.130   6.950   6.926 -0.0673  0.0998  0.0138
  342MOL    H3541637   0.382   7.053   6.878  0.4190 -0.9968  0.1747
  342MOL    H3641638   0.328   7.203   6.932 -1.5093 -1.0807  0.1624
  342MOL    H3741639   0.281   6.952   7.106  0.9786 -0.3057 -0.8784
  342MOL    C3841640   0.153   7.125   7.124 -0.3903 -0.7624  0.2850
  342MOL    C3941641   0.046   7.055   7.216  0.3861 -0.5124  0.1960
  342MOL   Cl4041642   8.444   7.172   7.271  0.0731  0.0796 -0.4606
  342MOL    H4141643   0.114   7.194   7.048  1.9214  2.4267  1.8921
  342MOL    H4241644   0.215   7.199   7.175  1.0667 -1.2103 -0.8021
  342MOL    H4341645   8.516   6.994   7.145 -0.5726  1.3680 -0.7166
  342MOL    C4441646   0.094   6.971   7.331 -0.6426  0.2308 -0.4772
  342MOL    C4541647   0.166   7.039   7.452  0.5180  0.4507 -0.1387
  342MOL   Cl4641648   0.333   7.063   7.399  0.0724  0.1114 -0.1770
  342MOL    H4741649   0.146   6.882   7.298 -0.1141 -0.1746  1.3657
  342MOL    H4841650   0.004   6.931   7.378 -0.8437  0.4186 -0.6949
  342MOL    H4941651   0.120   7.136   7.474 -0.4903 -0.2445  0.8758
  342MOL    C5041652   0.166   6.958   7.579  0.0069  0.0583 -0.0245
  342MOL    C5141653   0.268   6.994   7.687 -0.5052  0.0207 -0.0021
  342MOL   Cl5241654   0.287   6.863   7.807 -0.2498 -0.1864 -0.2273
  342MOL    H5341655   0.204   6.859   7.553 -1.4584 -0.4145 -0.4187
  342MOL    H5441656   0.068   6.930   7.617 -0.7848  1.0389 -1.3067
  342MOL    H5541657   0.371   7.009   7.655 -0.2960  0.6392  0.9236
  342MOL    C5641658   0.220   7.125   7.762 -0.1730 -0.2186  0.2434
  342MOL    C5741659   0.081   7.132   7.823  0.5119 -0.8619  0.1488
  342MOL   Cl5841660   0.026   7.298   7.832 -0.3783 -0.3811 -0.0704
  342MOL    H5941661   0.223   7.206   7.689 -0.1992 -3.9011 -4.0012
  342MOL    H6041662   0.288   7.166   7.837 -0.7881  2.9059 -0.8445
  342MOL    H6141663   0.008   7.089   7.754 -0.0633 -1.9623  1.4246
  342MOL    C6241664   0.048   7.056   7.951  0.7446  0.7518  0.4823
  342MOL    C6341665   0.148   7.065   8.066 -0.4063 -0.3016  0.3841
  342MOL   Cl6441666   0.114   6.927   8.168  0.1797  0.2210 -0.4279
  342MOL    H6541667   0.056   6.952   7.919  2.0627  0.5171  1.5282
  342MOL    H6641668   8.474   7.074   7.992  0.8563  1.9355  0.2213
  342MOL    H6741669   0.248   7.062   8.023 -0.8244 -1.0089 -0.5433
  342MOL    C6841670   0.140   7.186   8.162 -0.0962 -0.7324  0.1015
  342MOL    C6941671   0.263   7.215   8.247 -0.1386 -0.7173  0.5542
  342MOL   Cl7041672   0.408   7.252   8.154 -0.0187  0.0371 -0.0318
  342MOL    H7141673   0.051   7.181   8.225 -0.3904 -0.9353 -0.3280
  342MOL    H7241674   0.123   7.277   8.104 -1.0715  0.3247  2.0140
  342MOL    H7341675   0.241   7.308   8.300  0.4450  0.2852 -0.9214
  342MOL    C7441676   0.290   7.121   8.364 -0.0246  0.7165 -0.6502
  342MOL    C7541677   0.173   7.092   8.458  0.2015  0.7725 -0.2104
  342MOL   Cl7641678   0.093   7.245   8.491  0.3801 -0.0449 -0.2198
  342MOL    H7741679   0.362   7.165   8.433 -1.0037 -1.5419  1.8908
  342MOL    H7841680   0.331   7.025   8.335  0.0409  0.1225  1.3047
  342MOL    H7941681   0.097   7.026   8.414  0.3396  0.4786 -0.0115
  342MOL    C8041682   0.213   7.027   0.063 -0.5972 -0.0974 -1.1234
  342MOL    C8141683   0.250   6.882   0.068  0.3088  0.6709 -0.3454
  342MOL   Cl8241684   0.108   6.786   0.084  0.7524  0.1605  0.1093
  342MOL    H8341685   0.133   7.047   0.135 -1.0009 -0.3827 -1.4952
  342MOL    H8441686   0.292   7.084   0.112 -0.4780 -2.4156  1.5287
  342MOL    H8541687   0.294   6.868   8.495 -0.3077 -0.9996 -0.4073
  342MOL    C8641688   0.349   6.853   0.181  0.1286  0.3150 -0.5697
  342MOL    C8741689   0.435   6.714   0.190 -0.4732 -0.8683  0.1315
  342MOL   Cl8841690   0.560   6.704   0.062 -0.0571  0.0323  0.0443
  342MOL    H8941691   0.289   6.862   0.272 -0.6830 -2.5528 -0.7823
  342MOL    H9041692   0.428   6.928   0.181  1.6805 -1.2693 -3.5806
  342MOL    H9141693   0.499   6.709   0.278  1.4370 -1.8727 -1.2598
  342MOL    C9241694   0.352   6.586   0.197  0.0779 -0.0615 -0.4435
  342MOL    C9341695   0.260   6.559   0.320 -0.0326 -0.7292  0.2467
  342MOL   Cl9441696   0.351   6.591   0.468 -0.3870 -0.0809 -0.0518
  342MOL    H9541697   0.421   6.502   0.209  0.8520  0.6791  0.4207
  342MOL    H9641698   0.296   6.577   0.104  1.4756 -0.0868 -1.3067
  342MOL    H9741699   0.174   6.625   0.312  1.2460  1.1870  1.9163
  342MOL    C9841700   0.207   6.416   0.333 -0.3979 -0.1138 -0.2388
  342MOL    C9941701   0.129   6.373   0.213 -0.2460  0.4784  0.0113
  342MOL  Cl10041702   8.509   6.472   0.183 -0.5326  0.0039  0.0676
  342MOL   H10141703   0.152   6.409   0.427 -0.2975 -1.2784 -0.2682
  342MOL   H10241704   0.289   6.349   0.354  0.6897  1.6224  1.1830
  342MOL   H10341705   0.190   6.374   0.123 -3.2671  0.4290 -2.1199
  342MOL   C10441706   0.075   6.220   0.228  0.2634  0.0101 -0.3502
  342MOL   C10541707   0.011   6.154   0.106 -0.0265 -0.6234  0.5963
  342MOL  Cl10641708   8.493   5.988   0.170 -0.0141 -0.0578 -0.2451
  342MOL   H10741709   0.008   6.211   0.313 -1.0411 -0.0918 -1.3710
  342MOL   H10841710   0.168   6.169   0.251 -0.2869 -1.1700 -0.7154
  342MOL   H10941711   8.443   6.204   0.083 -0.8573 -1.8698  1.1649
  342MOL   C11041712   0.114   6.142   8.511  0.1817  0.4329  0.1412
  342MOL   C11141713   0.050   6.100   8.378  0.3114 -0.4012 -0.1890
  342MOL  Cl11241714   0.178   6.048   8.261  0.0919  0.2434 -0.3149
  342MOL   H11341715   0.181   6.062   0.019  1.1392  0.4452 -1.6945
  342MOL   H11441716   0.180   6.227   8.498  1.7288 -0.2713  3.0228
  342MOL   H11541717   8.511   6.016   8.403 -0.9359  0.5078 -0.2813
  342MOL   C11641718   8.481   6.207   8.324  0.4358 -0.1747  0.3905
  342MOL   C11741719   8.430   6.166   8.187  0.0588  0.5280 -0.5405
  342MOL  Cl11841720   8.271   6.251   8.153 -0.0624  0.2613  0.1439
  342MOL   H11941721   0.010   6.301   8.316  2.7307 -1.3643  1.4155
  342MOL   H12041722   8.395   6.224   8.389  1.0589  1.3755  0.8321
  342MOL   H12141723   8.493   6.210   8.110 -0.7871  3.0263  0.1452
  342MOL   H12241724   8.417   6.060   8.169  3.7036 -0.2131  0.7996
  343MOL     C141725   3.130   2.267   5.604 -0.1796  0.4031  0.8440
  343MOL     C241726   3.106   2.134   5.667  0.0344  0.1366 -0.3965
  343MOL    Cl341727   2.943   2.085   5.631 -0.1337  0.2942  0.0858
  343MOL     H441728   3.103   2.274   5.498  2.1911 -0.8797  0.1173
  343MOL     H541729   3.058   2.331   5.655 -1.8716 -0.3878 -0.5148
  343MOL     H641730   3.173   2.066   5.614 -0.4182 -1.2052  0.7304
  343MOL     H741731   3.230   2.306   5.624 -0.2910  0.9846  0.3006
  343MOL     C841732   3.154   2.127   5.818  0.5686 -0.1122  0.0056
  343MOL     C941733   3.137   1.989   5.895  0.3438  0.0165 -0.1775
  343MOL   Cl1041734   3.200   2.021   6.063 -0.5863 -0.0569  0.3300
  343MOL    H1141735   3.111   2.212   5.871 -2.4260 -0.8792 -1.0953
  343MOL    H1241736   3.262   2.144   5.823  0.6300 -0.6596  0.5640
  343MOL    H1341737   3.035   1.953   5.901  0.4375 -0.8208 -2.9343
  343MOL    C1441738   3.212   1.874   5.837  0.2416 -0.9730  1.1030
  343MOL    C1541739   3.186   1.735   5.905  0.3130  0.2963  0.1259
  343MOL   Cl1641740   3.315   1.618   5.864 -0.0078  0.0595  0.2284
  343MOL    H1741741   3.312   1.918   5.843 -0.7323  1.4083  0.0909
  343MOL    H1841742   3.197   1.865   5.730  3.2103  0.5890  0.5091
  343MOL    H1941743   3.198   1.743   6.014  2.9159  1.3903 -0.2074
  343MOL    C2041744   3.049   1.670   5.879  0.4112  0.1381 -0.0390
  343MOL    C2141745   2.988   1.600   5.999 -0.3951  0.0632 -0.3885
  343MOL   Cl2241746   2.978   1.708   6.141 -0.0972 -0.4208 -0.1587
  343MOL    H2341747   3.060   1.617   5.784 -2.2139  0.2374 -0.4288
  343MOL    H2441748   2.975   1.747   5.859 -0.2550  0.2070  2.5912
  343MOL    H2541749   2.887   1.581   5.965 -0.9588 -1.3159  1.9487
  343MOL    C2641750   3.061   1.466   6.041 -0.3783  0.1866  0.4598
  343MOL    C2741751   3.078   1.358   5.936 -0.6280  0.3348  0.3238
  343MOL   Cl2841752   2.924   1.308   5.860 -0.1993 -0.0379  0.0222
  343MOL    H2941753   3.002   1.424   6.122 -0.1187  0.3938  0.7581
  343MOL    H3041754   3.165   1.490   6.065  0.8239 -2.8808 -1.4001
  343MOL    H3141755   3.139   1.396   5.853 -1.2222 -1.0668 -0.7690
  343MOL    C3241756   3.138   1.235   5.996  0.4853 -0.0982  0.5314
  343MOL    C3341757   3.287   1.240   6.036 -0.4407  0.0058 -0.0765
  343MOL   Cl3441758   3.393   1.210   5.886 -0.2498 -0.1255  0.2192
  343MOL    H3541759   3.113   1.153   5.929  1.2531  0.1413 -0.0620
  343MOL    H3641760   3.072   1.228   6.082 -1.6416  1.7578 -0.8803
  343MOL    H3741761   3.311   1.337   6.079 -0.1440 -0.3216  0.4970
  343MOL    C3841762   3.336   1.151   6.157 -0.1001  0.7545 -0.6364
  343MOL    C3941763   3.268   1.188   6.287 -0.4095  0.1222 -0.8080
  343MOL   Cl4041764   3.320   1.343   6.341 -0.0921 -0.3550  0.4799
  343MOL    H4141765   3.444   1.148   6.169  0.0370 -0.6278 -2.0319
  343MOL    H4241766   3.317   1.049   6.124  1.8967 -0.6339  2.3159
  343MOL    H4341767   3.161   1.183   6.266 -0.3443 -0.6141 -0.9817
  343MOL    C4441768   3.298   1.089   6.406  0.1213 -0.2091 -0.3079
  343MOL    C4541769   3.210   0.954   6.407 -0.1481  0.4808 -0.6183
  343MOL   Cl4641770   3.041   1.005   6.451  0.2437 -0.3015 -0.1640
  343MOL    H4741771   3.262   1.127   6.502  1.5409 -0.7275  0.4419
  343MOL    H4841772   3.400   1.052   6.408 -0.3176 -1.4200  0.7659
  343MOL    H4941773   3.206   0.897   6.314 -2.1415 -1.0921  0.4133
  343MOL    C5041774   3.260   0.841   6.509 -0.6231  0.2734 -0.1352
  343MOL    C5141775   3.273   0.889   6.657 -0.0572  0.4851  0.2844
  343MOL   Cl5241776   3.429   0.964   6.678  0.2353  0.3273 -0.5015
  343MOL    H5341777   3.351   0.801   6.465 -1.3327 -1.0712 -0.4109
  343MOL    H5441778   3.186   0.763   6.492 -0.6348  0.9891 -4.0333
  343MOL    H5541779   3.204   0.968   6.684  0.1508  0.8232 -0.1720
  343MOL    C5641780   3.263   0.777   6.761 -0.3609  0.9318  0.5087
  343MOL    C5741781   3.146   0.767   6.855  0.4646  0.5438 -0.0302
  343MOL   Cl5841782   3.181   0.659   6.988 -0.0756 -0.3127 -0.0146
  343MOL    H5941783   3.348   0.790   6.828  1.8541  1.1154 -2.2415
  343MOL    H6041784   3.281   0.682   6.710 -0.5934  1.1274  0.0613
  343MOL    H6141785   3.131   0.866   6.900  2.7308  0.4015  1.1111
  343MOL    C6241786   3.015   0.724   6.780  0.0991 -0.1878  0.0127
  343MOL    C6341787   2.896   0.686   6.864 -0.2458 -0.1448  0.0291
  343MOL   Cl6441788   2.779   0.623   6.758  0.0590 -0.0424 -0.0992
  343MOL    H6541789   3.051   0.633   6.731 -0.2901  1.0876 -2.7424
  343MOL    H6641790   2.988   0.791   6.698 -1.5599 -1.1162 -0.2208
  343MOL    H6741791   2.927   0.607   6.933 -1.1998 -1.4912 -1.0635
  343MOL    C6841792   2.822   0.800   6.951 -0.7182  0.0079  0.2611
  343MOL    C6941793   2.772   0.925   6.874 -0.3591 -0.8872 -0.7427
  343MOL   Cl7041794   2.908   1.017   6.798 -0.0548  0.4802 -0.6736
  343MOL    H7141795   2.888   0.837   7.030 -2.2978 -0.4163  1.8035
  343MOL    H7241796   2.736   0.760   7.005 -2.0333  4.1488  1.4278
  343MOL    H7341797   2.708   0.895   6.792 -2.3383 -0.3717  0.5820
  343MOL    C7441798   2.686   1.020   6.956 -0.4363  0.6506  1.1537
  343MOL    C7541799   2.538   1.042   6.917 -0.5052 -0.1114  0.5259
  343MOL   Cl7641800   2.463   0.879   6.931  0.1021  0.2589  0.2304
  343MOL    H7741801   2.740   1.115   6.953 -1.3814  1.1674  0.3788
  343MOL    H7841802   2.699   1.000   7.063  1.1678  1.6421  1.1804
  343MOL    H7941803   2.499   1.105   6.997 -0.1118  0.0067  0.6219
  343MOL    C8041804   2.509   1.098   6.781  0.4588  0.5192  0.1917
  343MOL    C8141805   2.569   1.238   6.745  0.3256  0.8198  1.1639
  343MOL   Cl8241806   2.527   1.348   6.884  0.2122 -0.1495 -0.1961
  343MOL    H8341807   2.401   1.088   6.769  0.2876 -1.0997  2.8092
  343MOL    H8441808   2.551   1.025   6.711 -0.3625 -0.7150  0.9700
  343MOL    H8541809   2.676   1.220   6.742 -0.2392 -2.9797  0.0683
  343MOL    C8641810   2.524   1.288   6.608  0.2167  0.3645  0.7784
  343MOL    C8741811   2.596   1.412   6.549 -0.0593 -0.4836 -0.3172
  343MOL   Cl8841812   2.548   1.565   6.629 -0.0906  0.1210 -0.4222
  343MOL    H8941813   2.416   1.301   6.608  0.0394 -0.8429 -1.0461
  343MOL    H9041814   2.539   1.212   6.531  3.8306  1.3978  0.3515
  343MOL    H9141815   2.703   1.410   6.569 -0.2820  0.0535  0.9954
  343MOL    C9241816   2.573   1.446   6.393 -0.0402 -1.1456 -0.7171
  343MOL    C9341817   2.635   1.347   6.297 -0.1949  0.0246  0.2750
  343MOL   Cl9441818   2.818   1.344   6.319 -0.2239  0.0212  0.4708
  343MOL    H9541819   2.619   1.542   6.371  2.6250 -1.9023  1.2467
  343MOL    H9641820   2.464   1.454   6.383 -0.1797 -0.3342  1.2065
  343MOL    H9741821   2.601   1.245   6.310 -1.6839  0.2314 -1.7716
  343MOL    C9841822   2.597   1.386   6.152 -0.2238 -0.3509 -0.4284
  343MOL    C9941823   2.452   1.391   6.103 -0.1253  0.6972  0.2133
  343MOL  Cl10041824   2.377   1.232   6.130  0.4177 -0.0749 -0.1733
  343MOL   H10141825   2.648   1.314   6.088  0.1173 -1.8157  1.4585
  343MOL   H10241826   2.637   1.484   6.125 -0.3727 -0.0872  0.2950
  343MOL   H10341827   2.399   1.465   6.163 -1.3770 -0.2942  0.3491
  343MOL   C10441828   2.426   1.404   5.952  0.0495 -0.3055  0.6307
  343MOL   C10541829   2.460   1.528   5.887 -0.3669  1.0045  0.1206
  343MOL  Cl10641830   2.340   1.653   5.948 -0.3129  0.2513  0.0269
  343MOL   H10741831   2.322   1.382   5.927  0.5321 -2.0031  0.0409
  343MOL   H10841832   2.481   1.328   5.896 -0.9167  1.1433 -2.3739
  343MOL   H10941833   2.563   1.555   5.911 -0.6245  1.1973  0.9982
  343MOL   C11041834   2.453   1.511   5.731  0.2994 -0.1878 -0.6708
  343MOL   C11141835   2.509   1.621   5.642  0.0862  0.3784  0.2279
  343MOL  Cl11241836   2.428   1.616   5.481 -0.4538 -0.0889  0.4624
  343MOL   H11341837   2.345   1.505   5.715  0.4488  1.8522 -2.6717
  343MOL   H11441838   2.494   1.417   5.695  2.1244 -0.2826  1.5311
  343MOL   H11541839   2.474   1.716   5.683  0.7202  1.3760 -1.4845
  343MOL   C11641840   2.660   1.612   5.626 -0.4366  0.9790 -0.3668
  343MOL   C11741841   2.728   1.741   5.578 -0.0121  0.6570  0.1918
  343MOL  Cl11841842   2.899   1.703   5.550  0.1623 -0.3456 -0.1052
  343MOL   H11941843   2.689   1.534   5.556  0.4507 -0.2650  1.3495
  343MOL   H12041844   2.700   1.594   5.726 -1.0435 -1.8473 -0.5946
  343MOL   H12141845   2.675   1.780   5.492 -0.1771 -2.6274 -1.2549
  343MOL   H12241846   2.720   1.824   5.649 -1.6070  1.3604 -0.7741
  344MOL     C141847   5.762   2.264   7.829 -0.2744 -0.4090  0.0292
  344MOL     C241848   5.665   2.294   7.708 -1.2167 -0.3451 -0.6504
  344MOL    Cl341849   5.709   2.449   7.624 -0.2709 -0.1828 -0.0707
  344MOL     H441850   5.763   2.360   7.880  1.5784  0.4668 -1.5815
  344MOL     H541851   5.736   2.175   7.887  1.4258 -2.1686 -1.8263
  344MOL     H641852   5.660   2.221   7.627  1.1581 -0.4987 -0.6787
  344MOL     H741853   5.862   2.244   7.791 -0.5985 -3.8151  0.7792
  344MOL     C841854   5.519   2.295   7.748  0.4189 -0.2776 -0.1192
  344MOL     C941855   5.449   2.160   7.772 -0.9960  0.5896 -0.0245
  344MOL   Cl1041856   5.443   2.057   7.624 -0.2835 -0.3119  0.0328
  344MOL    H1141857   5.469   2.339   7.662 -0.0468 -1.1932 -0.3197
  344MOL    H1241858   5.511   2.358   7.836 -0.1697  0.2556 -0.5497
  344MOL    H1341859   5.518   2.102   7.833 -1.6209 -1.5521 -1.3064
  344MOL    C1441860   5.317   2.179   7.846 -0.6920 -0.2956 -0.2972
  344MOL    C1541861   5.260   2.049   7.903 -0.5149 -0.1242  0.6130
  344MOL   Cl1641862   5.101   2.070   7.980  0.0417  0.0261 -0.2761
  344MOL    H1741863   5.249   2.238   7.785  1.1003  0.4049 -1.6773
  344MOL    H1841864   5.323   2.245   7.933 -1.5326  0.1008 -0.5378
  344MOL    H1941865   5.250   1.983   7.817 -2.9426 -2.2042  2.4042
  344MOL    C2041866   5.342   1.964   8.007 -0.1576 -0.0876  0.0678
  344MOL    C2141867   5.272   1.838   8.063  0.0217 -0.4946  0.2106
  344MOL   Cl2241868   5.351   1.775   8.208 -0.3257  0.1045  0.0955
  344MOL    H2341869   5.355   2.040   8.084 -0.7077  0.0588  0.0180
  344MOL    H2441870   5.442   1.941   7.972  0.9568  2.2033  1.6621
  344MOL    H2541871   5.173   1.865   8.098  0.4466  0.0490  1.0013
  344MOL    C2641872   5.260   1.735   7.946 -0.1189  0.3805 -0.3658
  344MOL    C2741873   5.389   1.666   7.897 -0.1156  0.2033 -0.1225
  344MOL   Cl2841874   5.429   1.733   7.737  0.0049 -0.0684 -0.3877
  344MOL    H2941875   5.209   1.788   7.865  1.2178  2.2027 -0.0611
  344MOL    H3041876   5.191   1.658   7.981 -0.6911  0.6110 -0.9705
  344MOL    H3141877   5.470   1.687   7.966 -0.3068  1.0776 -0.1480
  344MOL    C3241878   5.365   1.508   7.889 -0.1933 -0.4684 -0.4051
  344MOL    C3341879   5.359   1.431   8.024  0.1650 -0.0058 -0.3029
  344MOL   Cl3441880   5.523   1.447   8.094 -0.1709  0.4498 -0.3712
  344MOL    H3541881   5.448   1.464   7.832 -0.0520 -2.7277  1.4813
  344MOL    H3641882   5.275   1.491   7.830 -0.7871  2.0097 -0.2645
  344MOL    H3741883   5.286   1.479   8.090 -0.0632  2.3594 -2.2175
  344MOL    C3841884   5.336   1.279   8.013  0.2813 -0.2978  0.3303
  344MOL    C3941885   5.190   1.246   7.973  0.3840 -0.0323  0.3430
  344MOL   Cl4041886   5.088   1.287   8.109 -0.3475 -0.3563  0.3208
  344MOL    H4141887   5.354   1.227   8.108 -2.4310  0.7103  1.4362
  344MOL    H4241888   5.410   1.230   7.949  1.3986  0.1285  1.2651
  344MOL    H4341889   5.166   1.308   7.886 -1.2437 -0.5730  0.4057
  344MOL    C4441890   5.161   1.108   7.924  0.1385 -0.3782  0.0401
  344MOL    C4541891   5.234   1.060   7.797  0.4475 -0.6697  0.4985
  344MOL   Cl4641892   5.193   1.151   7.648  0.2569 -0.4074  0.1596
  344MOL    H4741893   5.055   1.108   7.900  0.1726  2.6744 -0.3316
  344MOL    H4841894   5.167   1.034   8.005 -0.3125 -1.8049 -1.2060
  344MOL    H4941895   5.342   1.059   7.808  0.5936  2.1660 -0.1903
  344MOL    C5041896   5.205   0.909   7.769  0.0404 -0.7147 -0.1954
  344MOL    C5141897   5.067   0.868   7.722  0.0273  0.0579  0.6399
  344MOL   Cl5241898   4.957   0.881   7.858 -0.2285  0.1469  0.0587
  344MOL    H5341899   5.222   0.850   7.859 -3.5434 -1.2711  0.1852
  344MOL    H5441900   5.287   0.859   7.716 -0.1282  0.6193 -1.7413
  344MOL    H5541901   5.030   0.936   7.646 -0.7617  0.6661  1.5626
  344MOL    C5641902   5.055   0.725   7.663  0.1883 -0.4029  0.4875
  344MOL    C5741903   5.144   0.688   7.542  0.0575  0.1346 -0.1787
  344MOL   Cl5841904   5.095   0.787   7.408 -0.2734 -0.5293  0.0532
  344MOL    H5941905   4.949   0.728   7.637 -0.3182  0.3104  2.4834
  344MOL    H6041906   5.071   0.659   7.748 -1.7033 -2.2707 -0.5612
  344MOL    H6141907   5.244   0.713   7.577 -1.2259  3.6597  1.2620
  344MOL    C6241908   5.151   0.541   7.502  0.7968  0.7245 -0.0265
  344MOL    C6341909   5.179   0.434   7.611  0.2265 -1.2722 -0.3033
  344MOL   Cl6441910   5.338   0.460   7.682  0.4229  0.1666  0.2794
  344MOL    H6541911   5.244   0.534   7.445  0.2810  1.1205 -0.9318
  344MOL    H6641912   5.070   0.515   7.435  2.0957  0.6620 -1.6163
  344MOL    H6741913   5.108   0.449   7.692 -0.7468  2.3091 -1.7320
  344MOL    C6841914   5.170   0.285   7.562  0.2893  0.7881 -0.2136
  344MOL    C6941915   5.051   0.246   7.471  0.0556 -0.1585  0.0211
  344MOL   Cl7041916   4.888   0.275   7.553 -0.0295  0.1233  0.4302
  344MOL    H7141917   5.190   0.220   7.647  0.3370  1.6225  0.4211
  344MOL    H7241918   5.258   0.273   7.499 -0.5372  1.1530 -1.4636
  344MOL    H7341919   5.039   0.303   7.378 -0.5481  0.3448  0.4009
  344MOL    C7441920   5.045   0.097   7.435  0.0204  0.8029  0.0620
  344MOL    C7541921   5.171   0.031   7.365 -0.4960 -0.5437  0.1316
  344MOL   Cl7641922   5.231   0.145   7.240  0.5077  0.0341 -0.2330
  344MOL    H7741923   4.952   0.094   7.378 -0.4158  2.0933  0.6803
  344MOL    H7841924   5.018   0.035   7.520  1.1211  1.2984  0.7936
  344MOL    H7941925   5.250   0.022   7.439  0.7626 -2.0000 -1.3448
  344MOL    C8041926   5.139   8.416   7.311 -0.0416 -0.1067  0.6237
  344MOL    C8141927   5.256   8.320   7.260 -0.3200  0.0855  0.0044
  344MOL   Cl8241928   5.312   8.370   7.089 -0.2039  0.2778  0.1153
  344MOL    H8341929   5.065   8.429   7.232  0.4604 -0.5837  0.0708
  344MOL    H8441930   5.100   8.364   7.398 -0.4830 -1.4150 -0.3384
  344MOL    H8541931   5.343   8.325   7.326 -0.0891 -2.1074 -0.1173
  344MOL    C8641932   5.206   8.169   7.238 -0.4307  0.3775  0.0929
  344MOL    C8741933   5.190   8.109   7.379  0.4871  0.2771 -1.3746
  344MOL   Cl8841934   5.343   8.090   7.473  0.5479 -0.1908  0.3237
  344MOL    H8941935   5.284   8.111   7.189 -2.8501  0.6247 -4.3043
  344MOL    H9041936   5.115   8.163   7.179 -1.3757  1.5583  1.3723
  344MOL    H9141937   5.133   8.180   7.438 -0.3552 -0.6456 -1.0849
  344MOL    C9241938   5.116   7.975   7.369  0.4314  0.3887 -0.1813
  344MOL    C9341939   5.027   7.937   7.490 -0.6514 -0.8847  0.4566
  344MOL   Cl9441940   4.903   8.067   7.516  0.0837 -0.6151 -0.4831
  344MOL    H9541941   5.191   7.897   7.357 -0.2252  0.0592 -2.3277
  344MOL    H9641942   5.048   7.976   7.283 -2.4396  0.3334  2.0293
  344MOL    H9741943   4.969   7.845   7.473 -1.3548 -0.1743 -1.0883
  344MOL    C9841944   5.096   7.905   7.621  0.4202  0.6842 -0.3033
  344MOL    C9941945   5.192   7.785   7.618 -0.0114 -0.6509 -0.2712
  344MOL  Cl10041946   5.101   7.649   7.554  0.3772 -0.0800  0.2257
  344MOL   H10141947   5.030   7.868   7.699  1.7151 -2.8950 -0.8349
  344MOL   H10241948   5.146   7.993   7.662  2.3128 -1.0378  1.1546
  344MOL   H10341949   5.270   7.802   7.544 -1.2891 -0.4676 -1.5846
  344MOL   C10441950   5.242   7.730   7.749 -0.4822  0.3826 -0.1634
  344MOL   C10541951   5.342   7.820   7.827 -0.5037  0.0386  0.1827
  344MOL  Cl10641952   5.501   7.807   7.746  0.1976 -0.3933  0.3373
  344MOL   H10741953   5.287   7.632   7.738 -0.1497  0.1437  2.8068
  344MOL   H10841954   5.158   7.709   7.815 -1.2150  1.9535 -0.5657
  344MOL   H10941955   5.309   7.922   7.805  2.6696  1.1031  0.0364
  344MOL   C11041956   5.351   7.784   7.975  0.4602  0.5013 -0.3216
  344MOL   C11141957   5.451   7.858   8.062  0.1007 -0.1950  0.2180
  344MOL  Cl11241958   5.460   7.801   8.231 -0.0583  0.2087  0.1882
  344MOL   H11341959   5.361   7.676   7.982  0.1390  0.2344 -3.4377
  344MOL   H11441960   5.249   7.800   8.009  0.9481 -1.2232  2.0732
  344MOL   H11541961   5.546   7.828   8.016  1.0921  1.8595  0.8411
  344MOL   C11641962   5.448   8.011   8.055  0.4173  0.4032  0.1065
  344MOL   C11741963   5.592   8.067   8.082  0.0342  0.6445  0.0846
  344MOL  Cl11841964   5.577   8.253   8.062 -0.0417  0.1148  0.2104
  344MOL   H11941965   5.382   8.054   8.130  2.3200  0.1324  1.9949
  344MOL   H12041966   5.407   8.042   7.959  0.3305  0.8084  0.2768
  344MOL   H12141967   5.624   8.052   8.185  1.5926  1.5055 -0.2611
  344MOL   H12241968   5.669   8.032   8.014  0.1180  0.2882  0.3586
  345MOL     C141969   6.964   0.019   7.780  0.6886 -0.0809 -0.1192
  345MOL     C241970   7.040   0.045   7.649 -0.0942 -0.0362 -0.3975
  345MOL    Cl341971   6.927   0.074   7.516 -0.0438  0.3098 -0.1851
  345MOL     H441972   7.033   8.507   7.856  0.3947 -0.5907 -0.1010
  345MOL     H541973   6.929   0.116   7.813  0.0663 -0.1196 -0.6604
  345MOL     H641974   7.106   0.132   7.661 -0.2926  0.0125  0.3825
  345MOL     H741975   6.881   8.475   7.768  0.5710  0.2170 -1.0613
  345MOL     C841976   7.122   8.451   7.602  1.2551  0.2992 -0.2847
  345MOL     C941977   7.257   8.421   7.679  0.7682 -0.0424  0.1265
  345MOL   Cl1041978   7.369   0.020   7.633 -0.3145  0.2073  0.5259
  345MOL    H1141979   7.156   8.460   7.499  1.3528 -1.2316 -0.3983
  345MOL    H1241980   7.045   8.374   7.607 -0.2413  1.6724 -1.6165
  345MOL    H1341981   7.233   8.437   7.784 -1.2080  2.2107 -0.6403
  345MOL    C1441982   7.323   8.279   7.650  0.2877 -0.1468 -0.4008
  345MOL    C1541983   7.244   8.154   7.688 -0.4536 -0.0461 -0.0936
  345MOL   Cl1641984   7.244   8.141   7.868 -0.0700  0.1208 -0.0220
  345MOL    H1741985   7.414   8.271   7.710 -0.2814  0.7673  0.5965
  345MOL    H1841986   7.351   8.273   7.545  0.6865 -2.3334 -0.1982
  345MOL    H1941987   7.142   8.178   7.657 -0.0209 -0.0890 -1.6135
  345MOL    C2041988   7.307   8.025   7.636 -0.5956  0.0426  0.7042
  345MOL    C2141989   7.219   7.906   7.658 -0.6324  0.3887 -0.1111
  345MOL   Cl2241990   7.306   7.759   7.620  0.1966 -0.2912 -0.2463
  345MOL    H2341991   7.397   8.004   7.693  0.3434  0.8094 -0.4612
  345MOL    H2441992   7.328   8.037   7.529 -0.1346  1.1217  0.9061
  345MOL    H2541993   7.212   7.906   7.767  0.1632  1.4725 -0.0586
  345MOL    C2641994   7.088   7.920   7.586  0.7050 -0.6201 -0.2390
  345MOL    C2741995   7.000   7.799   7.600  0.2787 -0.0986 -0.1254
  345MOL   Cl2841996   6.861   7.816   7.487  0.2937 -0.2971 -0.2586
  345MOL    H2941997   7.092   7.955   7.483  1.1761 -0.4110 -0.1515
  345MOL    H3041998   7.028   7.994   7.639  1.1311 -0.4249 -0.0334
  345MOL    H3141999   7.045   7.709   7.560  3.7401  0.3609  2.5529
  345MOL    C3242000   6.946   7.776   7.740 -0.8087  0.1353  0.0112
  345MOL    C3342001   6.811   7.700   7.762  0.2024  0.1716  0.4755
  345MOL   Cl3442002   6.772   7.701   7.939  0.1901  0.0427  0.0312
  345MOL    H3542003   6.941   7.864   7.804 -1.7103 -0.9761  1.5131
  345MOL    H3642004   7.026   7.717   7.784 -2.0334 -1.3112  0.3676
  345MOL    H3742005   6.728   7.751   7.714  0.2800 -1.2781 -1.2301
  345MOL    C3842006   6.824   7.552   7.717  0.3816  0.0195 -0.4904
  345MOL    C3942007   6.696   7.480   7.712 -0.1380 -0.0769  0.1015
  345MOL   Cl4042008   6.736   7.309   7.691 -0.0048  0.3424 -0.1650
  345MOL    H4142009   6.890   7.503   7.789  1.1350 -0.7672 -1.7030
  345MOL    H4242010   6.880   7.548   7.624  0.9395  3.4039 -0.3868
  345MOL    H4342011   6.659   7.477   7.815 -0.6423 -0.4376 -0.0904
  345MOL    C4442012   6.593   7.523   7.597 -0.1464  0.0051 -0.2784
  345MOL    C4542013   6.456   7.449   7.612  0.4965  0.5989 -0.9165
  345MOL   Cl4642014   6.436   7.350   7.467 -0.0069 -0.2278 -0.1737
  345MOL    H4742015   6.631   7.494   7.499 -0.5770  2.9050 -1.3538
  345MOL    H4842016   6.580   7.631   7.607  0.5142 -0.1760  2.9812
  345MOL    H4942017   6.464   7.384   7.699  1.6604  1.6501 -0.2265
  345MOL    C5042018   6.342   7.543   7.634 -0.0269 -0.0402 -0.0525
  345MOL    C5142019   6.325   7.663   7.532  0.2050  0.6196  0.6423
  345MOL   Cl5242020   6.397   7.812   7.607 -0.2274 -0.1055  0.0978
  345MOL    H5342021   6.339   7.570   7.740 -0.4882  0.1267 -0.1050
  345MOL    H5442022   6.247   7.489   7.633 -0.4116  0.6411 -2.0451
  345MOL    H5542023   6.384   7.643   7.442 -2.2691  0.8111 -1.0540
  345MOL    C5642024   6.171   7.675   7.496 -0.3705 -0.1355  0.7271
  345MOL    C5742025   6.123   7.797   7.412 -0.1462 -0.1624 -0.3356
  345MOL   Cl5842026   5.946   7.809   7.424 -0.2976  0.0322  0.1000
  345MOL    H5942027   6.127   7.691   7.594 -1.0929  1.6984  0.1359
  345MOL    H6042028   6.117   7.586   7.467 -0.8098  0.0844  0.8687
  345MOL    H6142029   6.168   7.876   7.472 -0.0673 -0.0030 -0.6068
  345MOL    C6242030   6.174   7.806   7.264  0.7094 -0.0035  0.1116
  345MOL    C6342031   6.090   7.897   7.173 -0.1914  0.4020  0.0405
  345MOL   Cl6442032   6.142   7.858   7.009  0.2506  0.2122 -0.0198
  345MOL    H6542033   6.181   7.706   7.220  0.6081 -0.4559  1.1135
  345MOL    H6642034   6.276   7.843   7.257  1.1737 -0.8690  2.1165
  345MOL    H6742035   5.990   7.856   7.176 -0.8146  1.8673 -0.2386
  345MOL    C6842036   6.114   8.047   7.202 -0.0352  0.4604 -0.4579
  345MOL    C6942037   6.002   8.141   7.142 -0.2210  0.6534  0.2207
  345MOL   Cl7042038   6.075   8.306   7.132  0.2248  0.1482 -0.3311
  345MOL    H7142039   6.212   8.078   7.166  0.2376  1.6748  1.2575
  345MOL    H7242040   6.125   8.079   7.306  0.6626 -1.9783  0.2380
  345MOL    H7342041   5.985   8.112   7.038  1.6893 -0.2508  0.1475
  345MOL    C7442042   5.873   8.149   7.226  0.0452  0.2397  0.4304
  345MOL    C7542043   5.767   8.249   7.180  0.7518 -0.2108 -0.0660
  345MOL   Cl7642044   5.632   8.267   7.306  0.0660 -0.0059 -0.0359
  345MOL    H7742045   5.903   8.186   7.324 -0.4250  1.1146  0.2458
  345MOL    H7842046   5.828   8.051   7.237  0.9374 -0.0718  1.3973
  345MOL    H7942047   5.812   8.348   7.170  1.6824 -0.2327  3.0546
  345MOL    C8042048   5.690   8.197   7.059  0.8358  0.0981 -0.3879
  345MOL    C8142049   5.631   8.307   6.971  0.2905  0.0350  0.4200
  345MOL   Cl8242050   5.523   8.230   6.856 -0.2287 -0.3108 -0.0883
  345MOL    H8342051   5.604   8.135   7.085  0.8660  0.5309  0.7761
  345MOL    H8442052   5.760   8.133   7.005  1.0232 -0.6428  0.7101
  345MOL    H8542053   5.572   8.375   7.033 -0.1130 -1.3552  1.6006
  345MOL    C8642054   5.735   8.395   6.900  0.0013 -0.5619  0.1921
  345MOL    C8742055   5.683   8.514   6.819  0.4432 -0.4151  0.1537
  345MOL   Cl8842056   5.831   0.056   6.733 -0.1840  0.2838 -0.4582
  345MOL    H8942057   5.805   8.334   6.844  0.8018 -0.1815  0.7661
  345MOL    H9042058   5.796   8.440   6.978 -0.5341 -1.5350  1.2019
  345MOL    H9142059   5.616   8.483   6.739  2.2333 -0.8757 -1.2103
  345MOL    C9242060   5.612   0.102   6.898 -0.3522  1.0248  0.2782
  345MOL    C9342061   5.688   0.169   7.016 -0.4767 -0.0401 -0.2632
  345MOL   Cl9442062   5.662   0.072   7.166  0.1159  0.0859 -0.5176
  345MOL    H9542063   5.511   0.074   6.929  0.4872  0.6152  2.7198
  345MOL    H9642064   5.607   0.174   6.817 -0.5620  0.4394 -0.2306
  345MOL    H9742065   5.796   0.160   7.000 -0.3569  1.7721 -0.5330
  345MOL    C9842066   5.665   0.323   7.038  1.2187  0.4605 -0.0619
  345MOL    C9942067   5.534   0.371   7.097 -0.5705  0.2080  0.0253
  345MOL  Cl10042068   5.396   0.335   6.990 -0.3044 -0.1548 -0.3019
  345MOL   H10142069   5.678   0.368   6.939  2.4750 -0.4468 -0.3188
  345MOL   H10242070   5.744   0.368   7.097  1.7392 -1.5534  0.8142
  345MOL   H10342071   5.504   0.327   7.192 -2.1386  0.7639 -0.2039
  345MOL   C10442072   5.538   0.519   7.107  0.0398  0.5736  0.2688
  345MOL   C10542073   5.602   0.579   7.236 -0.0854  0.3246 -0.3180
  345MOL  Cl10642074   5.515   0.504   7.368 -0.4646 -0.0093  0.1816
  345MOL   H10742075   5.433   0.549   7.114 -0.1303 -0.1533  0.9007
  345MOL   H10842076   5.580   0.564   7.017  0.6537 -2.5407 -1.0573
  345MOL   H10942077   5.706   0.545   7.236 -0.4393 -0.7904 -0.0714
  345MOL   C11042078   5.574   0.730   7.254  0.1415  0.1447 -0.1004
  345MOL   C11142079   5.436   0.793   7.233 -0.6802  0.7235 -0.1828
  345MOL  Cl11242080   5.418   0.811   7.050 -0.3130  0.0507  0.0041
  345MOL   H11342081   5.638   0.779   7.180  2.6264 -2.0053  0.5504
  345MOL   H11442082   5.631   0.763   7.341 -0.9651 -0.4211  0.8520
  345MOL   H11542083   5.370   0.717   7.276  0.1318 -0.6788 -1.3524
  345MOL   C11642084   5.397   0.930   7.306 -0.5935 -0.1949 -0.2445
  345MOL   C11742085   5.489   1.038   7.265 -0.3338 -0.1000  0.1235
  345MOL  Cl11842086   5.430   1.201   7.311 -0.3331 -0.1669 -0.0357
  345MOL   H11942087   5.386   0.918   7.414  0.7378 -1.2620 -0.2081
  345MOL   H12042088   5.295   0.950   7.274 -0.4902 -0.8545 -1.0214
  345MOL   H12142089   5.585   1.018   7.313 -2.1691 -1.5062  3.4340
  345MOL   H12242090   5.510   1.035   7.158  3.9659  0.8931  0.8354
  346MOL     C142091   3.329   2.771   0.891  0.0532 -0.3657  0.4503
  346MOL     C242092   3.428   2.819   1.004 -0.0719  0.0379  0.4472
  346MOL    Cl342093   3.564   2.896   0.917  0.4396  0.4172 -0.0786
  346MOL     H442094   3.240   2.721   0.929 -0.8067  0.0206 -1.0067
  346MOL     H542095   3.295   2.849   0.823  0.0952 -0.5968  0.1625
  346MOL     H642096   3.385   2.891   1.073 -0.0964 -1.7182  2.3013
  346MOL     H742097   3.380   2.701   0.825 -1.1348 -1.3171  0.5121
  346MOL     C842098   3.487   2.701   1.087 -0.0536  0.3693 -0.1889
  346MOL     C942099   3.382   2.628   1.177  0.8832  0.4183 -0.2113
  346MOL   Cl1042100   3.301   2.754   1.287 -0.0126  0.2427  0.1943
  346MOL    H1142101   3.559   2.739   1.159  2.2922  1.3369 -2.9707
  346MOL    H1242102   3.526   2.635   1.011 -1.3438  0.1353 -0.6557
  346MOL    H1342103   3.306   2.572   1.122  0.0566  0.6508  0.6872
  346MOL    C1442104   3.454   2.521   1.265 -0.4881  0.3972 -0.5884
  346MOL    C1542105   3.487   2.391   1.198  0.4641  0.2765 -0.4320
  346MOL   Cl1642106   3.348   2.283   1.184  0.3776 -0.3913 -0.0898
  346MOL    H1742107   3.384   2.491   1.343 -1.4403  1.0933 -1.1529
  346MOL    H1842108   3.541   2.566   1.312 -1.4252  0.4277  1.1651
  346MOL    H1942109   3.517   2.409   1.095  0.3224 -0.0722 -0.5348
  346MOL    C2042110   3.605   2.314   1.270  0.8188 -0.0942  0.5468
  346MOL    C2142111   3.651   2.182   1.202  0.5081 -0.6404 -0.5199
  346MOL   Cl2242112   3.766   2.100   1.307 -0.0183  0.1290 -0.0577
  346MOL    H2342113   3.596   2.295   1.377  0.5897  1.1213  0.7498
  346MOL    H2442114   3.690   2.382   1.272 -0.9198  2.1273  1.2794
  346MOL    H2542115   3.562   2.118   1.201  0.8373 -1.2186  2.8550
  346MOL    C2642116   3.697   2.200   1.059 -0.3448 -1.5972 -0.0068
  346MOL    C2742117   3.762   2.071   1.002  0.1861 -0.2843  0.0467
  346MOL   Cl2842118   3.833   2.126   0.846 -0.1179 -0.0255  0.0558
  346MOL    H2942119   3.773   2.278   1.064 -0.1255 -1.7591 -0.7444
  346MOL    H3042120   3.614   2.242   1.002  0.8832  0.8268 -0.1043
  346MOL    H3142121   3.844   2.041   1.067  1.7345  1.6391 -0.9516
  346MOL    C3242122   3.661   1.960   0.971  0.4003 -0.3433 -0.7342
  346MOL    C3342123   3.733   1.830   0.932  0.1042 -0.5565  0.5227
  346MOL   Cl3442124   3.669   1.785   0.773  0.1624  0.2306  0.0693
  346MOL    H3542125   3.595   1.996   0.893 -1.2984 -0.2181  0.7248
  346MOL    H3642126   3.601   1.929   1.057  2.3086 -3.2180 -0.3419
  346MOL    H3742127   3.837   1.860   0.922  0.2267 -0.5893  1.7197
  346MOL    C3842128   3.701   1.716   1.021  0.2805  0.7609 -0.2942
  346MOL    C3942129   3.789   1.577   1.015  0.1867  0.0895  0.7497
  346MOL   Cl4042130   3.755   1.490   1.157 -0.3771  0.5508 -0.0693
  346MOL    H4142131   3.605   1.672   0.993  0.9807 -1.1394  0.2215
  346MOL    H4242132   3.695   1.746   1.126  1.8867 -0.7603  0.2517
  346MOL    H4342133   3.753   1.529   0.924 -0.1119  1.0575  0.3515
  346MOL    C4442134   3.938   1.602   1.010  0.1002  0.0349 -0.3914
  346MOL    C4542135   4.021   1.493   0.940 -0.4950  0.0059  0.0360
  346MOL   Cl4642136   3.974   1.464   0.773  0.3380 -0.2249 -0.2957
  346MOL    H4742137   3.987   1.633   1.102  1.8542 -1.4401 -0.7936
  346MOL    H4842138   3.955   1.682   0.937 -2.4334 -1.9674 -3.3068
  346MOL    H4942139   4.126   1.522   0.934 -0.9122  1.2521 -1.7588
  346MOL    C5042140   4.024   1.359   1.010  0.4379  0.3005 -0.0544
  346MOL    C5142141   4.080   1.362   1.155  0.0570  0.0238  0.3459
  346MOL   Cl5242142   4.244   1.430   1.152  0.0511  0.8372 -0.0201
  346MOL    H5342143   4.070   1.282   0.947  0.2310 -0.0029  0.1607
  346MOL    H5442144   3.921   1.326   0.999  0.8732 -0.8979 -0.6552
  346MOL    H5542145   4.024   1.418   1.231 -1.1960 -1.4119  0.5057
  346MOL    C5642146   4.088   1.216   1.211  0.1157  0.3566 -0.7217
  346MOL    C5742147   3.955   1.180   1.283  0.2326  0.7263 -0.2022
  346MOL   Cl5842148   3.947   1.247   1.450 -0.1519 -0.4695  0.0991
  346MOL    H5942149   4.161   1.200   1.290 -0.9306 -2.5283 -0.2929
  346MOL    H6042150   4.101   1.150   1.125  0.8532 -0.1107 -0.2536
  346MOL    H6142151   3.877   1.235   1.231 -0.6939 -1.2753 -0.9777
  346MOL    C6242152   3.907   1.035   1.286  0.3063 -0.3178  0.3325
  346MOL    C6342153   3.914   0.963   1.150 -0.7809 -0.4991  0.0706
  346MOL   Cl6442154   3.825   1.049   1.025  0.1740  0.0833  0.1286
  346MOL    H6542155   3.804   1.034   1.320 -0.6912 -2.1470 -2.5134
  346MOL    H6642156   3.968   0.985   1.361 -1.1283 -0.4813  1.3966
  346MOL    H6742157   4.017   0.961   1.115 -1.0776 -0.0040 -0.8631
  346MOL    C6842158   3.852   0.820   1.160 -0.1807  0.2744 -0.2288
  346MOL    C6942159   3.945   0.710   1.191 -0.0619  0.3033 -0.7391
  346MOL   Cl7042160   4.069   0.696   1.069  0.2438  0.1767 -0.3863
  346MOL    H7142161   3.819   0.785   1.062  0.7994  0.3297 -0.5832
  346MOL    H7242162   3.762   0.819   1.222  0.0533 -0.8829  0.1048
  346MOL    H7342163   4.006   0.732   1.278  2.7522  0.4221 -2.6525
  346MOL    C7442164   3.866   0.570   1.203 -0.0757  0.0824  0.3836
  346MOL    C7542165   3.932   0.448   1.277  0.3546 -0.1559 -0.3707
  346MOL   Cl7642166   4.070   0.379   1.195  0.1851  0.0920  0.1002
  346MOL    H7742167   3.850   0.542   1.099  0.0184  0.9515  0.1375
  346MOL    H7842168   3.770   0.575   1.255  0.4689 -1.8585  1.6306
  346MOL    H7942169   3.963   0.483   1.375  1.6579  2.0627 -1.5290
  346MOL    C8042170   3.825   0.334   1.287  0.2202 -0.5002  0.5659
  346MOL    C8142171   3.881   0.196   1.344  0.4400  0.3458  0.1314
  346MOL   Cl8242172   3.750   0.078   1.325 -0.4270  0.0329 -0.5821
  346MOL    H8342173   3.797   0.321   1.183  0.9202 -1.1913  0.4580
  346MOL    H8442174   3.740   0.369   1.345  0.3209 -0.8021  0.8933
  346MOL    H8542175   3.968   0.157   1.292 -0.3982 -2.7036  0.9170
  346MOL    C8642176   3.916   0.206   1.490 -0.1076  0.2832 -0.2001
  346MOL    C8742177   4.070   0.219   1.515 -0.1162  0.1435  0.2865
  346MOL   Cl8842178   4.147   0.065   1.480  0.2316  0.0310 -0.0651
  346MOL    H8942179   3.872   0.121   1.541  1.2244 -1.1295 -1.3820
  346MOL    H9042180   3.868   0.291   1.539 -1.0840 -1.2029  1.4838
  346MOL    H9142181   4.128   0.288   1.455  0.6652 -0.8961 -0.1671
  346MOL    C9242182   4.107   0.252   1.659  0.3433 -0.2336  0.3423
  346MOL    C9342183   4.081   0.403   1.701  0.2617  0.5849 -0.7424
  346MOL   Cl9442184   4.153   0.523   1.589  0.1451 -0.0736  0.1463
  346MOL    H9542185   4.214   0.235   1.659 -0.0715 -3.1956  1.9890
  346MOL    H9642186   4.052   0.185   1.724 -1.0462 -0.0327 -0.5873
  346MOL    H9742187   3.974   0.414   1.683  0.2835  2.5272  0.1459
  346MOL    C9842188   4.101   0.438   1.845  0.0993  0.2987  0.2029
  346MOL    C9942189   4.246   0.429   1.898 -0.0514  1.0582 -0.1472
  346MOL  Cl10042190   4.261   0.260   1.979 -0.0986  0.7674 -0.4189
  346MOL   H10142191   4.034   0.391   1.917  1.4704 -0.2950  1.1195
  346MOL   H10242192   4.066   0.541   1.848  2.0311  1.0656 -1.8773
  346MOL   H10342193   4.322   0.437   1.821 -0.4592  1.0584 -0.5514
  346MOL   C10442194   4.272   0.542   2.000  0.4195  0.1506 -0.2165
  346MOL   C10542195   4.308   0.678   1.935  0.4310  0.2684  1.0449
  346MOL  Cl10642196   4.461   0.664   1.843 -0.1557  0.1594 -0.0428
  346MOL   H10742197   4.357   0.515   2.063 -0.0850 -0.2781  0.2897
  346MOL   H10842198   4.187   0.555   2.068  0.2896 -0.6620 -0.2221
  346MOL   H10942199   4.235   0.699   1.857  0.9848  0.9085  0.6973
  346MOL   C11042200   4.328   0.787   2.043 -0.1625  0.3121 -0.5986
  346MOL   C11142201   4.329   0.937   2.005  0.5228  0.0760  0.7574
  346MOL  Cl11242202   4.373   1.038   2.156 -0.4074  0.3901 -0.1855
  346MOL   H11342203   4.420   0.769   2.099 -0.9142 -0.7573  0.3197
  346MOL   H11442204   4.248   0.781   2.116  0.2978 -2.3732 -0.2512
  346MOL   H11542205   4.408   0.957   1.932 -0.6206 -0.0846 -0.5478
  346MOL   C11642206   4.202   0.989   1.950 -0.4932 -0.1683 -0.2415
  346MOL   C11742207   4.234   1.123   1.877  0.1462  0.0109 -0.0807
  346MOL  Cl11842208   4.094   1.185   1.782  0.3677  0.1501 -0.5033
  346MOL   H11942209   4.114   0.991   2.014 -1.8412  0.7855 -2.0890
  346MOL   H12042210   4.169   0.924   1.869  1.5619  0.0885 -1.3185
  346MOL   H12142211   4.273   1.197   1.947 -1.0704  0.5685  0.0170
  346MOL   H12242212   4.312   1.105   1.803 -0.1456  0.4663 -0.4917
  347MOL     C142213   3.102   5.000   0.972 -0.0264 -0.8827  0.2192
  347MOL     C242214   3.116   5.002   1.123 -0.3109  0.1777  0.0069
  347MOL    Cl342215   3.055   5.155   1.179 -0.3359 -0.1874 -0.1582
  347MOL     H442216   3.148   5.093   0.939 -0.3953 -0.8931 -0.3326
  347MOL     H542217   3.162   4.920   0.926  1.2949 -0.6888  1.5618
  347MOL     H642218   3.046   4.929   1.164 -2.2511  0.3656 -2.8407
  347MOL     H742219   2.998   4.997   0.941 -0.1334 -1.7383  0.6390
  347MOL     C842220   3.258   4.973   1.179 -1.2622 -0.2361  0.0476
  347MOL     C942221   3.324   4.842   1.146  0.8614 -0.0895  0.0713
  347MOL   Cl1042222   3.211   4.707   1.160  0.1593  0.2503  0.2320
  347MOL    H1142223   3.245   4.983   1.287  2.0574  3.4423  0.2198
  347MOL    H1242224   3.324   5.055   1.152 -0.9208 -1.0679 -1.6975
  347MOL    H1342225   3.362   4.844   1.043  0.6973 -1.8602 -0.0392
  347MOL    C1442226   3.448   4.805   1.224  0.1362 -0.0397  0.0576
  347MOL    C1542227   3.556   4.907   1.216  0.1097  1.4889 -0.1696
  347MOL   Cl1642228   3.607   4.905   1.045 -0.2598  0.1109  0.2423
  347MOL    H1742229   3.487   4.709   1.188 -0.3935 -0.6142  1.0121
  347MOL    H1842230   3.411   4.795   1.326 -0.8593 -1.1005 -0.3914
  347MOL    H1942231   3.526   5.006   1.251  1.6034  2.2303 -0.9225
  347MOL    C2042232   3.678   4.857   1.294  0.5760  0.1161 -0.8350
  347MOL    C2142233   3.673   4.887   1.449 -0.0949 -0.6478 -0.8068
  347MOL   Cl2242234   3.639   5.068   1.478 -0.0518 -0.5147 -0.1560
  347MOL    H2342235   3.768   4.899   1.249  1.0167 -0.1317 -0.1961
  347MOL    H2442236   3.691   4.750   1.284  0.0300 -0.2042  1.5520
  347MOL    H2542237   3.584   4.837   1.487  0.4173 -1.7826 -1.0787
  347MOL    C2642238   3.793   4.844   1.523 -0.0378 -0.0482  0.3127
  347MOL    C2742239   3.774   4.852   1.676  0.0936  0.2521 -0.5365
  347MOL   Cl2842240   3.925   4.808   1.752  0.1911  0.4652 -0.1245
  347MOL    H2942241   3.876   4.906   1.488 -1.7097  1.8455 -0.3881
  347MOL    H3042242   3.818   4.741   1.495 -2.1122 -0.3919 -0.3993
  347MOL    H3142243   3.758   4.958   1.695  1.2702  0.1029  1.3389
  347MOL    C3242244   3.659   4.764   1.733 -0.2921 -0.3547  0.7798
  347MOL    C3342245   3.672   4.614   1.700 -0.3233 -0.0171  0.0659
  347MOL   Cl3442246   3.571   4.582   1.549  0.0959 -0.0308 -0.3287
  347MOL    H3542247   3.561   4.794   1.696  0.9825  0.1599 -2.3393
  347MOL    H3642248   3.647   4.786   1.839 -0.8811  0.7382  0.5021
  347MOL    H3742249   3.773   4.590   1.666  0.0850  1.0057  0.5216
  347MOL    C3842250   3.595   4.525   1.808  0.5747 -0.4249 -0.0865
  347MOL    C3942251   3.590   4.382   1.768  0.4378  0.1786  0.6580
  347MOL   Cl4042252   3.502   4.306   1.902 -0.4950  0.2436  0.0370
  347MOL    H4142253   3.491   4.557   1.814  0.7259 -0.1546  1.2766
  347MOL    H4242254   3.636   4.530   1.909  0.0646  0.4516  0.0844
  347MOL    H4342255   3.524   4.370   1.683 -0.8241 -1.8938  1.8772
  347MOL    C4442256   3.718   4.307   1.739  0.2703 -0.8562  0.2648
  347MOL    C4542257   3.723   4.160   1.688  0.0057  0.0299  0.4476
  347MOL   Cl4642258   3.613   4.131   1.541 -0.5022 -0.1139 -0.2441
  347MOL    H4742259   3.790   4.319   1.821 -1.9649 -1.3279  2.3557
  347MOL    H4842260   3.757   4.367   1.657  2.1654  1.6513  2.8856
  347MOL    H4942261   3.825   4.141   1.656 -0.8231 -1.3368 -1.5539
  347MOL    C5042262   3.702   4.047   1.794  0.4456  0.1493 -0.5211
  347MOL    C5142263   3.784   4.059   1.921  0.5763  0.0639  0.3820
  347MOL   Cl5242264   3.953   4.049   1.881 -0.3638 -0.0624 -0.0511
  347MOL    H5342265   3.739   3.958   1.745  1.5537  0.7550 -0.8046
  347MOL    H5442266   3.595   4.035   1.811  0.4292  0.3831 -0.4425
  347MOL    H5542267   3.763   4.150   1.977  2.0903  0.3948  0.4330
  347MOL    C5642268   3.743   3.938   2.009  0.0098 -0.0731  0.1597
  347MOL    C5742269   3.780   3.943   2.156 -0.2067  0.3018 -0.7118
  347MOL   Cl5842270   3.865   3.800   2.218  0.1370  0.2590  0.0127
  347MOL    H5942271   3.792   3.850   1.969 -0.1477 -0.3345  0.5397
  347MOL    H6042272   3.641   3.901   1.995 -1.2526  3.5050 -0.7487
  347MOL    H6142273   3.844   4.031   2.162  0.2353  0.0749 -1.9466
  347MOL    C6242274   3.654   3.968   2.243  0.2769 -0.5224 -0.6221
  347MOL    C6342275   3.590   4.105   2.208 -0.1613  0.1229  0.3682
  347MOL   Cl6442276   3.688   4.247   2.256  0.1652 -0.0380  0.0731
  347MOL    H6542277   3.692   3.976   2.345 -0.4596 -0.5773 -0.3444
  347MOL    H6642278   3.585   3.886   2.226 -1.3817  0.8696 -0.8038
  347MOL    H6742279   3.578   4.121   2.101  1.3604 -0.8842  0.0330
  347MOL    C6842280   3.449   4.126   2.273 -0.0551  0.2418  0.5737
  347MOL    C6942281   3.341   4.042   2.215 -0.1128  0.3377 -0.0390
  347MOL   Cl7042282   3.332   4.057   2.037  0.2374  0.8183 -0.2927
  347MOL    H7142283   3.427   4.232   2.258  0.3022  0.0295 -1.5411
  347MOL    H7242284   3.448   4.117   2.382  2.3900  2.2461  0.8139
  347MOL    H7342285   3.352   3.935   2.230 -1.1580  0.2879  0.4055
  347MOL    C7442286   3.209   4.082   2.288 -0.6699  0.0684 -0.6894
  347MOL    C7542287   3.087   3.983   2.275 -0.6261 -0.7845  0.4572
  347MOL   Cl7642288   3.134   3.818   2.317 -0.2927 -0.0044  0.1615
  347MOL    H7742289   3.179   4.186   2.273 -2.6101 -0.2466  0.8344
  347MOL    H7842290   3.222   4.079   2.396  1.8452  2.2764 -0.8786
  347MOL    H7942291   3.015   4.009   2.352 -0.0769  1.8507  0.1237
  347MOL    C8042292   3.028   3.981   2.134  0.6579  0.0441  0.2558
  347MOL    C8142293   2.984   4.117   2.079  0.4625  0.6589  0.1311
  347MOL   Cl8242294   2.866   4.193   2.196 -0.1422  0.5066 -0.1161
  347MOL    H8342295   2.943   3.914   2.128  0.4138  0.1849  2.1435
  347MOL    H8442296   3.097   3.926   2.070 -0.2869  1.3194 -1.9196
  347MOL    H8542297   3.075   4.177   2.082  0.3072  0.9001 -0.0495
  347MOL    C8642298   2.933   4.117   1.933  0.2320 -0.2457  0.0933
  347MOL    C8742299   2.963   4.253   1.868 -0.1517  0.1414 -0.0933
  347MOL   Cl8842300   3.136   4.290   1.844  0.1643  0.0856 -0.0484
  347MOL    H8942301   2.827   4.091   1.930 -0.0060  0.6575  0.7532
  347MOL    H9042302   2.997   4.048   1.877 -0.1115 -0.4044 -0.1125
  347MOL    H9142303   2.926   4.246   1.765  0.7577 -0.3649 -0.3988
  347MOL    C9242304   2.902   4.389   1.919  0.4131  0.1176 -0.3542
  347MOL    C9342305   2.745   4.401   1.925 -0.7345 -0.0454  0.4857
  347MOL   Cl9442306   2.671   4.397   1.760  0.2733  0.2190 -0.0106
  347MOL    H9542307   2.940   4.470   1.858  3.3310 -2.1583 -1.6557
  347MOL    H9642308   2.933   4.417   2.020  0.5359  0.3574 -0.4588
  347MOL    H9742309   2.713   4.313   1.980  1.4597 -2.3008 -1.7310
  347MOL    C9842310   2.693   4.530   1.985  0.0470  0.1409 -0.1289
  347MOL    C9942311   2.696   4.536   2.142 -0.1472  0.1343  0.0550
  347MOL  Cl10042312   2.598   4.403   2.212  0.0737 -0.0928  0.0855
  347MOL   H10142313   2.589   4.551   1.958  0.5212  3.7626  0.5886
  347MOL   H10242314   2.743   4.620   1.950  0.7549 -0.6107 -1.0494
  347MOL   H10342315   2.799   4.508   2.166  0.0269 -1.5572 -2.4702
  347MOL   C10442316   2.649   4.674   2.205 -0.6518 -0.1961  0.2726
  347MOL   C10542317   2.677   4.691   2.357 -0.3915 -0.1075 -0.5959
  347MOL  Cl10642318   2.569   4.824   2.411  0.1330 -0.0785  0.2423
  347MOL   H10742319   2.542   4.696   2.195 -0.5280 -0.6572 -2.6258
  347MOL   H10842320   2.692   4.748   2.136  1.8314 -0.8319  1.0852
  347MOL   H10942321   2.641   4.604   2.411  2.5917 -1.7524 -1.1967
  347MOL   C11042322   2.820   4.732   2.390  0.0709 -0.1930  0.1947
  347MOL   C11142323   2.851   4.762   2.536 -0.2402 -0.3302  0.5380
  347MOL  Cl11242324   3.024   4.802   2.530 -0.3831  0.3874 -0.4373
  347MOL   H11342325   2.847   4.814   2.323 -0.2291 -1.2335 -1.2362
  347MOL   H11442326   2.895   4.658   2.361  1.0946 -0.7946  4.1659
  347MOL   H11542327   2.802   4.851   2.575 -1.4072 -1.6396  2.2025
  347MOL   C11642328   2.843   4.648   2.632 -0.3697  0.1618  0.4059
  347MOL   C11742329   2.875   4.683   2.779  0.1342  0.4703 -0.1656
  347MOL  Cl11842330   2.831   4.534   2.872 -0.0722  0.0774  0.3362
  347MOL   H11942331   2.905   4.571   2.586  3.3301  2.2545  1.6805
  347MOL   H12042332   2.745   4.602   2.622 -1.2679  2.1102  0.2594
  347MOL   H12142333   2.979   4.709   2.801  0.4337  0.0441 -1.0533
  347MOL   H12242334   2.813   4.767   2.810  0.0886 -0.0893  1.2743
  348MOL     C142335   1.228   6.447   4.292  0.3511 -0.6118  0.4988
  348MOL     C242336   1.147   6.571   4.259  0.3434 -0.4158 -0.1385
  348MOL    Cl342337   0.977   6.517   4.213 -0.0952  0.5184  0.1755
  348MOL     H442338   1.232   6.375   4.210 -1.7691 -1.9132  1.5057
  348MOL     H542339   1.324   6.485   4.326 -0.1984  1.5592 -0.2976
  348MOL     H642340   1.133   6.632   4.348 -1.7149 -0.8704 -0.1367
  348MOL     H742341   1.179   6.392   4.372 -2.8560  1.6355  0.1565
  348MOL     C842342   1.199   6.661   4.147 -0.1511  0.4800 -0.1634
  348MOL     C942343   1.332   6.737   4.177 -0.0191 -0.3569 -0.0776
  348MOL   Cl1042344   1.298   6.874   4.287 -0.2017  0.0946 -0.1289
  348MOL    H1142345   1.129   6.739   4.119 -2.0994 -0.9124  0.7446
  348MOL    H1242346   1.215   6.592   4.063  0.0867 -0.6135  0.7667
  348MOL    H1342347   1.408   6.672   4.222 -1.1650 -0.0519  2.3321
  348MOL    C1442348   1.382   6.796   4.041 -0.6931  0.2077  0.1371
  348MOL    C1542349   1.447   6.686   3.943 -0.3613  0.1046  0.1726
  348MOL   Cl1642350   1.598   6.644   4.012 -0.2705 -0.2552 -0.1925
  348MOL    H1742351   1.456   6.874   4.062 -1.9082  1.3235  0.3970
  348MOL    H1842352   1.300   6.848   3.991 -0.7058 -0.9417 -1.0572
  348MOL    H1942353   1.379   6.601   3.939  0.2518 -0.4378  1.0317
  348MOL    C2042354   1.453   6.737   3.796  0.1153 -0.1741  0.5004
  348MOL    C2142355   1.495   6.631   3.692 -0.0731  0.2772 -0.3512
  348MOL   Cl2242356   1.555   6.706   3.543 -0.3624 -0.1256 -0.2817
  348MOL    H2342357   1.529   6.815   3.797  1.3007 -1.2798 -0.9127
  348MOL    H2442358   1.355   6.773   3.767  0.2619 -1.5842 -1.8795
  348MOL    H2542359   1.571   6.566   3.737 -0.2149  0.0496 -0.4378
  348MOL    C2642360   1.377   6.546   3.640 -0.1654  0.1893  1.0977
  348MOL    C2742361   1.381   6.408   3.707 -0.7358 -0.1152 -0.7539
  348MOL   Cl2842362   1.527   6.313   3.644 -0.2022 -0.4272 -0.1255
  348MOL    H2942363   1.388   6.538   3.532 -1.9894  1.1606  0.8126
  348MOL    H3042364   1.283   6.602   3.647 -0.4757 -0.0401 -0.7570
  348MOL    H3142365   1.386   6.422   3.815 -3.1129  0.2608 -0.6576
  348MOL    C3242366   1.252   6.328   3.678  0.0544  0.0764  0.2971
  348MOL    C3342367   1.112   6.367   3.731  0.5714 -0.5115 -0.1668
  348MOL   Cl3442368   1.121   6.353   3.911 -0.2052  0.5032 -0.3260
  348MOL    H3542369   1.274   6.224   3.703 -1.2348 -0.9017 -2.4069
  348MOL    H3642370   1.232   6.327   3.571  0.9778 -0.6112  0.1190
  348MOL    H3742371   1.105   6.474   3.711 -3.0535 -0.7183 -0.3128
  348MOL    C3842372   0.997   6.290   3.669 -0.0950  0.8468 -0.0668
  348MOL    C3942373   0.851   6.319   3.715  0.2707 -0.1100  0.6326
  348MOL   Cl4042374   0.786   6.191   3.818 -0.3337  0.0337  0.0437
  348MOL    H4142375   1.017   6.183   3.664  1.2929  1.1057 -0.3494
  348MOL    H4242376   1.002   6.324   3.566 -0.7927 -0.1767 -0.4387
  348MOL    H4342377   0.839   6.413   3.769  2.6335 -0.0989  1.2016
  348MOL    C4442378   0.747   6.323   3.600 -0.2188  0.1508 -0.0000
  348MOL    C4542379   0.765   6.446   3.512 -0.5424  0.6102 -0.0055
  348MOL   Cl4642380   0.789   6.585   3.612  0.1505 -0.1581 -0.4255
  348MOL    H4742381   0.648   6.314   3.645 -1.8682 -2.4125 -3.9508
  348MOL    H4842382   0.743   6.227   3.549 -1.0704  0.8113 -1.1696
  348MOL    H4942383   0.858   6.433   3.457  0.0967 -2.0846  1.6170
  348MOL    C5042384   0.650   6.482   3.412  0.0707 -0.5935 -0.1312
  348MOL    C5142385   0.667   6.603   3.316  0.0199  0.0342  0.4380
  348MOL   Cl5242386   0.522   6.643   3.227  0.5583  0.4549  0.9506
  348MOL    H5342387   0.559   6.501   3.470  0.4609  1.6738 -0.2182
  348MOL    H5442388   0.626   6.395   3.351 -1.9474 -0.6314  0.6851
  348MOL    H5542389   0.687   6.690   3.378 -0.2797 -0.5149  1.3215
  348MOL    C5642390   0.792   6.593   3.224 -0.6804 -0.1527  0.0416
  348MOL    C5742391   0.807   6.473   3.133  0.5069  0.3459 -0.0037
  348MOL   Cl5842392   0.978   6.444   3.095 -0.1681 -0.0705  0.0455
  348MOL    H5942393   0.886   6.593   3.279 -0.3150 -1.6709 -0.5388
  348MOL    H6042394   0.806   6.686   3.169 -0.6702  1.0468  2.0071
  348MOL    H6142395   0.770   6.381   3.178 -2.0895  0.5571 -1.6444
  348MOL    C6242396   0.737   6.496   2.998 -0.2344 -0.0144 -0.2664
  348MOL    C6342397   0.732   6.373   2.894  0.3442 -0.1977  0.1900
  348MOL   Cl6442398   0.877   6.390   2.788 -0.1676  0.5339 -0.1028
  348MOL    H6542399   0.793   6.580   2.955  1.2919 -0.4506  0.8081
  348MOL    H6642400   0.639   6.544   3.003 -0.9688 -1.7318  2.4753
  348MOL    H6742401   0.749   6.285   2.955 -0.5508 -0.6967 -0.2650
  348MOL    C6842402   0.594   6.366   2.814 -0.6631  0.7912  0.3749
  348MOL    C6942403   0.465   6.328   2.889  0.4649  0.0714  0.1964
  348MOL   Cl7042404   0.486   6.162   2.967  0.2869  0.4064  0.2777
  348MOL    H7142405   0.603   6.307   2.723  0.5824 -0.3498  1.2077
  348MOL    H7242406   0.585   6.464   2.766 -1.3169 -0.2425 -1.6545
  348MOL    H7342407   0.459   6.394   2.975  2.6912  0.7623 -0.1384
  348MOL    C7442408   0.341   6.335   2.795  0.6358  0.2091  0.0627
  348MOL    C7542409   0.195   6.336   2.852 -0.2033 -0.1798 -0.3595
  348MOL   Cl7642410   0.199   6.441   3.002  0.0337 -0.2203  0.4683
  348MOL    H7742411   0.341   6.260   2.716  0.8645 -0.0624  0.3229
  348MOL    H7842412   0.352   6.427   2.736  1.4549  0.0055 -0.1018
  348MOL    H7942413   0.127   6.395   2.791 -1.2271 -0.9031  0.0646
  348MOL    C8042414   0.131   6.200   2.895  0.6342  0.6674 -0.0628
  348MOL    C8142415   0.113   6.103   2.781 -0.4718 -0.3341  0.2973
  348MOL   Cl8242416   8.523   6.183   2.681 -0.2138 -0.2368  0.3426
  348MOL    H8342417   0.031   6.212   2.935  0.5373 -0.0103 -0.1000
  348MOL    H8442418   0.197   6.158   2.971 -0.7631  1.7246  1.7844
  348MOL    H8542419   0.202   6.103   2.718 -0.4230 -0.4521  0.3666
  348MOL    C8642420   0.055   5.971   2.822  1.2806 -1.1616  0.5371
  348MOL    C8742421   0.151   5.889   2.902  0.3039  0.9048  0.2538
  348MOL   Cl8842422   0.297   5.835   2.810 -0.1595  0.1989  0.3129
  348MOL    H8942423   0.021   5.915   2.735  1.1564 -0.8510  0.3855
  348MOL    H9042424   8.490   5.998   2.877 -1.2430 -1.4364 -3.3035
  348MOL    H9142425   0.188   5.943   2.990  4.0333 -0.1678 -0.5349
  348MOL    C9242426   0.086   5.757   2.955 -0.3278  0.3729 -0.6271
  348MOL    C9342427   8.522   5.775   3.076  0.2296  0.7157  0.6711
  348MOL   Cl9442428   0.091   5.843   3.217 -0.6745 -0.1250 -0.0098
  348MOL    H9542429   0.163   5.686   2.982 -1.1196 -0.7610 -1.2969
  348MOL    H9642430   0.046   5.713   2.864 -0.9959  0.8162 -0.5553
  348MOL    H9742431   8.441   5.844   3.051  0.0276  0.5905  0.9807
  348MOL    C9842432   8.443   5.647   3.115 -0.2420  0.3535  0.3566
  348MOL    C9942433   8.347   5.588   3.006 -0.2071  0.1087 -0.7542
  348MOL  Cl10042434   8.220   5.711   2.969  0.1568 -0.2635 -0.0906
  348MOL   H10142435   8.388   5.658   3.208 -0.0100  0.6338  0.4584
  348MOL   H10242436   8.518   5.575   3.147  1.3899  0.8444 -2.2625
  348MOL   H10342437   8.395   5.585   2.908 -0.2941  0.4935 -0.8070
  348MOL   C10442438   8.291   5.449   3.034 -0.0724  0.5519 -0.2678
  348MOL   C10542439   8.223   5.384   2.910 -0.0352  0.2851 -0.7989
  348MOL  Cl10642440   8.135   5.240   2.966  0.1249  0.0215  0.2580
  348MOL   H10742441   8.217   5.467   3.112  2.2117  0.3830  2.0052
  348MOL   H10842442   8.368   5.383   3.074 -0.4560 -1.2353 -2.3789
  348MOL   H10942443   8.142   5.454   2.889  2.7609  3.5276 -1.3283
  348MOL   C11042444   8.303   5.351   2.781  0.0088 -0.4673 -0.6555
  348MOL   C11142445   8.425   5.256   2.822 -0.2686  0.4438 -0.4137
  348MOL  Cl11242446   0.049   5.337   2.872  0.0982  0.0529 -0.1085
  348MOL   H11342447   8.337   5.438   2.725 -0.8554  0.2251 -0.1111
  348MOL   H11442448   8.245   5.286   2.716  2.0161 -1.6931 -1.3020
  348MOL   H11542449   8.402   5.180   2.896  0.0005  0.9504  0.1987
  348MOL   C11642450   8.463   5.185   2.682 -0.2328 -0.0304 -0.3286
  348MOL   C11742451   0.055   5.091   2.699  0.5840 -0.1504  0.0474
  348MOL  Cl11842452   0.073   4.986   2.555  0.3194  0.2241  0.1631
  348MOL   H11942453   8.481   5.264   2.609  2.5273 -0.1529  0.1635
  348MOL   H12042454   8.384   5.140   2.622  0.1638  0.9817 -1.6389
  348MOL   H12142455   0.143   5.155   2.690 -0.4929  1.3530 -0.1014
  348MOL   H12242456   0.060   5.025   2.785  0.7214 -1.3213 -0.8378
  349MOL     C142457   3.285   2.240   7.348  0.1849  0.1953  0.6966
  349MOL     C242458   3.210   2.133   7.423 -0.1765  0.8714  0.0480
  349MOL    Cl342459   3.331   2.032   7.502  0.0739 -0.0664  0.5423
  349MOL     H442460   3.209   2.306   7.306 -0.3319 -0.4952  0.5420
  349MOL     H542461   3.349   2.291   7.420  0.6557 -1.3521  1.3873
  349MOL     H642462   3.146   2.170   7.503 -0.8549 -0.2270  0.0299
  349MOL     H742463   3.354   2.209   7.270 -0.0477  0.3781  0.4164
  349MOL     C842464   3.130   2.046   7.320 -0.1701 -0.4065 -0.6479
  349MOL     C942465   3.012   2.126   7.257  0.5280  0.5735  0.2563
  349MOL   Cl1042466   2.898   2.173   7.392 -0.0801  0.5216  0.2960
  349MOL    H1142467   3.092   1.951   7.357  0.6333  0.8237  3.6489
  349MOL    H1242468   3.189   2.016   7.233 -1.5038  1.0960 -2.1145
  349MOL    H1342469   3.050   2.216   7.208 -0.2431  0.0177 -1.4002
  349MOL    C1442470   2.924   2.049   7.156 -0.0723  0.2616 -0.3202
  349MOL    C1542471   2.996   2.007   7.027  0.0983 -0.2826  0.0148
  349MOL   Cl1642472   3.089   2.144   6.956 -0.2057  0.4605 -0.0287
  349MOL    H1742473   2.838   2.108   7.124 -0.5289 -0.3403 -0.2102
  349MOL    H1842474   2.874   1.963   7.201 -1.5754  1.0847 -0.3967
  349MOL    H1942475   3.076   1.936   7.048  0.6050  0.0080 -0.9186
  349MOL    C2042476   2.901   1.946   6.920  0.1399 -0.1813  0.7782
  349MOL    C2142477   2.823   1.820   6.951 -0.3749 -0.0127  0.2874
  349MOL   Cl2242478   2.946   1.690   6.944 -0.0824  0.0865 -0.2438
  349MOL    H2342479   2.973   1.920   6.843 -1.3593 -0.0118 -0.7240
  349MOL    H2442480   2.837   2.018   6.870 -1.1582 -1.0483  1.1576
  349MOL    H2542481   2.792   1.822   7.055 -1.0977 -0.9761  0.0956
  349MOL    C2642482   2.703   1.784   6.864 -0.6684 -0.5256  0.3484
  349MOL    C2742483   2.571   1.872   6.898 -0.8885  0.0475  0.1306
  349MOL   Cl2842484   2.512   1.814   7.057  0.2213  0.4630  0.0803
  349MOL    H2942485   2.689   1.677   6.851  0.1145 -0.3720 -1.9338
  349MOL    H3042486   2.723   1.805   6.759 -1.4875 -1.2194  0.0513
  349MOL    H3142487   2.600   1.973   6.926 -0.4498  0.0396 -0.2882
  349MOL    C3242488   2.451   1.866   6.800 -0.7050  0.5188 -0.0208
  349MOL    C3342489   2.478   1.932   6.659  0.0628  0.6703  0.3187
  349MOL   Cl3442490   2.493   2.112   6.681 -0.0999 -0.2065  0.0215
  349MOL    H3542491   2.362   1.903   6.850 -0.0514 -1.5929  2.8673
  349MOL    H3642492   2.426   1.762   6.778  2.2087  0.0550 -1.3235
  349MOL    H3742493   2.572   1.894   6.618  0.3271  0.6896  0.8972
  349MOL    C3842494   2.353   1.901   6.580 -0.1928  0.3553  0.3204
  349MOL    C3942495   2.343   1.980   6.449 -0.2740  0.6001 -1.5426
  349MOL   Cl4042496   2.178   1.982   6.385  0.0691  0.1348  0.3375
  349MOL    H4142497   2.274   1.933   6.647 -0.0185 -0.2344  0.8121
  349MOL    H4242498   2.334   1.795   6.568 -0.2402  0.2823  1.0308
  349MOL    H4342499   2.367   2.086   6.458 -1.9327  0.9460 -0.7978
  349MOL    C4442500   2.442   1.910   6.350 -0.1477  0.4864 -0.4408
  349MOL    C4542501   2.485   1.978   6.222 -0.2106  0.2658  0.1413
  349MOL   Cl4642502   2.350   1.998   6.112 -0.3602 -0.2045 -0.1314
  349MOL    H4742503   2.397   1.815   6.320 -1.6730  1.3963 -1.1070
  349MOL    H4842504   2.534   1.886   6.402  0.8554  1.0141 -1.9354
  349MOL    H4942505   2.513   2.082   6.242 -1.5844  0.9712 -1.4145
  349MOL    C5042506   2.587   1.902   6.145  0.1498 -0.1589  1.1573
  349MOL    C5142507   2.613   1.948   6.001 -0.1537 -0.0290 -0.2225
  349MOL   Cl5242508   2.742   1.838   5.924  0.2972 -0.2021 -0.0013
  349MOL    H5342509   2.546   1.801   6.137  0.7126 -0.3529  0.6633
  349MOL    H5442510   2.683   1.902   6.197 -0.0976 -0.2089  1.6087
  349MOL    H5542511   2.524   1.937   5.938  0.5647  0.8272 -1.4066
  349MOL    C5642512   2.664   2.098   6.003 -0.3991 -0.1495 -0.7059
  349MOL    C5742513   2.670   2.165   5.870 -0.0226  0.7355 -0.1042
  349MOL   Cl5842514   2.762   2.317   5.886 -0.3156  0.1953 -0.5606
  349MOL    H5942515   2.758   2.108   6.057 -0.9087  2.0270 -0.1701
  349MOL    H6042516   2.597   2.154   6.067  1.3410 -1.1013  2.0279
  349MOL    H6142517   2.731   2.103   5.803  0.4746 -1.0560  1.9250
  349MOL    C6242518   2.536   2.196   5.806 -0.2038  0.0692  0.0937
  349MOL    C6342519   2.538   2.198   5.651 -0.0390 -0.5103 -1.1992
  349MOL   Cl6442520   2.528   2.033   5.585  0.1551 -0.0284  0.0914
  349MOL    H6542521   2.513   2.297   5.841  1.0215  0.2470  0.4048
  349MOL    H6642522   2.458   2.130   5.845 -0.8068  0.2989 -0.7061
  349MOL    H6742523   2.442   2.241   5.622  0.0337  0.0025 -0.7045
  349MOL    C6842524   2.652   2.280   5.583  0.0168  0.2751  0.1483
  349MOL    C6942525   2.620   2.431   5.583 -0.1059 -0.4735 -0.5968
  349MOL   Cl7042526   2.472   2.464   5.486 -0.0743  0.4396 -0.0465
  349MOL    H7142527   2.659   2.252   5.478 -1.3992  0.3729  0.0138
  349MOL    H7242528   2.751   2.264   5.626  0.8735  1.7610 -1.2495
  349MOL    H7342529   2.596   2.459   5.685 -2.3852 -1.4839 -0.8214
  349MOL    C7442530   2.739   2.525   5.549 -0.6652  0.1039 -0.9850
  349MOL    C7542531   2.739   2.654   5.638 -0.4325 -0.3098 -0.0468
  349MOL   Cl7642532   2.613   2.758   5.586  0.1526 -0.4838  0.3443
  349MOL    H7742533   2.752   2.548   5.443  2.0490  0.4241 -0.6199
  349MOL    H7842534   2.833   2.471   5.562 -0.4498  0.7519  0.2586
  349MOL    H7942535   2.711   2.633   5.741 -2.1323  0.1004 -0.4103
  349MOL    C8042536   2.873   2.718   5.629  0.5596 -0.0586  0.2328
  349MOL    C8142537   2.890   2.862   5.691  0.9724  0.8445  0.0750
  349MOL   Cl8242538   3.050   2.917   5.682  0.0363  0.4773  0.1576
  349MOL    H8342539   2.899   2.725   5.523  0.5696 -1.1530  0.1641
  349MOL    H8442540   2.942   2.652   5.682  1.2442 -1.0000 -1.7767
  349MOL    H8542541   2.827   2.933   5.638 -1.1953 -0.9894  0.1178
  349MOL    C8642542   2.841   2.876   5.837 -0.3469  0.4471 -0.4068
  349MOL    C8742543   2.929   2.811   5.950  0.2896 -0.1682  1.1540
  349MOL   Cl8842544   2.819   2.729   6.060  0.0489  0.1067  0.0854
  349MOL    H8942545   2.750   2.815   5.835 -1.1991  1.6868 -0.4236
  349MOL    H9042546   2.823   2.982   5.852  2.1998  1.0404 -1.3955
  349MOL    H9142547   2.997   2.737   5.909 -1.1420 -2.5250  2.9089
  349MOL    C9242548   3.023   2.904   6.033  0.8610 -0.1180 -0.2513
  349MOL    C9342549   2.953   3.009   6.117  0.9202  0.2828 -0.4565
  349MOL   Cl9442550   2.988   3.169   6.046 -0.3360 -0.1346 -0.5526
  349MOL    H9542551   3.086   2.961   5.965  0.6769 -0.1631 -0.4605
  349MOL    H9642552   3.074   2.833   6.099  1.6075  0.6783  0.0381
  349MOL    H9742553   2.845   2.996   6.116  0.8581  0.8185 -0.5940
  349MOL    C9842554   2.993   3.016   6.270  0.4668  0.5844  0.1317
  349MOL    C9942555   2.960   2.887   6.356 -0.3524  0.8329 -0.5183
  349MOL  Cl10042556   2.788   2.891   6.399  0.2563  0.3803 -0.7870
  349MOL   H10142557   2.952   3.101   6.324  0.9650 -0.0975  1.6192
  349MOL   H10242558   3.102   3.018   6.263  0.5412 -0.4462  0.8880
  349MOL   H10342559   2.984   2.793   6.305  0.2853  0.5588  0.2785
  349MOL   C10442560   3.050   2.885   6.491 -0.2225  0.0254  0.3944
  349MOL   C10542561   3.193   2.831   6.483 -0.9523 -0.5217  0.0069
  349MOL  Cl10642562   3.191   2.658   6.429  0.2828  0.0084 -0.1580
  349MOL   H10742563   3.006   2.816   6.563 -2.2504 -0.1064 -0.9245
  349MOL   H10842564   3.055   2.983   6.537  0.6951  0.2757 -0.2207
  349MOL   H10942565   3.237   2.882   6.398 -0.9704  0.3138  0.4940
  349MOL   C11042566   3.276   2.854   6.611  0.6895  0.5286  0.5791
  349MOL   C11142567   3.424   2.808   6.604 -0.6714 -0.9109  0.6876
  349MOL  Cl11242568   3.512   2.859   6.753  0.2466 -0.2289  0.1720
  349MOL   H11342569   3.220   2.806   6.691 -1.4262  2.0112  0.0330
  349MOL   H11442570   3.289   2.961   6.628  1.8901  1.0163 -3.0683
  349MOL   H11542571   3.430   2.702   6.582  0.2136 -1.0853  1.7302
  349MOL   C11642572   3.503   2.872   6.485 -0.2537 -0.6788  0.1776
  349MOL   C11742573   3.650   2.825   6.478  0.1533 -0.2291 -0.4791
  349MOL  Cl11842574   3.711   2.851   6.312 -0.3551  0.0882  0.0991
  349MOL   H11942575   3.502   2.981   6.484  1.3767 -0.5884  2.7536
  349MOL   H12042576   3.458   2.838   6.392  1.7772 -1.5344 -0.5101
  349MOL   H12142577   3.712   2.884   6.546  2.0149 -1.2282 -1.2759
  349MOL   H12242578   3.662   2.719   6.502  0.8256 -0.1095 -0.2780
  350MOL     C142579   5.559   2.130   3.699 -0.4164  0.4765 -0.2452
  350MOL     C242580   5.490   2.168   3.831  0.1575  0.2015  0.4327
  350MOL    Cl342581   5.315   2.203   3.799  0.2869  0.3352 -0.0228
  350MOL     H442582   5.657   2.082   3.703  0.1823  1.7608  1.0977
  350MOL     H542583   5.494   2.064   3.642 -0.6958  0.3685  0.1907
  350MOL     H642584   5.504   2.089   3.904  2.5494 -0.4655 -0.6681
  350MOL     H742585   5.571   2.219   3.637 -0.8802  0.0011 -1.0189
  350MOL     C842586   5.553   2.291   3.897 -0.0441  0.2267  0.4382
  350MOL     C942587   5.694   2.277   3.953 -1.0385 -0.0319  0.1102
  350MOL   Cl1042588   5.709   2.178   4.100 -0.8446  0.3206 -0.0603
  350MOL    H1142589   5.490   2.304   3.985 -0.0781  3.0526  0.0193
  350MOL    H1242590   5.540   2.377   3.833  2.9532 -1.2423 -2.2607
  350MOL    H1342591   5.758   2.239   3.873 -0.7579  0.1002  0.2738
  350MOL    C1442592   5.733   2.422   3.983 -0.1671 -0.3773  0.1622
  350MOL    C1542593   5.874   2.448   4.026 -0.1164 -0.0625 -0.7409
  350MOL   Cl1642594   5.867   2.623   4.067  0.2286 -0.3223  0.1087
  350MOL    H1742595   5.672   2.472   4.058  0.1797  0.2257  0.0453
  350MOL    H1842596   5.719   2.484   3.894  2.7986 -1.8643 -1.4352
  350MOL    H1942597   5.905   2.385   4.109 -3.3654 -0.2724  0.4021
  350MOL    C2042598   5.983   2.432   3.913  0.5472  0.0497 -0.3611
  350MOL    C2142599   6.122   2.423   3.971 -0.4197 -0.1785  0.4899
  350MOL   Cl2242600   6.232   2.520   3.872 -0.1438  0.0598 -0.4167
  350MOL    H2342601   5.983   2.508   3.835 -1.4230  0.9796  0.5191
  350MOL    H2442602   5.960   2.344   3.853  1.0611 -1.1459  1.1522
  350MOL    H2542603   6.129   2.463   4.072 -1.2325  2.2719 -0.3801
  350MOL    C2642604   6.180   2.279   3.970  0.3387 -1.1251  0.9909
  350MOL    C2742605   6.110   2.163   4.045  0.5863 -0.1892 -0.5091
  350MOL   Cl2842606   6.135   2.182   4.212 -0.5366 -0.1318 -0.5651
  350MOL    H2942607   6.278   2.286   4.017  0.1291  2.9205  0.9301
  350MOL    H3042608   6.195   2.251   3.865 -2.2383 -1.1795  0.6017
  350MOL    H3142609   6.003   2.178   4.030  0.3226 -1.6791 -0.2112
  350MOL    C3242610   6.158   2.015   4.003 -0.2274 -0.1169 -0.2246
  350MOL    C3342611   6.145   1.978   3.851  0.3242  0.1051  0.7700
  350MOL   Cl3442612   5.975   1.992   3.803  0.0897 -0.0637  0.4019
  350MOL    H3542613   6.102   1.948   4.069 -0.2803 -3.0587 -3.1488
  350MOL    H3642614   6.254   1.975   4.037 -0.3024 -0.3237 -0.2539
  350MOL    H3742615   6.206   2.054   3.801 -0.3156 -0.7403 -1.3231
  350MOL    C3842616   6.210   1.842   3.812 -0.5936 -0.6737  0.4284
  350MOL    C3942617   6.224   1.814   3.656 -0.6450  0.5263 -0.4301
  350MOL   Cl4042618   6.233   1.639   3.634 -0.2155 -0.1613  0.2885
  350MOL    H4142619   6.133   1.778   3.853 -0.2068 -2.1425 -1.0561
  350MOL    H4242620   6.305   1.823   3.862 -0.7663 -0.2647  0.9102
  350MOL    H4342621   6.137   1.850   3.601 -0.5310  0.0456 -0.9333
  350MOL    C4442622   6.346   1.884   3.591 -0.0831  0.1364  0.1040
  350MOL    C4542623   6.493   1.877   3.637 -0.4570 -0.4718 -0.3584
  350MOL   Cl4642624   6.517   1.951   3.801 -0.3281  0.2190  0.2323
  350MOL    H4742625   6.328   1.989   3.569 -0.4328  0.0147 -0.2051
  350MOL    H4842626   6.347   1.837   3.492  2.2987  0.0050  0.1421
  350MOL    H4942627   6.518   1.771   3.646  1.4362 -0.2306 -2.4013
  350MOL    C5042628   6.583   1.947   3.541 -0.0498  0.8745  0.3484
  350MOL    C5142629   6.730   1.945   3.577 -0.3899  0.5047 -0.2049
  350MOL   Cl5242630   6.820   2.065   3.475 -0.2439  0.0917 -0.2132
  350MOL    H5342631   6.551   2.051   3.530  0.5220  0.8454 -1.7452
  350MOL    H5442632   6.577   1.909   3.439 -1.3077  0.1836  0.6631
  350MOL    H5542633   6.727   1.978   3.681 -2.7391 -0.3412  0.0191
  350MOL    C5642634   6.808   1.815   3.573  0.7969  0.3992  0.0730
  350MOL    C5742635   6.955   1.834   3.613 -0.1888  0.5460  0.2825
  350MOL   Cl5842636   7.037   1.683   3.601 -0.1802 -0.1446  0.0912
  350MOL    H5942637   6.805   1.790   3.467  3.1341  1.9770 -0.4015
  350MOL    H6042638   6.759   1.744   3.639  0.6019 -1.3186 -1.8827
  350MOL    H6142639   7.002   1.903   3.544  0.4554 -0.1339  0.0483
  350MOL    C6242640   6.984   1.894   3.756  0.3295  0.1767  0.0009
  350MOL    C6342641   6.965   1.802   3.881 -0.6946 -0.1180  0.3247
  350MOL   Cl6442642   6.801   1.750   3.889 -0.1046  0.2857 -0.1898
  350MOL    H6542643   6.929   1.987   3.770  2.4225  1.6288 -1.1999
  350MOL    H6642644   7.089   1.921   3.764  0.1441  0.2722  2.7185
  350MOL    H6742645   7.034   1.718   3.872  1.1035  1.3158  0.2262
  350MOL    C6842646   7.001   1.874   4.015 -0.3042 -0.0520 -0.1053
  350MOL    C6942647   7.025   1.788   4.138 -0.8272 -0.1440 -0.7728
  350MOL   Cl7042648   7.146   1.656   4.102  0.0280  0.3423  0.3275
  350MOL    H7142649   6.914   1.939   4.024 -0.2157 -0.0794  0.9210
  350MOL    H7242650   7.088   1.936   3.996  0.3978 -1.2825 -0.9655
  350MOL    H7342651   7.078   1.847   4.213 -3.6587  0.8658  0.4990
  350MOL    C7442652   6.893   1.736   4.208  0.8364  0.1767  0.2346
  350MOL    C7542653   6.908   1.695   4.357 -0.3383  0.4313 -0.2086
  350MOL   Cl7642654   6.947   1.847   4.443  0.1695 -0.6170 -0.5143
  350MOL    H7742655   6.852   1.656   4.147  1.4398  2.6917 -3.6391
  350MOL    H7842656   6.819   1.816   4.206 -1.1183 -1.6070 -0.0928
  350MOL    H7942657   6.811   1.659   4.391  0.0145  1.7289  2.2446
  350MOL    C8042658   7.013   1.586   4.386 -0.2390  0.8259  0.2851
  350MOL    C8142659   6.994   1.500   4.514 -0.5172  0.4683 -0.0293
  350MOL   Cl8242660   7.150   1.424   4.545 -0.2097 -0.0872  0.1845
  350MOL    H8342661   7.113   1.628   4.398  0.2399 -0.6419  1.5574
  350MOL    H8442662   7.022   1.514   4.305  0.1405 -1.0774  1.9613
  350MOL    H8542663   6.974   1.572   4.593  0.0727  2.4412 -1.6489
  350MOL    C8642664   6.878   1.390   4.506 -0.2614 -0.4949  0.7087
  350MOL    C8742665   6.867   1.281   4.613  0.4064 -0.3807 -0.0422
  350MOL   Cl8842666   6.812   1.126   4.531  0.3316  0.2786  0.6070
  350MOL    H8942667   6.894   1.342   4.410  1.5634 -0.6437  1.0535
  350MOL    H9042668   6.782   1.436   4.482  0.4532 -0.4640 -2.1665
  350MOL    H9142669   6.963   1.255   4.658 -0.7576 -1.6759  1.7609
  350MOL    C9242670   6.779   1.325   4.735 -0.0260 -0.1182  0.2728
  350MOL    C9342671   6.759   1.213   4.837  0.6770  0.4602 -0.5621
  350MOL   Cl9442672   6.597   1.248   4.917  0.2811  0.0644 -0.4680
  350MOL    H9542673   6.681   1.363   4.706  0.3603  1.4365  0.9745
  350MOL    H9642674   6.811   1.415   4.787  1.2011 -0.8017  0.7249
  350MOL    H9742675   6.734   1.123   4.781 -2.7978  0.5611  0.6929
  350MOL    C9842676   6.872   1.175   4.929 -0.1603 -0.2343  0.0300
  350MOL    C9942677   6.837   1.095   5.052  0.0975  0.2449  0.2614
  350MOL  Cl10042678   6.973   1.109   5.168 -0.0577 -0.3641 -0.1924
  350MOL   H10142679   6.899   1.274   4.966 -1.0737  0.7295 -1.7991
  350MOL   H10242680   6.960   1.136   4.879  1.5551 -0.6889  3.2463
  350MOL   H10342681   6.753   1.136   5.107 -1.6854 -0.8841 -1.5348
  350MOL   C10442682   6.813   0.944   5.035  0.2918  0.7394 -0.0269
  350MOL   C10542683   6.669   0.898   5.074 -0.3287 -0.1724  0.1159
  350MOL  Cl10642684   6.650   0.908   5.255  0.0326  0.5101 -0.0679
  350MOL   H10742685   6.872   0.883   5.103 -0.1174 -1.1479 -1.3343
  350MOL   H10842686   6.842   0.914   4.935 -0.6943 -2.1385  0.5156
  350MOL   H10942687   6.592   0.965   5.035 -0.5691 -0.6420 -0.2225
  350MOL   C11042688   6.630   0.757   5.027 -0.1764  0.5589 -0.1354
  350MOL   C11142689   6.643   0.715   4.885  0.4507 -0.0343 -0.4285
  350MOL  Cl11242690   6.525   0.814   4.788  0.7669 -0.0020  0.0929
  350MOL   H11342691   6.540   0.727   5.081  2.3464 -2.3714  2.6473
  350MOL   H11442692   6.699   0.694   5.081 -1.4353  0.2290  1.1183
  350MOL   H11542693   6.745   0.729   4.849  1.5076  0.8166  2.7471
  350MOL   C11642694   6.605   0.567   4.866  0.1810 -0.0167  0.0109
  350MOL   C11742695   6.612   0.519   4.729  0.2190  0.6358 -0.2206
  350MOL  Cl11842696   6.580   0.343   4.727  0.4954  0.1463 -0.0302
  350MOL   H11942697   6.504   0.554   4.904 -0.8331  2.5661 -1.6629
  350MOL   H12042698   6.663   0.492   4.920 -0.9122  0.0973  1.3736
  350MOL   H12142699   6.548   0.570   4.657 -1.4967  0.4823  1.1676
  350MOL   H12242700   6.706   0.539   4.677 -0.7491  0.6204 -2.0213
  351MOL     C142701   1.090   2.183   7.425 -0.9206 -0.0730 -0.5127
  351MOL     C242702   1.083   2.234   7.575 -0.2725 -0.3269  0.2035
  351MOL    Cl342703   1.106   2.096   7.682 -0.0613 -0.2277 -0.2586
  351MOL     H442704   1.193   2.151   7.410 -0.4559  0.7235  0.8290
  351MOL     H542705   1.037   2.088   7.413 -0.3669 -0.2134 -1.8946
  351MOL     H642706   1.168   2.301   7.580 -0.4772 -0.1243  0.9696
  351MOL     H742707   1.064   2.248   7.342 -2.1748 -1.1341 -0.9624
  351MOL     C842708   0.953   2.306   7.604  0.7923  0.1929  0.6175
  351MOL     C942709   0.930   2.374   7.742 -0.6029 -0.5086  0.1132
  351MOL   Cl1042710   0.846   2.255   7.843  0.4498 -0.0443 -0.0717
  351MOL    H1142711   0.863   2.247   7.584 -0.9001  3.1187 -0.6696
  351MOL    H1242712   0.934   2.383   7.529  3.4154  0.7991  0.5236
  351MOL    H1342713   1.025   2.390   7.793 -0.2000 -0.7789 -0.5527
  351MOL    C1442714   0.846   2.509   7.740 -0.1049  0.5265  0.0579
  351MOL    C1542715   0.835   2.596   7.875  0.1848  0.4189  0.0130
  351MOL   Cl1642716   0.995   2.618   7.945  0.0976 -0.0138 -0.0493
  351MOL    H1742717   0.752   2.495   7.687  0.1786  1.2485 -0.6460
  351MOL    H1842718   0.913   2.558   7.669  1.6745  0.3921  1.5971
  351MOL    H1942719   0.798   2.695   7.849 -0.6111 -0.5406 -2.6754
  351MOL    C2042720   0.736   2.534   7.979 -0.3859  0.4659  0.1190
  351MOL    C2142721   0.648   2.630   8.059  0.7162  0.0040  0.1040
  351MOL   Cl2242722   0.548   2.716   7.945  0.0324  0.0816 -0.0054
  351MOL    H2342723   0.798   2.470   8.042 -0.4380  0.5814  0.2895
  351MOL    H2442724   0.668   2.460   7.938  1.5839 -0.8660 -0.8123
  351MOL    H2542725   0.582   2.583   8.132 -1.4198  1.5201 -0.8201
  351MOL    C2642726   0.720   2.739   8.131 -0.8671 -0.1408 -0.4681
  351MOL    C2742727   0.795   2.691   8.261 -0.3043  0.1698 -0.1843
  351MOL   Cl2842728   0.682   2.699   8.400 -0.3798 -0.1162  0.1244
  351MOL    H2942729   0.647   2.812   8.166  0.6222  0.5270  1.2925
  351MOL    H3042730   0.788   2.788   8.061 -0.7288  1.4629  0.7562
  351MOL    H3142731   0.822   2.585   8.260  2.2472  0.7803  1.0883
  351MOL    C3242732   0.911   2.780   8.297  0.1794  0.3221  0.2565
  351MOL    C3342733   0.981   2.730   8.426 -0.6789  0.5843 -0.1161
  351MOL   Cl3442734   1.097   2.855   8.464  0.3472 -0.0617 -0.2857
  351MOL    H3542735   0.875   2.883   8.301 -1.6367 -0.3357  1.6160
  351MOL    H3642736   0.987   2.772   8.220  0.4985  0.3735  0.5628
  351MOL    H3742737   0.916   2.732   8.515 -0.9252  3.1106 -0.3023
  351MOL    C3842738   1.052   2.601   8.410  0.0947  0.1739  0.1471
  351MOL    C3942739   1.113   2.541   0.019  0.0654 -0.4642 -0.1324
  351MOL   Cl4042740   1.219   2.410   8.499  0.3932 -0.0529  0.0910
  351MOL    H4142741   1.121   2.623   8.329  2.5397  0.0694  2.1349
  351MOL    H4242742   0.988   2.525   8.365  0.7577  0.1485 -0.7577
  351MOL    H4342743   1.184   2.611   0.064 -1.6582  1.3903 -0.2211
  351MOL    C4442744   1.000   2.482   0.115  0.0851  0.2546  0.3405
  351MOL    C4542745   1.035   2.469   0.266  0.1499 -0.0313 -0.7212
  351MOL   Cl4642746   1.160   2.341   0.288 -0.0889 -0.3857 -0.5618
  351MOL    H4742747   0.970   2.382   0.083 -0.3728  0.4788  0.0692
  351MOL    H4842748   0.908   2.539   0.111 -1.1793 -1.6636  1.5772
  351MOL    H4942749   1.081   2.563   0.297  1.9412 -0.4625 -2.0133
  351MOL    C5042750   0.903   2.433   0.341  0.1143 -0.3947  0.1085
  351MOL    C5142751   0.927   2.412   0.492  0.0441 -0.7068 -0.1066
  351MOL   Cl5242752   0.816   2.289   0.555  0.2937 -0.1625 -0.0855
  351MOL    H5342753   0.859   2.346   0.291 -1.6093  2.0850 -2.9230
  351MOL    H5442754   0.822   2.506   0.332  1.1722  0.6953 -0.8012
  351MOL    H5542755   1.033   2.394   0.513  0.2465  0.3499 -0.1620
  351MOL    C5642756   0.922   2.545   0.575 -0.3603  0.9310  0.0942
  351MOL    C5742757   0.933   2.533   0.729  0.5350 -0.2203  0.8856
  351MOL   Cl5842758   0.917   2.688   0.812 -0.1514 -0.2355  0.0989
  351MOL    H5942759   0.831   2.599   0.550  0.0844  1.8517  0.4339
  351MOL    H6042760   1.001   2.612   0.539  0.1889  1.3072  1.9235
  351MOL    H6142761   0.844   2.477   0.757  0.2785 -0.6021 -0.6465
  351MOL    C6242762   1.057   2.457   0.794  0.6963 -0.6868  0.0661
  351MOL    C6342763   1.196   2.528   0.788 -0.2199 -1.0264 -0.0053
  351MOL   Cl6442764   1.249   2.516   0.618  0.4752  0.3751  0.4013
  351MOL    H6542765   1.077   2.360   0.747  0.8880 -0.8926  0.5712
  351MOL    H6642766   1.032   2.447   0.899  0.3114  0.1652  0.0556
  351MOL    H6742767   1.200   2.635   0.812 -0.8382 -1.4142  1.9131
  351MOL    C6842768   1.313   2.466   0.870  0.0469 -0.1934 -0.2312
  351MOL    C6942769   1.281   2.436   1.016  0.1922  0.2896  0.2830
  351MOL   Cl7042770   1.213   2.576   1.109 -0.4191 -0.0343  0.1923
  351MOL    H7142771   1.385   2.548   0.865 -0.2695 -0.0004 -1.6866
  351MOL    H7242772   1.348   2.373   0.826  0.6783 -1.4147  2.6752
  351MOL    H7342773   1.204   2.360   1.024  0.2480  0.5421  3.7498
  351MOL    C7442774   1.397   2.377   1.094  0.5241  0.6576  0.0548
  351MOL    C7542775   1.374   2.354   1.252 -0.4510 -0.8705  0.4291
  351MOL   Cl7642776   1.533   2.355   1.334  0.1837 -0.0679  0.1036
  351MOL    H7742777   1.480   2.448   1.084  1.0412  0.0924  0.2548
  351MOL    H7842778   1.424   2.282   1.048 -1.5632 -1.3193  2.7318
  351MOL    H7942779   1.336   2.444   1.299  0.3503 -0.4213  0.2399
  351MOL    C8042780   1.282   2.237   1.294 -0.3038 -0.2092  0.3261
  351MOL    C8142781   1.213   2.249   1.432 -0.9694  0.4189 -0.0625
  351MOL   Cl8242782   1.129   2.406   1.445  0.1835 -0.4688  0.1536
  351MOL    H8342783   1.330   2.139   1.296  0.3705  0.0649 -1.4983
  351MOL    H8442784   1.201   2.240   1.221  0.5576  0.7469 -0.6008
  351MOL    H8542785   1.135   2.173   1.437 -1.3260  0.7426 -0.7004
  351MOL    C8642786   1.313   2.231   1.550 -0.1545 -0.3483  0.0491
  351MOL    C8742787   1.250   2.199   1.685 -0.2131  0.3028  0.1899
  351MOL   Cl8842788   1.146   2.058   1.660 -0.1322  0.1302  0.2593
  351MOL    H8942789   1.375   2.320   1.562 -0.8903  0.3289 -1.1304
  351MOL    H9042790   1.384   2.156   1.513 -0.2195  0.7134 -2.3554
  351MOL    H9142791   1.327   2.161   1.752  0.2215  1.1221  0.1669
  351MOL    C9242792   1.164   2.306   1.755 -0.5104  0.3277 -0.0523
  351MOL    C9342793   1.237   2.428   1.811 -0.4608 -0.3896  0.2904
  351MOL   Cl9442794   1.361   2.374   1.927  0.0352  0.0495 -0.3118
  351MOL    H9542795   1.116   2.257   1.839 -1.6976  0.4376 -0.6552
  351MOL    H9642796   1.082   2.337   1.690 -1.8134 -0.5926  1.1353
  351MOL    H9742797   1.294   2.478   1.732 -2.1697  1.1221 -0.0205
  351MOL    C9842798   1.139   2.530   1.885  0.5787 -0.0333 -0.3704
  351MOL    C9942799   1.157   2.682   1.856 -0.4065 -0.0465 -0.1217
  351MOL  Cl10042800   1.321   2.729   1.912  0.0183 -0.0712  0.3627
  351MOL   H10142801   1.126   2.516   1.992 -3.3263  0.9593 -0.6348
  351MOL   H10242802   1.039   2.505   1.849  0.6947 -1.3174  0.1805
  351MOL   H10342803   1.162   2.700   1.749 -0.2759  2.0328  0.2199
  351MOL   C10442804   1.059   2.786   1.921  0.5863 -0.4107 -0.3438
  351MOL   C10542805   1.013   2.893   1.830  0.3706  0.7139  0.3302
  351MOL  Cl10642806   0.918   2.810   1.697 -0.4085  0.2352  0.4445
  351MOL   H10742807   1.100   2.834   2.010 -2.7250 -1.9390  2.1193
  351MOL   H10842808   0.971   2.730   1.952  0.2340  2.1424  3.6480
  351MOL   H10942809   0.939   2.944   1.892  1.4661 -0.3797  2.5797
  351MOL   C11042810   1.122   2.993   1.784  0.1793 -0.3036 -0.1928
  351MOL   C11142811   1.209   3.064   1.889  0.7522 -0.3688  0.3255
  351MOL  Cl11242812   1.125   3.202   1.966  0.0034  0.0865  0.3366
  351MOL   H11342813   1.086   3.073   1.719 -0.1377  0.0200  0.3744
  351MOL   H11442814   1.187   2.943   1.713  0.0300 -1.7504  0.6698
  351MOL   H11542815   1.231   2.998   1.972 -0.7258  0.1212  1.1208
  351MOL   C11642816   1.348   3.108   1.841 -0.4106 -0.1602 -0.8770
  351MOL   C11742817   1.437   3.165   1.950 -0.0776  0.3914 -0.0889
  351MOL  Cl11842818   1.478   3.061   2.085 -0.0289 -0.0511  0.0859
  351MOL   H11942819   1.343   3.176   1.756 -0.4939  2.8580  1.4701
  351MOL   H12042820   1.396   3.019   1.800  1.1280  0.4184 -0.3615
  351MOL   H12142821   1.530   3.210   1.917  1.0643 -2.3735 -0.8097
  351MOL   H12242822   1.379   3.242   2.002  0.8236 -0.1089  1.7171
  352MOL     C142823   0.484   1.018   7.529 -0.7362  0.1968 -0.4254
  352MOL     C242824   0.594   1.059   7.619  0.0955  0.4227  0.0451
  352MOL    Cl342825   0.513   1.134   7.763  0.2571 -0.4358 -0.0229
  352MOL     H442826   0.437   1.102   7.477 -0.5439  1.3911  1.2760
  352MOL     H542827   0.517   0.940   7.461 -0.5229  0.2700 -0.4056
  352MOL     H642828   0.651   0.969   7.642  1.0667  0.9948 -0.0954
  352MOL     H742829   0.406   0.959   7.577  1.6462 -2.3034  0.4993
  352MOL     C842830   0.684   1.167   7.550 -0.1903 -0.0696  0.6093
  352MOL     C942831   0.789   1.118   7.446 -0.6896  0.5734  0.0229
  352MOL   Cl1042832   0.910   1.006   7.521  0.1950 -0.0058  0.1357
  352MOL    H1142833   0.747   1.224   7.618  0.1901 -0.7301  0.8175
  352MOL    H1242834   0.616   1.235   7.498 -1.2789 -2.0773 -0.6631
  352MOL    H1342835   0.745   1.043   7.380 -3.4831  2.2605 -0.0855
  352MOL    C1442836   0.858   1.226   7.354 -0.4917 -0.3811 -0.2236
  352MOL    C1542837   0.765   1.291   7.249  0.5387 -0.2424  0.1721
  352MOL   Cl1642838   0.712   1.169   7.127  0.3753 -0.0167 -0.3245
  352MOL    H1742839   0.944   1.179   7.308  0.2929 -0.9487  1.7448
  352MOL    H1842840   0.899   1.301   7.422  0.0409 -0.5412 -0.3723
  352MOL    H1942841   0.672   1.322   7.296  0.4321  1.0962 -0.8983
  352MOL    C2042842   0.816   1.421   7.183 -0.3862 -0.6501  0.3826
  352MOL    C2142843   0.714   1.497   7.090 -0.1959 -0.1868 -0.3938
  352MOL   Cl2242844   0.801   1.624   7.001 -0.4772  0.3328  0.3001
  352MOL    H2342845   0.901   1.396   7.120  1.2554 -0.0855  2.3276
  352MOL    H2442846   0.863   1.497   7.246  1.8988 -3.3027  1.9327
  352MOL    H2542847   0.671   1.432   7.014 -1.1445 -0.8891  0.7278
  352MOL    C2642848   0.608   1.569   7.171 -0.4371  0.1529  0.4570
  352MOL    C2742849   0.499   1.625   7.086  0.0965  0.0171  0.1019
  352MOL   Cl2842850   0.401   1.731   7.195  0.0348  0.1698 -0.1078
  352MOL    H2942851   0.662   1.646   7.225 -0.6511  0.0208  0.8601
  352MOL    H3042852   0.550   1.506   7.239  1.1310 -0.3703  1.3164
  352MOL    H3142853   0.531   1.685   7.001  0.4137 -1.6542 -0.9793
  352MOL    C3242854   0.407   1.530   7.020  0.2776 -0.7383  0.2168
  352MOL    C3342855   0.292   1.600   6.943  0.3417  0.4088 -0.6126
  352MOL   Cl3442856   0.192   1.461   6.888  0.2858 -0.4941  0.1522
  352MOL    H3542857   0.363   1.458   7.088 -0.7517  0.1104  0.4564
  352MOL    H3642858   0.462   1.483   6.938  0.4106  2.3258 -1.5371
  352MOL    H3742859   0.220   1.662   6.997 -0.6478 -1.3441  0.1176
  352MOL    C3842860   0.344   1.676   6.814  1.0359 -0.1396 -0.3384
  352MOL    C3942861   0.224   1.750   6.749 -0.3756  0.4586  0.5618
  352MOL   Cl4042862   0.285   1.809   6.592  0.1767  0.2145  0.2382
  352MOL    H4142863   0.394   1.608   6.745 -1.0813 -1.6769 -0.4217
  352MOL    H4242864   0.409   1.757   6.845  0.3537  0.7033 -1.0588
  352MOL    H4342865   0.138   1.685   6.732  0.1411 -0.7919  2.6781
  352MOL    C4442866   0.155   1.866   6.831  0.0608  0.1214 -0.9222
  352MOL    C4542867   0.062   1.961   6.755 -0.8718 -0.4689 -0.3275
  352MOL   Cl4642868   0.024   2.101   6.862  0.0982  0.2340 -0.4385
  352MOL    H4742869   0.232   1.931   6.874 -0.6283  1.1506 -1.2158
  352MOL    H4842870   0.111   1.830   6.924  0.5525  0.1179 -0.6867
  352MOL    H4942871   0.116   2.001   6.669 -1.2705  2.3458  0.6906
  352MOL    C5042872   8.456   1.896   6.714 -0.5257 -0.4193 -1.0058
  352MOL    C5142873   8.375   1.986   6.625  0.3021  0.1561 -0.2235
  352MOL   Cl5242874   8.209   1.913   6.631  0.3292  0.1254  0.2388
  352MOL    H5342875   8.399   1.860   6.799  0.3020 -0.3293 -0.4025
  352MOL    H5442876   8.473   1.800   6.665 -1.9063 -1.4140  0.4312
  352MOL    H5542877   8.360   2.087   6.662 -0.8843  0.2168 -0.8640
  352MOL    C5642878   8.430   2.011   6.480  0.6897 -0.1762 -0.1948
  352MOL    C5742879   8.344   2.113   6.407 -0.3119 -0.3457  0.3653
  352MOL   Cl5842880   8.373   2.076   6.240  0.2036  0.4993 -0.2440
  352MOL    H5942881   8.414   1.915   6.430 -0.8941 -0.6364  1.1380
  352MOL    H6042882   0.013   2.012   6.475  0.7620 -1.4488  0.7422
  352MOL    H6142883   8.237   2.095   6.414 -0.3152 -0.5007 -0.0996
  352MOL    C6242884   8.391   2.266   6.433 -0.1101 -0.7015  0.1571
  352MOL    C6342885   8.366   2.379   6.332 -0.7404 -0.5894 -0.2273
  352MOL   Cl6442886   8.406   2.536   6.417 -0.1514 -0.1095  0.0459
  352MOL    H6542887   8.498   2.250   6.449 -0.1300 -1.6980 -0.6007
  352MOL    H6642888   8.357   2.294   6.532 -0.4400  0.7879 -0.3754
  352MOL    H6742889   8.432   2.373   6.246 -0.3310  0.4252  0.0066
  352MOL    C6842890   8.227   2.397   6.258 -0.0267 -0.3042  0.0963
  352MOL    C6942891   8.097   2.385   6.336 -0.1648  0.0672  0.1779
  352MOL   Cl7042892   7.956   2.415   6.217 -0.1482  0.2843 -0.2038
  352MOL    H7142893   8.213   2.336   6.168  0.2927 -0.5909  0.2412
  352MOL    H7242894   8.225   2.499   6.221 -0.4156 -0.5286 -0.5229
  352MOL    H7342895   8.081   2.286   6.379 -0.5149 -0.5062 -1.2361
  352MOL    C7442896   8.083   2.487   6.451 -0.1939  0.0859  0.8633
  352MOL    C7542897   7.950   2.476   6.530 -0.0356 -0.2206  0.1232
  352MOL   Cl7642898   7.961   2.602   6.658  0.5224 -0.1583 -0.4285
  352MOL    H7742899   8.096   2.585   6.405  2.5962 -0.2017  0.9324
  352MOL    H7842900   8.174   2.477   6.511 -0.8759  1.8497  2.2375
  352MOL    H7942901   7.859   2.508   6.479  0.3687 -0.3385 -0.6721
  352MOL    C8042902   7.936   2.337   6.594  0.2881  0.3139 -0.1215
  352MOL    C8142903   7.843   2.333   6.714 -0.3053 -0.1020 -0.1855
  352MOL   Cl8242904   7.857   2.164   6.761 -0.2160  0.3027 -0.0556
  352MOL    H8342905   8.032   2.295   6.625 -0.4002 -0.6385  0.7187
  352MOL    H8442906   7.894   2.267   6.523  1.8390 -0.8256  0.0665
  352MOL    H8542907   7.876   2.385   6.803  0.6034  0.0509 -0.6099
  352MOL    C8642908   7.694   2.356   6.671  0.0552 -0.3563 -0.0953
  352MOL    C8742909   7.601   2.343   6.794  0.2446  0.3727 -0.3178
  352MOL   Cl8842910   7.450   2.256   6.749  0.1772 -0.2232 -0.0982
  352MOL    H8942911   7.674   2.275   6.600 -2.9690  0.5464 -0.3290
  352MOL    H9042912   7.673   2.452   6.625 -0.6015 -1.2671 -1.7524
  352MOL    H9142913   7.637   2.266   6.863 -1.3184 -1.4609 -1.4849
  352MOL    C9242914   7.564   2.487   6.859 -0.4174 -0.0713 -0.0216
  352MOL    C9342915   7.675   2.586   6.891  0.2864  0.2959  0.1276
  352MOL   Cl9442916   7.773   2.494   7.007 -0.3356  0.0336 -0.2198
  352MOL    H9542917   7.495   2.473   6.943 -0.7024 -1.9341 -0.5560
  352MOL    H9642918   7.499   2.548   6.797  0.5339 -0.2246 -1.1923
  352MOL    H9742919   7.746   2.606   6.811 -1.0141 -0.8627 -1.3475
  352MOL    C9842920   7.625   2.714   6.954  0.3168 -0.2700 -0.7107
  352MOL    C9942921   7.725   2.819   6.998  0.0540 -0.1344  0.1604
  352MOL  Cl10042922   7.646   2.936   7.113 -0.1355 -0.4349  0.2170
  352MOL   H10142923   7.556   2.693   7.036  1.0938 -0.5908 -0.1331
  352MOL   H10242924   7.551   2.759   6.887 -0.9798  0.8841  1.4476
  352MOL   H10342925   7.802   2.766   7.054  0.2047  0.0032  0.0844
  352MOL   C10442926   7.778   2.889   6.871  0.0439  0.7725 -0.2949
  352MOL   C10542927   7.905   2.973   6.888 -0.6261 -0.2905  0.0750
  352MOL  Cl10642928   7.919   3.079   6.745 -0.1873  0.4857 -0.0896
  352MOL   H10742929   7.698   2.958   6.844 -1.5042 -1.1817 -0.7992
  352MOL   H10842930   7.789   2.826   6.782  0.6364 -0.9046  0.9364
  352MOL   H10942931   7.879   3.033   6.975 -1.8726 -2.3210  1.1531
  352MOL   C11042932   8.037   2.897   6.891  0.2639  0.0979 -0.8301
  352MOL   C11142933   8.162   2.980   6.928  0.0342  0.0858  0.2304
  352MOL  Cl11242934   8.296   2.886   6.884 -0.2512 -0.1751  0.7989
  352MOL   H11342935   8.059   2.868   6.788 -1.1214  2.6121 -1.8581
  352MOL   H11442936   8.046   2.809   6.955  2.3320  1.5890  1.0243
  352MOL   H11542937   8.175   3.067   6.863  0.4472 -0.5423 -0.5511
  352MOL   C11642938   8.181   3.030   7.075  0.0175 -0.8033 -0.0391
  352MOL   C11742939   8.307   3.112   7.102  0.3806  0.3854 -0.7404
  352MOL  Cl11842940   8.297   3.172   7.270 -0.4219  0.1131 -0.0944
  352MOL   H11942941   8.174   2.949   7.147 -0.9941 -0.5344  0.1751
  352MOL   H12042942   8.093   3.094   7.088 -0.7553 -2.0379  0.8450
  352MOL   H12142943   8.402   3.063   7.084 -0.3884 -1.6098  0.4918
  352MOL   H12242944   8.328   3.197   7.037  1.5277  0.0300 -0.8366
  353MOL     C142945   7.523   6.440   7.820  0.2860 -0.5236 -0.2729
  353MOL     C242946   7.501   6.407   7.968 -0.2011 -0.4218 -0.3474
  353MOL    Cl342947   7.622   6.489   8.070 -0.5328 -0.1752  0.2526
  353MOL     H442948   7.506   6.545   7.797  0.7625 -0.5597 -0.8012
  353MOL     H542949   7.631   6.428   7.812  0.0887 -2.0924 -0.8421
  353MOL     H642950   7.409   6.458   7.996  0.5946  0.1593  1.2549
  353MOL     H742951   7.479   6.380   7.740 -2.1591 -2.1380  2.1864
  353MOL     C842952   7.503   6.251   7.990  0.2171  0.0695 -0.8903
  353MOL     C942953   7.449   6.204   8.128 -0.5329 -0.6580  0.2139
  353MOL   Cl1042954   7.459   6.028   8.141 -0.3757 -0.0035  0.0568
  353MOL    H1142955   7.607   6.221   7.998  0.0666 -0.0717  0.7029
  353MOL    H1242956   7.455   6.196   7.908  1.3536 -3.1405  0.4947
  353MOL    H1342957   7.517   6.239   8.205  0.2593 -1.0410 -0.3147
  353MOL    C1442958   7.304   6.249   8.153 -0.3215  0.1344 -0.0901
  353MOL    C1542959   7.184   6.190   8.070 -0.2542 -0.1022  0.3250
  353MOL   Cl1642960   7.191   6.268   7.910  0.2804  0.2479 -0.1791
  353MOL    H1742961   7.294   6.357   8.150 -1.6664 -0.0097 -1.8822
  353MOL    H1842962   7.289   6.224   8.258  1.6793  0.5495  0.3075
  353MOL    H1942963   7.194   6.081   8.062 -0.0076 -0.0505 -0.1069
  353MOL    C2042964   7.051   6.219   8.142 -0.9420  0.8097 -0.2541
  353MOL    C2142965   7.019   6.144   8.272  0.5833  0.0710  0.4686
  353MOL   Cl2242966   7.031   5.974   8.242 -0.4655  0.1488  0.0808
  353MOL    H2342967   6.972   6.210   8.068 -0.0643  1.7666 -1.3317
  353MOL    H2442968   7.052   6.321   8.180  0.6410  0.0338  1.9590
  353MOL    H2542969   7.077   6.158   8.363  1.8462  1.9357 -0.5878
  353MOL    C2642970   6.865   6.157   8.306 -0.6138 -0.8532 -0.0376
  353MOL    C2742971   6.820   6.301   8.345  0.0840  0.3055  0.5084
  353MOL   Cl2842972   6.875   6.343   8.511  0.1803  0.5652  0.2277
  353MOL    H2942973   6.835   6.083   8.380  0.8748 -0.5128  0.9242
  353MOL    H3042974   6.811   6.129   8.216  0.6663 -0.3536 -0.9828
  353MOL    H3142975   6.873   6.371   8.281  1.2112  0.4973  1.6330
  353MOL    C3242976   6.666   6.326   8.331  0.0465 -0.0631 -0.0074
  353MOL    C3342977   6.593   6.291   8.201  0.5171  0.2682 -0.3328
  353MOL   Cl3442978   6.686   6.337   8.059 -0.0580 -0.1142  0.0157
  353MOL    H3542979   6.651   6.431   8.353 -0.9153  0.4818 -3.0596
  353MOL    H3642980   6.610   6.264   8.401  2.7093 -3.4720 -0.7252
  353MOL    H3742981   6.578   6.183   8.194  1.2691  0.1404 -0.0260
  353MOL    C3842982   6.452   6.348   8.191  0.1506 -0.1668 -0.0189
  353MOL    C3942983   6.355   6.311   8.305 -0.6321 -0.1393  0.7842
  353MOL   Cl4042984   6.360   6.127   8.337  0.1511 -0.1962  0.1083
  353MOL    H4142985   6.400   6.321   8.099  0.1127  0.6802 -0.2472
  353MOL    H4242986   6.453   6.456   8.174 -0.8772 -0.1860 -0.2512
  353MOL    H4342987   6.389   6.351   8.400 -1.1664  2.4882 -0.0866
  353MOL    C4442988   6.211   6.347   8.271  1.0459 -0.3559 -0.5044
  353MOL    C4542989   6.179   6.494   8.282  0.6484 -0.5186 -0.3397
  353MOL   Cl4642990   6.210   6.552   8.447 -0.0282  0.1387 -0.1564
  353MOL    H4742991   6.145   6.307   8.348  1.0294 -0.3985 -0.5411
  353MOL    H4842992   6.187   6.316   8.169 -0.5339  0.5448 -0.4221
  353MOL    H4942993   6.230   6.552   8.205  2.0670 -0.8549  0.3291
  353MOL    C5042994   6.026   6.520   8.248 -0.2010 -0.0053  0.0743
  353MOL    C5142995   5.994   6.678   8.237  0.3892  0.1885 -0.5392
  353MOL   Cl5242996   5.971   6.744   8.408  0.3206  0.4205 -0.1619
  353MOL    H5342997   5.955   6.447   8.287  0.4311 -1.6622 -1.7847
  353MOL    H5442998   6.027   6.486   8.144  1.2641 -1.0682  0.4141
  353MOL    H5542999   6.080   6.720   8.184 -0.0747  1.1127 -0.5790
  353MOL    C5643000   5.861   6.705   8.166 -0.0416  0.0961  0.0879
  353MOL    C5743001   5.727   6.643   8.222 -0.1918 -0.2080 -0.8768
  353MOL   Cl5843002   5.709   6.476   8.161 -0.1354  0.4381 -0.3539
  353MOL    H5943003   5.871   6.681   8.061  0.8440 -0.8013  0.3676
  353MOL    H6043004   5.853   6.813   8.164 -0.7471  0.0253 -1.0141
  353MOL    H6143005   5.748   6.627   8.328 -0.3792  1.4053 -0.5810
  353MOL    C6243006   5.600   6.729   8.204 -0.6027 -0.4951 -0.1742
  353MOL    C6343007   5.469   6.671   8.271 -0.1901 -0.5958 -0.7820
  353MOL   Cl6443008   5.351   6.797   8.234 -0.0229 -0.0682  0.3147
  353MOL    H6543009   5.580   6.743   8.098  1.8425 -1.5917 -0.8160
  353MOL    H6643010   5.619   6.817   8.264  0.4965 -1.5765  1.1074
  353MOL    H6743011   5.430   6.585   8.217 -1.2835  0.9546 -2.5226
  353MOL    C6843012   5.473   6.646   8.428 -0.2822 -0.2856  0.2217
  353MOL    C6943013   5.485   6.494   8.465  0.1333  1.0626  0.7344
  353MOL   Cl7043014   5.331   6.419   8.449 -0.2388 -0.0476  0.6332
  353MOL    H7143015   5.388   6.686   8.483  0.5936  0.9129  0.7266
  353MOL    H7243016   5.558   6.705   8.463 -1.3053 -0.6742  3.4428
  353MOL    H7343017   5.552   6.444   8.395 -2.0973  0.0339 -0.7159
  353MOL    C7443018   5.533   6.474   0.083  0.4516  0.1513 -0.1391
  353MOL    C7543019   5.678   6.515   0.113  0.1985 -0.0955 -0.1250
  353MOL   Cl7643020   5.785   6.423   0.008 -0.1605 -0.3778 -0.3308
  353MOL    H7743021   5.512   6.370   0.106 -2.5023  0.5195 -0.9539
  353MOL    H7843022   5.469   6.535   0.147 -0.1283 -0.0580 -0.5141
  353MOL    H7943023   5.702   6.619   0.090  0.6662 -0.0437  0.6000
  353MOL    C8043024   5.721   6.484   0.254  0.2962 -0.5274 -0.4126
  353MOL    C8143025   5.853   6.539   0.315 -0.9102  0.1793 -0.6704
  353MOL   Cl8243026   5.863   6.721   0.308  0.0546 -0.2021 -0.5586
  353MOL    H8343027   5.722   6.377   0.276  1.4347  0.4526  4.7836
  353MOL    H8443028   5.639   6.522   0.315  0.2534 -1.2761  0.0082
  353MOL    H8543029   5.863   6.528   0.423 -0.8034  3.0954 -0.3493
  353MOL    C8643030   5.986   6.478   0.247  0.0868 -0.2524 -0.7513
  353MOL    C8743031   6.015   6.322   0.258  0.4052  0.0199 -0.1073
  353MOL   Cl8843032   6.021   6.289   0.432 -0.1502  0.0570 -0.3213
  353MOL    H8943033   6.073   6.524   0.293  1.4437 -1.6137 -1.8780
  353MOL    H9043034   6.008   6.516   0.147  2.6232 -0.6099 -0.3484
  353MOL    H9143035   5.945   6.254   0.210  3.0460 -3.0895  0.2899
  353MOL    C9243036   6.144   6.284   0.190  0.1171  0.6008  0.0095
  353MOL    C9343037   6.185   6.134   0.205  0.3144 -0.5770  0.9416
  353MOL   Cl9443038   6.354   6.111   0.152  0.0696 -0.1637  0.2734
  353MOL    H9543039   6.222   6.343   0.239 -0.1094  1.3149 -0.4839
  353MOL    H9643040   6.137   6.313   0.086 -0.1169  1.5106  0.2733
  353MOL    H9743041   6.177   6.093   0.306  3.1091 -1.1391  0.9901
  353MOL    C9843042   6.100   6.043   0.112 -0.3257 -0.3198 -0.6498
  353MOL    C9943043   6.135   5.891   0.104 -0.1507  0.4995  0.1393
  353MOL  Cl10043044   6.062   5.829   8.477  0.0741 -0.2509 -0.0976
  353MOL   H10143045   6.104   6.083   0.011  0.6391 -0.5988 -0.7287
  353MOL   H10243046   5.995   6.044   0.142  0.4661 -0.0018  2.2642
  353MOL   H10343047   6.241   5.886   0.081 -0.1765  0.3106  0.0613
  353MOL   C10443048   6.095   5.800   0.223 -0.4721 -0.4185 -0.5026
  353MOL   C10543049   6.147   5.654   0.233 -0.6268  0.1286 -0.1131
  353MOL  Cl10643050   6.054   5.552   0.342  0.0743 -0.0394  0.1640
  353MOL   H10743051   5.986   5.792   0.222 -0.3128 -3.2724 -3.3967
  353MOL   H10843052   6.125   5.861   0.309 -0.4967  2.9391 -2.7765
  353MOL   H10943053   6.123   5.613   0.135 -0.9723  1.1756 -0.4813
  353MOL   C11043054   6.304   5.642   0.262  0.5843 -0.1487  0.4184
  353MOL   C11143055   6.358   5.696   0.399  0.2837  0.6657 -0.2206
  353MOL  Cl11243056   6.375   5.872   0.378  0.0464  0.4130 -0.0728
  353MOL   H11343057   6.353   5.691   0.178 -1.6005 -1.9997 -2.0138
  353MOL   H11443058   6.334   5.538   0.259  3.6128  0.7367 -2.3113
  353MOL   H11543059   6.289   5.673   0.480  0.7419 -0.9763 -0.2859
  353MOL   C11643060   6.492   5.635   0.425  0.4270  0.1952  0.2209
  353MOL   C11743061   6.565   5.680   0.555 -0.0720 -0.2674 -0.0988
  353MOL  Cl11843062   6.708   5.581   0.581  0.2338  0.1758 -0.3176
  353MOL   H11943063   6.562   5.644   0.342  1.0498 -4.5622  0.0897
  353MOL   H12043064   6.474   5.531   0.450 -0.1881  0.6119  1.5738
  353MOL   H12143065   6.602   5.782   0.556 -0.3880 -0.1574  1.2328
  353MOL   H12243066   6.493   5.676   0.638  1.2232 -0.5839  1.0268
  354MOL     C143067   4.282   3.454   2.273 -0.3212  0.3117  0.2921
  354MOL     C243068   4.439   3.452   2.270  0.1412 -0.0038  0.1809
  354MOL    Cl343069   4.496   3.603   2.339 -0.1576 -0.4972 -0.2521
  354MOL     H443070   4.244   3.354   2.253  0.3796  0.1656 -0.3318
  354MOL     H543071   4.238   3.453   2.373 -3.3746  2.1077 -0.9569
  354MOL     H643072   4.477   3.372   2.333 -0.6480 -1.7911 -1.5586
  354MOL     H743073   4.224   3.517   2.205 -1.9954 -1.4070  0.1061
  354MOL     C843074   4.507   3.437   2.134 -1.1115  0.4470 -0.1059
  354MOL     C943075   4.529   3.298   2.069 -0.4142 -0.3211  0.1330
  354MOL   Cl1043076   4.377   3.236   1.998 -0.0488  0.0754  0.2492
  354MOL    H1143077   4.603   3.486   2.147 -1.0150  0.2354 -0.0082
  354MOL    H1243078   4.457   3.501   2.062 -1.0581  0.3724 -0.2108
  354MOL    H1343079   4.592   3.308   1.981 -0.8720 -0.6004 -0.2261
  354MOL    C1443080   4.597   3.191   2.155 -0.1188  0.2504  0.9166
  354MOL    C1543081   4.740   3.240   2.212 -0.5074  0.6200 -0.6219
  354MOL   Cl1643082   4.858   3.232   2.073 -0.2491  0.2268 -0.0747
  354MOL    H1743083   4.608   3.097   2.101 -1.5865 -0.2132  1.4219
  354MOL    H1843084   4.544   3.152   2.241  0.4184 -1.3387  0.5347
  354MOL    H1943085   4.740   3.341   2.254 -0.3895  0.0459  0.7707
  354MOL    C2043086   4.791   3.151   2.326  0.3875  0.8286  0.3074
  354MOL    C2143087   4.891   3.211   2.426 -0.5575  0.0627 -0.3161
  354MOL   Cl2243088   4.990   3.072   2.483  0.3175 -0.2449  0.2376
  354MOL    H2343089   4.839   3.068   2.273 -1.3142  1.2301 -1.9670
  354MOL    H2443090   4.706   3.107   2.379 -0.0015 -1.6961 -2.2275
  354MOL    H2543091   4.967   3.274   2.381  0.5623  0.8433  2.5579
  354MOL    C2643092   4.834   3.277   2.552 -0.1363 -0.3965  0.8874
  354MOL    C2743093   4.725   3.383   2.533 -0.1945  0.7166  0.2697
  354MOL   Cl2843094   4.798   3.512   2.437 -0.0610  0.0797 -0.2376
  354MOL    H2943095   4.921   3.308   2.610  0.6650  3.6353 -2.2366
  354MOL    H3043096   4.790   3.199   2.613 -0.0624 -0.5668  0.7233
  354MOL    H3143097   4.647   3.341   2.469  1.2533  0.2198 -1.2239
  354MOL    C3243098   4.665   3.441   2.667 -0.4590  0.6828 -0.7685
  354MOL    C3343099   4.556   3.351   2.733  0.2070 -0.0410  0.8347
  354MOL   Cl3443100   4.424   3.306   2.619  0.1069 -0.1157 -0.1414
  354MOL    H3543101   4.609   3.533   2.651  0.2977  1.2963  0.0777
  354MOL    H3643102   4.745   3.468   2.736 -1.2342  1.7183 -0.2780
  354MOL    H3743103   4.593   3.251   2.756  0.0397 -0.3572 -0.2344
  354MOL    C3843104   4.497   3.424   2.853 -0.4053 -0.1000  0.0059
  354MOL    C3943105   4.396   3.343   2.930  0.2162  0.1245 -0.1351
  354MOL   Cl4043106   4.329   3.446   3.064 -0.0349 -0.1959 -0.1671
  354MOL    H4143107   4.445   3.514   2.821  1.5028  0.5546 -1.3103
  354MOL    H4243108   4.578   3.463   2.914 -1.6707 -0.0056  1.6768
  354MOL    H4343109   4.313   3.326   2.861  0.5571  0.3123 -0.5959
  354MOL    C4443110   4.446   3.211   2.998  0.1519  0.2013 -0.1736
  354MOL    C4543111   4.328   3.121   3.043 -0.0215  0.0326 -0.9942
  354MOL   Cl4643112   4.390   2.989   3.158  0.1079  0.1752 -0.0253
  354MOL    H4743113   4.516   3.231   3.079 -0.4839  1.8710 -0.0144
  354MOL    H4843114   4.510   3.153   2.932  0.7461  1.8100 -1.0533
  354MOL    H4943115   4.257   3.184   3.096  1.6694 -1.8258  3.7897
  354MOL    C5043116   4.251   3.058   2.925 -0.2714 -0.3116  0.2678
  354MOL    C5143117   4.123   2.990   2.969 -0.1932  0.4814 -0.1512
  354MOL   Cl5243118   4.063   2.893   2.830  0.0852  0.0968 -0.2127
  354MOL    H5343119   4.326   2.991   2.882  1.1059  1.8756 -0.8307
  354MOL    H5443120   4.228   3.124   2.841 -1.0572 -2.0945 -0.9377
  354MOL    H5543121   4.139   2.917   3.049 -2.8051 -0.2019 -0.2104
  354MOL    C5643122   4.012   3.081   3.019 -0.1817  0.1700  0.0454
  354MOL    C5743123   3.913   3.027   3.123 -0.1787 -0.2200  0.1372
  354MOL   Cl5843124   4.008   2.990   3.264 -0.0634  0.0806  0.5557
  354MOL    H5943125   3.949   3.124   2.941  0.2312 -1.4129 -1.1963
  354MOL    H6043126   4.070   3.161   3.064  0.1457 -0.0492  0.0180
  354MOL    H6143127   3.852   3.114   3.148 -0.1508  0.0029 -0.5566
  354MOL    C6243128   3.829   2.901   3.079 -0.3710  0.0624 -0.0825
  354MOL    C6343129   3.734   2.853   3.191 -1.2307  0.8082 -0.0192
  354MOL   Cl6443130   3.656   2.705   3.134  0.3157  0.1314 -0.2681
  354MOL    H6543131   3.901   2.823   3.055 -0.6094  0.1615 -1.1581
  354MOL    H6643132   3.767   2.917   2.991  1.1144  1.3566 -0.9239
  354MOL    H6743133   3.796   2.829   3.277  1.2828  1.7448 -1.5275
  354MOL    C6843134   3.635   2.947   3.240  0.6242 -0.0705 -0.2007
  354MOL    C6943135   3.601   2.931   3.390 -0.2262  0.4516  0.0915
  354MOL   Cl7043136   3.501   2.783   3.426  0.1421  0.2136  0.0383
  354MOL    H7143137   3.547   2.931   3.178 -0.6692  1.6165  1.1470
  354MOL    H7243138   3.676   3.048   3.241  2.2200 -0.6904 -1.1108
  354MOL    H7343139   3.694   2.912   3.443 -0.2819 -2.4352 -0.7674
  354MOL    C7443140   3.540   3.061   3.459  0.1040  0.7283  0.0694
  354MOL    C7543141   3.527   3.062   3.614  0.9426  0.6793 -0.3893
  354MOL   Cl7643142   3.465   3.211   3.676  0.2237 -0.2930 -0.2568
  354MOL    H7743143   3.440   3.074   3.417  0.2075 -0.5268 -0.6031
  354MOL    H7843144   3.593   3.147   3.419  0.4591  0.7748  0.6276
  354MOL    H7943145   3.448   2.994   3.648  0.5082  1.2226 -0.2978
  354MOL    C8043146   3.651   3.021   3.690 -0.3507 -0.1160 -0.1924
  354MOL    C8143147   3.782   3.106   3.659 -0.3014  0.6847 -0.3089
  354MOL   Cl8243148   3.911   3.012   3.584  0.5620 -0.0353  0.0536
  354MOL    H8343149   3.678   2.920   3.660 -0.9324  0.7291 -3.7271
  354MOL    H8443150   3.627   3.018   3.797  0.5435 -1.9561 -0.0166
  354MOL    H8543151   3.760   3.189   3.592  1.8375 -0.7578 -2.8904
  354MOL    C8643152   3.845   3.160   3.787  0.3694 -0.5478 -0.0364
  354MOL    C8743153   3.760   3.264   3.860 -0.5383  0.7025  0.6609
  354MOL   Cl8843154   3.776   3.414   3.768 -0.0554  0.1226 -0.4864
  354MOL    H8943155   3.944   3.198   3.761  0.1184 -0.7907 -1.3916
  354MOL    H9043156   3.859   3.081   3.861  0.5156 -2.1089 -1.6886
  354MOL    H9143157   3.657   3.230   3.851  0.1313 -1.3756  0.4344
  354MOL    C9243158   3.781   3.293   4.008 -0.6313  0.0790  0.2473
  354MOL    C9343159   3.735   3.183   4.104  0.4365  0.3111  0.2760
  354MOL   Cl9443160   3.557   3.167   4.112  0.1296 -0.0090 -0.3064
  354MOL    H9543161   3.733   3.387   4.035 -0.6559  1.3729 -3.9955
  354MOL    H9643162   3.886   3.318   4.017 -0.2249 -0.3222 -2.9414
  354MOL    H9743163   3.782   3.095   4.059  0.2678 -0.3054  1.3000
  354MOL    C9843164   3.786   3.193   4.252  0.7093  0.1641 -0.1246
  354MOL    C9943165   3.721   3.302   4.335  0.0596  0.3659 -0.7040
  354MOL  Cl10043166   3.802   3.457   4.308  0.1106 -0.3509  0.1975
  354MOL   H10143167   3.894   3.207   4.256  0.7307  0.6103 -2.1042
  354MOL   H10243168   3.766   3.095   4.296 -2.9071  0.4185 -1.0758
  354MOL   H10343169   3.616   3.318   4.309 -0.2465  1.2537  0.9621
  354MOL   C10443170   3.733   3.279   4.491  0.4406  0.1964 -0.4275
  354MOL   C10543171   3.635   3.169   4.539 -0.5901 -0.0996 -0.1024
  354MOL  Cl10643172   3.479   3.241   4.537 -0.1489  0.1495 -0.0073
  354MOL   H10743173   3.708   3.367   4.550  0.3215 -0.5872  0.6931
  354MOL   H10843174   3.838   3.258   4.510  0.5816  0.0868 -1.2988
  354MOL   H10943175   3.640   3.083   4.472  0.7509  0.8428 -1.2557
  354MOL   C11043176   3.655   3.120   4.683 -0.5890  0.1909 -0.2268
  354MOL   C11143177   3.795   3.066   4.715  0.1865 -0.0344  0.1803
  354MOL  Cl11243178   3.848   2.950   4.580  0.4216 -0.2387 -0.2894
  354MOL   H11343179   3.584   3.038   4.691  2.0142 -1.9610  1.3238
  354MOL   H11443180   3.633   3.202   4.752  0.1793 -0.9099  1.3447
  354MOL   H11543181   3.861   3.153   4.721 -0.9956  0.9814 -1.2053
  354MOL   C11643182   3.791   2.992   4.850 -0.3212  0.0164  0.2023
  354MOL   C11743183   3.923   2.924   4.891  0.0442  0.2838 -0.7584
  354MOL  Cl11843184   4.051   3.044   4.903 -0.0246  0.3224  0.0782
  354MOL   H11943185   3.713   2.916   4.846 -0.7553  0.3338  1.9222
  354MOL   H12043186   3.754   3.066   4.921  0.5340 -0.5867  1.2870
  354MOL   H12143187   3.903   2.899   4.995  0.8690 -1.0258 -0.9002
  354MOL   H12243188   3.954   2.836   4.835 -0.5638 -0.3247 -0.1408
  355MOL     C143189   6.682   6.095   2.496 -0.1878 -0.1718  0.1717
  355MOL     C243190   6.751   5.965   2.451  0.2715 -0.2485 -0.9753
  355MOL    Cl343191   6.809   5.880   2.598  0.2012  0.4056 -0.2629
  355MOL     H443192   6.587   6.078   2.546 -0.5733  0.5239 -0.3211
  355MOL     H543193   6.740   6.140   2.577  0.3438 -1.9649  0.8187
  355MOL     H643194   6.682   5.902   2.395  0.0092 -0.8665  0.0411
  355MOL     H743195   6.664   6.160   2.411 -1.1338 -1.1925 -0.4135
  355MOL     C843196   6.874   6.002   2.359 -0.5165  0.6003 -0.1806
  355MOL     C943197   6.978   5.890   2.346 -0.8653 -0.9942  0.5110
  355MOL   Cl1043198   7.115   5.977   2.276  0.3200 -0.1993  0.0679
  355MOL    H1143199   6.927   6.083   2.407  0.6318 -0.9218  1.1818
  355MOL    H1243200   6.846   6.038   2.260  0.4038 -1.0792 -1.0816
  355MOL    H1343201   7.021   5.853   2.439 -0.7366 -1.9670  0.0685
  355MOL    C1443202   6.940   5.790   2.246  0.3125  0.5193  0.2223
  355MOL    C1543203   7.029   5.663   2.223 -0.3713 -0.1877 -0.4585
  355MOL   Cl1643204   7.065   5.581   2.380 -0.1254 -0.1370 -0.1658
  355MOL    H1743205   6.904   5.836   2.153 -1.0668 -1.4276 -0.2484
  355MOL    H1843206   6.842   5.761   2.284 -0.6520  2.5916 -0.6320
  355MOL    H1943207   6.975   5.586   2.167 -1.3573 -0.3904  0.7344
  355MOL    C2043208   7.158   5.685   2.148 -0.2259 -0.4030 -0.5276
  355MOL    C2143209   7.145   5.743   2.005 -0.5383 -0.1246  0.0885
  355MOL   Cl2243210   7.100   5.608   1.893  0.0958 -0.0957  0.0776
  355MOL    H2343211   7.230   5.603   2.155  0.2422  0.1568  1.4493
  355MOL    H2443212   7.216   5.746   2.217 -2.2137  0.0147  0.8107
  355MOL    H2543213   7.062   5.814   2.000  0.9114  1.4467 -2.4301
  355MOL    C2643214   7.270   5.827   1.955  0.0539 -0.4343  0.0118
  355MOL    C2743215   7.285   5.884   1.814  0.4324  0.3169 -0.5213
  355MOL   Cl2843216   7.329   5.752   1.704 -0.2425 -0.3010  0.0078
  355MOL    H2943217   7.354   5.760   1.973  0.4093 -0.2532 -0.9445
  355MOL    H3043218   7.293   5.910   2.021  0.3693 -0.7456  0.2923
  355MOL    H3143219   7.197   5.936   1.776 -0.9399 -0.7621  1.0738
  355MOL    C3243220   7.399   5.996   1.799  0.6554 -0.2736 -0.6149
  355MOL    C3343221   7.357   6.130   1.870 -0.3686 -0.1018  0.3627
  355MOL   Cl3443222   7.249   6.222   1.765  0.0539  0.1018  0.4468
  355MOL    H3543223   7.423   6.023   1.696 -0.0498 -2.4744 -1.3678
  355MOL    H3643224   7.483   5.950   1.851 -0.9649 -1.2385  1.2014
  355MOL    H3743225   7.301   6.120   1.963  2.2508  1.1577  2.1177
  355MOL    C3843226   7.485   6.204   1.915  0.8572 -0.4890 -0.6574
  355MOL    C3943227   7.589   6.251   1.805 -0.5262  0.0802  0.4437
  355MOL   Cl4043228   7.746   6.269   1.881  0.1326 -0.5030  0.1582
  355MOL    H4143229   7.540   6.137   1.981 -0.9712 -2.6612 -1.2752
  355MOL    H4243230   7.451   6.283   1.983  1.7688 -0.6437 -0.0124
  355MOL    H4343231   7.589   6.168   1.735  0.3169 -0.5090  1.1373
  355MOL    C4443232   7.548   6.385   1.732 -0.1864 -0.0743 -0.1359
  355MOL    C4543233   7.612   6.403   1.594 -0.2186  0.9833  0.5409
  355MOL   Cl4643234   7.540   6.272   1.488  0.0347  0.0121  0.1593
  355MOL    H4743235   7.560   6.469   1.800 -0.8557 -0.8664  0.9832
  355MOL    H4843236   7.443   6.382   1.703  0.4277 -3.4445 -2.3154
  355MOL    H4943237   7.572   6.493   1.546  1.6930  2.1602  1.0636
  355MOL    C5043238   7.773   6.410   1.589  0.5123  0.8618  0.3493
  355MOL    C5143239   7.825   6.535   1.659  0.4549  0.2436  0.0084
  355MOL   Cl5243240   7.772   6.678   1.575  0.0670 -0.2001  0.2643
  355MOL    H5343241   7.816   6.412   1.489  2.1006 -2.0740  0.8993
  355MOL    H5443242   7.812   6.319   1.635 -2.3535 -0.3182  0.5482
  355MOL    H5543243   7.786   6.541   1.760  1.8796  2.2735  0.4571
  355MOL    C5643244   7.981   6.545   1.678 -0.0934  0.0301 -0.6161
  355MOL    C5743245   8.035   6.452   1.791 -0.4127 -0.1937  0.1540
  355MOL   Cl5843246   8.002   6.528   1.953  0.1790 -0.1093  0.1920
  355MOL    H5943247   8.009   6.649   1.696  0.6024 -0.0104 -1.4439
  355MOL    H6043248   8.022   6.505   1.585  1.2943  0.2894 -0.1278
  355MOL    H6143249   7.980   6.358   1.785  0.1648 -0.4731 -0.7928
  355MOL    C6243250   8.190   6.417   1.779  0.0914  0.7709 -0.1271
  355MOL    C6343251   8.232   6.328   1.654 -0.6388 -0.2910 -0.6489
  355MOL   Cl6443252   8.154   6.166   1.677  0.0163 -0.2878  0.5761
  355MOL    H6543253   8.212   6.370   1.875 -1.0395  0.7476  0.1245
  355MOL    H6643254   8.241   6.512   1.790  0.2785  0.3797  2.5674
  355MOL    H6743255   8.189   6.389   1.574 -0.2216 -0.2503 -0.8391
  355MOL    C6843256   8.384   6.322   1.637 -0.3649 -0.0126 -0.2865
  355MOL    C6943257   8.428   6.258   1.503  0.1086  0.3115 -0.1926
  355MOL   Cl7043258   0.072   6.214   1.509 -0.1356  0.0071 -0.8039
  355MOL    H7143259   8.432   6.267   1.718  1.0196 -0.2506 -1.2473
  355MOL    H7243260   8.440   6.415   1.637 -0.2256 -0.0954 -0.2973
  355MOL    H7343261   8.369   6.166   1.506  2.8750 -1.4474  3.4201
  355MOL    C7443262   8.392   6.349   1.380  0.0670  0.4580  0.7978
  355MOL    C7543263   8.432   6.286   1.240 -0.3643 -1.0048  0.1731
  355MOL   Cl7643264   8.410   6.416   1.125  0.3185  0.1283  0.0320
  355MOL    H7743265   8.442   6.444   1.397  0.5632  0.2403  0.5626
  355MOL    H7843266   8.285   6.369   1.384  0.2379  1.1654  2.2554
  355MOL    H7943267   0.012   6.257   1.248  0.6864  2.1245 -1.2338
  355MOL    C8043268   8.359   6.155   1.194  0.0405  0.0457 -0.4999
  355MOL    C8143269   8.198   6.154   1.183  0.0202  0.6536 -0.8529
  355MOL   Cl8243270   8.125   6.155   1.347 -0.2908 -0.1870 -0.1346
  355MOL    H8343271   8.393   6.078   1.263 -0.1177 -0.9598 -1.5325
  355MOL    H8443272   8.405   6.137   1.097  0.0977  0.1970 -0.5012
  355MOL    H8543273   8.161   6.248   1.140 -1.4331  0.2172 -0.5950
  355MOL    C8643274   8.147   6.032   1.100 -0.0947 -0.0310  0.7818
  355MOL    C8743275   7.996   6.017   1.083 -0.1382 -0.2683 -0.1504
  355MOL   Cl8843276   7.957   5.854   1.039 -0.3784  0.1263  0.4189
  355MOL    H8943277   8.190   5.946   1.151  0.0481 -0.5514 -0.2015
  355MOL    H9043278   8.184   6.041   0.998 -0.5860  1.6893  0.7505
  355MOL    H9143279   7.944   6.038   1.176  0.7515 -0.2424  0.3441
  355MOL    C9243280   7.947   6.114   0.984  0.2159 -0.5597  0.3958
  355MOL    C9343281   7.816   6.191   1.032  0.0522 -0.2569  0.3260
  355MOL   Cl9443282   7.687   6.067   1.060  0.0670 -0.4403  0.0987
  355MOL    H9543283   7.937   6.061   0.889  2.3921  0.5283 -0.4685
  355MOL    H9643284   8.025   6.187   0.964  0.1761 -1.1960 -2.3558
  355MOL    H9743285   7.827   6.240   1.129  2.4126  1.9694 -1.0133
  355MOL    C9843286   7.746   6.291   0.935  0.0149 -0.4267  0.3932
  355MOL    C9943287   7.850   6.394   0.878 -0.7755 -0.2753  0.3324
  355MOL  Cl10043288   7.927   6.476   1.020 -0.1789  0.3628 -0.1302
  355MOL   H10143289   7.670   6.359   0.974  0.6161 -0.5313  1.7862
  355MOL   H10243290   7.693   6.233   0.860  0.6725 -1.2917  0.5869
  355MOL   H10343291   7.934   6.355   0.820 -0.1331  1.7771 -0.1666
  355MOL   C10443292   7.792   6.500   0.784  0.0460  0.2249 -0.2073
  355MOL   C10543293   7.761   6.450   0.638  0.1089  0.6194 -0.1711
  355MOL  Cl10643294   7.612   6.344   0.609  0.5020  0.2080 -0.4504
  355MOL   H10743295   7.877   6.567   0.769 -0.4396  0.7487 -0.6179
  355MOL   H10843296   7.711   6.556   0.831  0.7861  1.2462 -0.1368
  355MOL   H10943297   7.751   6.543   0.583 -1.8572  1.9560  2.3479
  355MOL   C11043298   7.882   6.378   0.562  0.4155 -0.1925 -0.7271
  355MOL   C11143299   8.022   6.459   0.545 -0.4101 -0.1749 -0.6193
  355MOL  Cl11243300   7.992   6.632   0.542  0.0255  0.0477 -0.2037
  355MOL   H11343301   7.858   6.349   0.460  3.0153 -3.3167 -0.5004
  355MOL   H11443302   7.906   6.287   0.616 -1.1699  0.3777  0.9976
  355MOL   H11543303   8.075   6.460   0.641 -0.2863  0.5935 -0.6934
  355MOL   C11643304   8.102   6.424   0.422 -0.3588  0.4315  0.1516
  355MOL   C11743305   8.240   6.476   0.420 -0.5173 -0.0873  0.3599
  355MOL  Cl11843306   8.341   6.397   0.545 -0.2833  0.1809 -0.1571
  355MOL   H11943307   8.050   6.454   0.330 -3.1187 -2.2840  0.7590
  355MOL   H12043308   8.104   6.315   0.412 -1.6325  0.0954  3.1078
  355MOL   H12143309   8.291   6.462   0.325 -0.4891  3.0129 -0.1619
  355MOL   H12243310   8.239   6.584   0.438 -1.2054 -0.0909  0.3764
  356MOL     C143311   3.836   3.002   5.697  0.5754  0.5884  1.0662
  356MOL     C243312   3.737   3.076   5.785 -0.3331 -0.0522  1.3718
  356MOL    Cl343313   3.585   3.089   5.693 -0.1415  0.2403  0.2231
  356MOL     H443314   3.936   2.999   5.739  1.0304  2.8560  0.1980
  356MOL     H543315   3.811   2.898   5.674  0.0873  0.6089  1.4866
  356MOL     H643316   3.724   3.013   5.873  2.0048 -2.1700  0.2601
  356MOL     H743317   3.847   3.056   5.603  1.0832 -1.8023 -0.2761
  356MOL     C843318   3.778   3.212   5.826  0.5753 -0.3865 -0.4004
  356MOL     C943319   3.687   3.288   5.927  0.3599  0.6138  0.3981
  356MOL   Cl1043320   3.768   3.446   5.936 -0.0052 -0.1248 -0.4156
  356MOL    H1143321   3.781   3.278   5.739  0.1830  0.7159  0.4132
  356MOL    H1243322   3.876   3.206   5.874 -0.2006 -1.4087  1.0970
  356MOL    H1343323   3.593   3.309   5.877  0.2312  1.3227  0.9304
  356MOL    C1443324   3.678   3.229   6.066 -0.5463 -0.5748  0.4029
  356MOL    C1543325   3.589   3.316   6.157  0.4905  0.9228 -0.2297
  356MOL   Cl1643326   3.652   3.302   6.325 -0.0547  0.8111 -0.1922
  356MOL    H1743327   3.772   3.207   6.115 -0.6656 -0.5706  0.6367
  356MOL    H1843328   3.625   3.136   6.043  1.1816 -1.3885 -0.4048
  356MOL    H1943329   3.605   3.419   6.126 -0.9249  1.5408  1.0337
  356MOL    C2043330   3.438   3.269   6.154  0.1527  0.1896  0.6510
  356MOL    C2143331   3.336   3.379   6.179 -0.0649 -0.8443 -0.7191
  356MOL   Cl2243332   3.330   3.501   6.043 -0.2594  0.4900 -0.2928
  356MOL    H2343333   3.425   3.194   6.233  0.4601 -1.0105 -0.4259
  356MOL    H2443334   3.409   3.219   6.062  2.1131 -1.7475  1.0452
  356MOL    H2543335   3.234   3.339   6.177  0.1666 -1.5151  0.4741
  356MOL    C2643336   3.351   3.451   6.314  0.3192 -0.1292 -0.0756
  356MOL    C2743337   3.240   3.544   6.368 -0.1040  0.8876  0.0297
  356MOL   Cl2843338   3.319   3.653   6.492 -0.1555 -0.5126 -0.0245
  356MOL    H2943339   3.442   3.509   6.321  1.3236 -1.8957  1.9755
  356MOL    H3043340   3.371   3.387   6.400 -0.1106 -1.8111 -1.1900
  356MOL    H3143341   3.220   3.622   6.294  0.0730  0.2070 -0.7506
  356MOL    C3243342   3.110   3.483   6.423  0.1785  0.2637  0.1594
  356MOL    C3343343   3.107   3.400   6.554 -0.7661  0.0821  0.2872
  356MOL   Cl3443344   3.166   3.233   6.520 -0.2148 -0.1781 -0.1491
  356MOL    H3543345   3.060   3.429   6.342 -1.8122  1.7725  0.3319
  356MOL    H3643346   3.044   3.570   6.431  1.5455  1.2042  1.4856
  356MOL    H3743347   3.173   3.445   6.628 -0.3933  0.1346 -0.0743
  356MOL    C3843348   2.960   3.388   6.603 -0.0035 -0.1950 -0.2836
  356MOL    C3943349   2.913   3.490   6.712 -0.1001 -0.2596  0.1049
  356MOL   Cl4043350   2.919   3.662   6.661 -0.3508 -0.4198 -0.5611
  356MOL    H4143351   2.955   3.286   6.642 -2.4019  0.2871  0.7669
  356MOL    H4243352   2.892   3.386   6.518  0.9777 -0.2704 -1.0760
  356MOL    H4343353   2.806   3.480   6.732 -0.6019  3.0292 -0.6199
  356MOL    C4443354   2.990   3.472   6.849  0.4257 -0.0945  0.4935
  356MOL    C4543355   2.957   3.347   6.928 -0.7511  0.0557  0.5612
  356MOL   Cl4643356   2.799   3.378   7.002 -0.2738  0.0583  0.1863
  356MOL    H4743357   2.981   3.561   6.911 -1.9212  0.5369 -0.7023
  356MOL    H4843358   3.094   3.463   6.817 -0.4601 -1.4261 -2.1144
  356MOL    H4943359   2.946   3.265   6.857  0.2596  0.9939 -0.7192
  356MOL    C5043360   3.066   3.314   7.036  0.2737  0.2872  0.4379
  356MOL    C5143361   3.198   3.267   6.981 -0.1232  0.2168  0.1251
  356MOL   Cl5243362   3.161   3.124   6.878 -0.1943 -0.1225 -0.0265
  356MOL    H5343363   3.026   3.237   7.102  1.5902 -1.4002 -0.6900
  356MOL    H5443364   3.084   3.403   7.096  0.7668  0.7404 -0.3896
  356MOL    H5543365   3.248   3.346   6.927 -0.0449  0.6490  0.8204
  356MOL    C5643366   3.284   3.194   7.092 -0.3810 -0.2214  0.2428
  356MOL    C5743367   3.315   3.277   7.215 -0.0394  0.1153 -0.2013
  356MOL   Cl5843368   3.430   3.404   7.153 -0.2782  0.0618  0.3323
  356MOL    H5943369   3.374   3.151   7.048  0.6804 -0.1552  2.2907
  356MOL    H6043370   3.238   3.100   7.123  1.4747 -1.4807 -0.6985
  356MOL    H6143371   3.233   3.334   7.259 -0.1954 -0.3365  0.0921
  356MOL    C6243372   3.381   3.194   7.328 -0.1014 -0.3739 -1.1871
  356MOL    C6343373   3.393   3.279   7.457  0.0369 -0.1535  0.3385
  356MOL   Cl6443374   3.536   3.387   7.443 -0.0887  0.2482 -0.2574
  356MOL    H6543375   3.485   3.171   7.309  0.4111 -0.7074  1.7353
  356MOL    H6643376   3.328   3.101   7.351  1.1128 -0.6176  0.7523
  356MOL    H6743377   3.308   3.345   7.472  0.6892  1.1327 -1.5511
  356MOL    C6843378   3.416   3.189   7.572  0.5488  0.2015 -0.8528
  356MOL    C6943379   3.281   3.137   7.624  0.4006  0.0376  0.8469
  356MOL   Cl7043380   3.223   3.269   7.732  0.0447  0.1120  0.0811
  356MOL    H7143381   3.474   3.242   7.648 -0.9318 -0.0612  0.5039
  356MOL    H7243382   3.472   3.102   7.537  1.7375  0.2049  0.9743
  356MOL    H7343383   3.205   3.137   7.546  0.1445  0.2696  1.0915
  356MOL    C7443384   3.293   3.006   7.691  0.4128  0.2064 -0.5765
  356MOL    C7543385   3.180   2.961   7.768  0.4087  0.3875 -0.6458
  356MOL   Cl7643386   3.228   2.816   7.860 -0.0844  0.4282 -0.2655
  356MOL    H7743387   3.383   3.012   7.753  0.3502 -0.0886 -0.4541
  356MOL    H7843388   3.322   2.931   7.617 -0.9158 -0.5870 -0.3155
  356MOL    H7943389   3.150   3.036   7.841 -0.7632  0.3527 -1.0846
  356MOL    C8043390   3.063   2.936   7.680  0.5096 -0.0900 -0.1103
  356MOL    C8143391   2.938   2.886   7.751 -0.5198  0.6780 -0.3599
  356MOL   Cl8243392   2.843   2.839   7.610 -0.3711 -0.3346  0.0336
  356MOL    H8343393   3.075   2.855   7.607 -0.0061  0.1956 -0.5173
  356MOL    H8443394   3.048   3.030   7.627  1.2311  0.8570  1.3623
  356MOL    H8543395   2.952   2.798   7.813 -1.8880  0.0650 -0.8826
  356MOL    C8643396   2.859   2.995   7.834  0.6438 -0.2545 -0.4289
  356MOL    C8743397   2.771   2.928   7.942  0.3889  0.3831  0.5286
  356MOL   Cl8843398   2.628   2.837   7.872 -0.1102 -0.1006 -0.1979
  356MOL    H8943399   2.806   3.068   7.773  2.1935  1.3840  0.1394
  356MOL    H9043400   2.932   3.054   7.890  1.1415 -0.3717 -0.9509
  356MOL    H9143401   2.839   2.857   7.989  0.8962  1.7236  1.8814
  356MOL    C9243402   2.717   3.022   8.049  0.1989 -0.5923  0.1230
  356MOL    C9343403   2.609   2.972   8.145  0.6539  0.4604 -0.2710
  356MOL   Cl9443404   2.548   3.101   8.255 -0.1209  0.0640  0.0713
  356MOL    H9543405   2.667   3.110   8.008  0.8683 -0.0729  0.4332
  356MOL    H9643406   2.804   3.069   8.094 -0.7350  1.5965 -0.2831
  356MOL    H9743407   2.522   2.938   8.089  0.1565 -3.0993  2.4644
  356MOL    C9843408   2.657   2.856   8.237  0.2131  0.4484  0.0598
  356MOL    C9943409   2.542   2.765   8.294 -1.0297  0.1589 -0.4741
  356MOL  Cl10043410   2.457   2.833   8.435  0.3342  0.0324 -0.0705
  356MOL   H10143411   2.733   2.890   8.308  2.5051 -1.7413 -1.2727
  356MOL   H10243412   2.714   2.787   8.175 -1.5708  0.8860 -2.1147
  356MOL   H10343413   2.461   2.771   8.221  0.5053  1.2565 -2.1251
  356MOL   C10443414   2.575   2.620   8.327  0.0792  0.4052 -0.3460
  356MOL   C10543415   2.615   2.530   8.206  0.2170  0.2740  0.3819
  356MOL  Cl10643416   2.517   2.567   8.066  0.1140  0.3156 -0.4289
  356MOL   H10743417   2.490   2.573   8.376  0.7372 -0.4324  0.0027
  356MOL   H10843418   2.666   2.614   8.386 -0.6335 -2.4422  0.5254
  356MOL   H10943419   2.716   2.552   8.173 -0.4773  0.2521 -1.8580
  356MOL   C11043420   2.608   2.382   8.240  0.8940 -0.0762  0.0049
  356MOL   C11143421   2.694   2.345   8.367  0.3731  0.0969  0.3653
  356MOL  Cl11243422   2.865   2.384   8.339  0.1064 -0.2004 -0.3462
  356MOL   H11343423   2.641   2.321   8.157 -3.0318  0.4049 -2.0433
  356MOL   H11443424   2.504   2.352   8.255  1.0854 -0.4572  0.6112
  356MOL   H11543425   2.668   2.390   8.463  0.8268  0.7760  0.1759
  356MOL   C11643426   2.695   2.191   8.380 -0.2209  0.9555 -0.1984
  356MOL   C11743427   2.776   2.138   8.496  0.2043  0.6227  0.4963
  356MOL  Cl11843428   2.757   1.967   8.492 -0.0042 -0.0912 -0.1755
  356MOL   H11943429   2.750   2.154   8.293  2.6983  1.6579  1.2830
  356MOL   H12043430   2.588   2.170   8.377  0.0786 -1.0768  1.9034
  356MOL   H12143431   2.881   2.162   8.479  0.0588 -0.1959 -1.7590
  356MOL   H12243432   2.741   2.167   0.070  0.4294  0.4520  0.6265
  357MOL     C143433   6.438   7.493   5.877  0.2701 -0.1795 -0.6584
  357MOL     C243434   6.309   7.574   5.916 -0.3147 -0.3815  0.4499
  357MOL    Cl343435   6.171   7.460   5.909 -0.1803  0.0667  0.2695
  357MOL     H443436   6.425   7.412   5.805 -0.2756 -2.0567  1.5092
  357MOL     H543437   6.519   7.558   5.844 -1.1098  1.6666 -0.5432
  357MOL     H643438   6.312   7.603   6.021 -1.3497  1.1145  0.0837
  357MOL     H743439   6.469   7.446   5.970  1.2396  0.1209 -0.8184
  357MOL     C843440   6.278   7.685   5.819  0.3058 -0.1757 -0.0299
  357MOL     C943441   6.377   7.801   5.806  0.2964  0.0229 -0.5020
  357MOL   Cl1043442   6.402   7.874   5.963 -0.2350  0.3003  0.2197
  357MOL    H1143443   6.172   7.710   5.830  0.2544 -0.7243  0.6829
  357MOL    H1243444   6.277   7.629   5.725  0.9545  0.0852 -0.1963
  357MOL    H1343445   6.474   7.759   5.779  0.4505  0.4165 -0.5578
  357MOL    C1443446   6.338   7.901   5.698 -0.1564  0.2665  0.3866
  357MOL    C1543447   6.314   7.843   5.550 -0.2592 -0.6081  0.1232
  357MOL   Cl1643448   6.463   7.758   5.491  0.0336  0.0008  0.1622
  357MOL    H1743449   6.423   7.967   5.684 -0.9798  0.9293 -1.7015
  357MOL    H1843450   6.261   7.965   5.743  0.0883  2.4767 -2.1738
  357MOL    H1943451   6.236   7.767   5.552  0.7089 -1.6446  3.7621
  357MOL    C2043452   6.296   7.955   5.460 -0.0351 -0.5634 -0.6144
  357MOL    C2143453   6.274   7.932   5.310  0.8337 -0.6321  0.5717
  357MOL   Cl2243454   6.260   8.092   5.232 -0.7526  0.2975 -0.0866
  357MOL    H2343455   6.379   8.024   5.471 -1.3826  1.0016 -0.0960
  357MOL    H2443456   6.202   7.994   5.499  0.9013  1.1984 -0.0551
  357MOL    H2543457   6.370   7.896   5.274 -0.3810 -3.4207  0.0118
  357MOL    C2643458   6.166   7.830   5.273  0.2890 -0.2037  0.6505
  357MOL    C2743459   6.175   7.782   5.123 -0.2699  0.0579 -0.9453
  357MOL   Cl2843460   6.318   7.694   5.093 -0.0691 -0.2932 -0.0640
  357MOL    H2943461   6.065   7.869   5.289  0.5428  1.3970 -1.5359
  357MOL    H3043462   6.172   7.741   5.336 -0.7727 -1.6935 -1.2933
  357MOL    H3143463   6.096   7.706   5.124  0.7331 -1.0220 -2.6173
  357MOL    C3243464   6.138   7.878   5.006  0.2747 -0.1756 -0.6614
  357MOL    C3343465   6.009   7.961   5.017  0.4000 -0.7298  0.0961
  357MOL   Cl3443466   5.873   7.858   5.051  0.3065 -0.1104 -0.1951
  357MOL    H3543467   6.130   7.825   4.911 -0.3397 -1.4404  0.0830
  357MOL    H3643468   6.219   7.950   5.000  1.0362 -1.0715 -1.3837
  357MOL    H3743469   6.025   8.022   5.105  1.8608 -1.1249  0.1245
  357MOL    C3843470   5.970   8.056   4.895 -0.5046 -0.2187 -0.0504
  357MOL    C3943471   6.067   8.160   4.842 -0.0733 -0.5881  0.1886
  357MOL   Cl4043472   6.102   8.287   4.968 -0.4987 -0.2863  0.1554
  357MOL    H4143473   5.879   8.104   4.932 -1.8130 -2.1446 -0.7327
  357MOL    H4243474   5.941   7.991   4.813 -0.7054 -0.2585  0.0537
  357MOL    H4343475   6.158   8.109   4.811 -1.1168 -2.7110  0.4579
  357MOL    C4443476   6.030   8.229   4.713  0.0516 -0.8722 -0.3977
  357MOL    C4543477   6.053   8.140   4.584 -0.4630 -0.0868 -0.1554
  357MOL   Cl4643478   6.234   8.119   4.536  0.2346  0.3023 -0.5019
  357MOL    H4743479   6.087   8.319   4.689  0.8640 -0.9354  1.1928
  357MOL    H4843480   5.931   8.273   4.724  1.0766  1.5951 -0.5768
  357MOL    H4943481   6.018   8.037   4.593 -0.5430  0.0287  0.9024
  357MOL    C5043482   5.978   8.202   4.458 -0.3286 -0.1568  0.7356
  357MOL    C5143483   5.822   8.217   4.474  0.5855  0.3467  0.1216
  357MOL   Cl5243484   5.736   8.060   4.497 -0.0576  0.0764  0.2994
  357MOL    H5343485   5.994   8.142   4.368  2.7032 -0.6794  1.5773
  357MOL    H5443486   6.030   8.296   4.440 -1.0008  0.4588  2.0040
  357MOL    H5543487   5.788   8.274   4.560  1.9195  0.3611  0.6481
  357MOL    C5643488   5.758   8.279   4.342  0.1427 -0.2929  0.1678
  357MOL    C5743489   5.734   8.430   4.338  0.1522 -0.3889 -0.2822
  357MOL   Cl5843490   5.661   8.478   4.185 -0.1755  0.3170 -0.1781
  357MOL    H5943491   5.662   8.232   4.319 -0.4087  0.4213  0.9922
  357MOL    H6043492   5.822   8.254   4.257 -0.8372 -1.2556 -0.2994
  357MOL    H6143493   5.667   8.461   4.418 -0.5583  0.4780 -1.2082
  357MOL    C6243494   5.866   8.517   4.354 -0.0790  0.2763 -0.4553
  357MOL    C6343495   5.850   0.142   4.353 -0.0879 -0.2486 -0.4775
  357MOL   Cl6443496   6.011   0.206   4.372 -0.1558 -0.2463 -0.2843
  357MOL    H6543497   5.935   8.486   4.276 -0.0238 -0.0257 -0.2869
  357MOL    H6643498   5.901   8.487   4.453  0.3380  0.9966 -0.3787
  357MOL    H6743499   5.816   0.172   4.254 -0.0434  2.1850  0.1906
  357MOL    C6843500   5.751   0.206   4.454 -0.1403  0.0275 -0.2790
  357MOL    C6943501   5.736   0.356   4.453 -0.2004  0.6591  0.4629
  357MOL   Cl7043502   5.635   0.397   4.586  0.1545 -0.0855  0.5489
  357MOL    H7143503   5.789   0.176   4.552  0.1639 -1.5598 -0.8630
  357MOL    H7243504   5.654   0.159   4.444 -0.5639  0.4375  1.6226
  357MOL    H7343505   5.831   0.405   4.473  0.2940 -0.3416  0.5755
  357MOL    C7443506   5.654   0.397   4.325  0.4750 -0.1264  0.6812
  357MOL    C7543507   5.636   0.545   4.303  0.0758 -0.1530  0.4614
  357MOL   Cl7643508   5.576   0.566   4.138 -0.1504 -0.6437 -0.5913
  357MOL    H7743509   5.558   0.350   4.346  0.0404  0.5946  0.2929
  357MOL    H7843510   5.699   0.351   4.237  1.8190  0.9213  0.8117
  357MOL    H7943511   5.559   0.588   4.367  0.4652 -1.3613  1.7789
  357MOL    C8043512   5.763   0.635   4.309 -0.0515 -0.3547  0.7806
  357MOL    C8143513   5.739   0.785   4.326  0.2514 -0.8013  0.0460
  357MOL   Cl8243514   5.906   0.863   4.328  0.1102  0.5431 -0.0158
  357MOL    H8343515   5.832   0.611   4.228  0.3558  2.0744  0.3644
  357MOL    H8443516   5.821   0.614   4.399 -0.0080  0.7358  1.0105
  357MOL    H8543517   5.697   0.834   4.238  0.0243  1.8062  1.5477
  357MOL    C8643518   5.674   0.808   4.464  0.2902  0.1758 -0.1259
  357MOL    C8743519   5.642   0.956   4.497  0.5053 -0.4698  0.1609
  357MOL   Cl8843520   5.657   0.996   4.666  0.3979 -0.3573  0.3237
  357MOL    H8943521   5.748   0.782   4.540 -0.2898  0.1861  0.4516
  357MOL    H9043522   5.586   0.746   4.480  1.0086 -0.8307 -0.0260
  357MOL    H9143523   5.711   1.028   4.453  1.1355 -1.3479 -0.3303
  357MOL    C9243524   5.503   0.990   4.446 -0.1174  0.4867  0.0560
  357MOL    C9343525   5.459   1.138   4.441  0.6186 -0.4321 -0.1457
  357MOL   Cl9443526   5.291   1.145   4.406 -0.2726  0.0273 -0.0517
  357MOL    H9543527   5.425   0.936   4.500 -0.6444 -0.5514 -1.7189
  357MOL    H9643528   5.495   0.962   4.341  0.3502  0.0245  0.1375
  357MOL    H9743529   5.469   1.186   4.538  1.0780 -0.3591 -0.2299
  357MOL    C9843530   5.542   1.214   4.331  0.1417 -0.0799 -0.4503
  357MOL    C9943531   5.503   1.363   4.307  0.8001  0.1357  0.2461
  357MOL  Cl10043532   5.537   1.416   4.142 -0.1940  0.5686 -0.1561
  357MOL   H10143533   5.533   1.155   4.240  0.6496 -0.5499 -0.1954
  357MOL   H10243534   5.649   1.209   4.349 -0.4604 -0.5871  3.3665
  357MOL   H10343535   5.395   1.377   4.302  1.0317  1.7197 -0.6803
  357MOL   C10443536   5.566   1.458   4.410 -0.7797  0.3594  0.8032
  357MOL   C10543537   5.501   1.490   4.547  0.0170  0.0419 -0.3151
  357MOL  Cl10643538   5.346   1.559   4.518 -0.2441 -0.4917 -0.0138
  357MOL   H10743539   5.582   1.559   4.370  0.7424  0.9971  2.9232
  357MOL   H10843540   5.670   1.426   4.412 -0.4929  1.1718 -0.4033
  357MOL   H10943541   5.480   1.398   4.601  0.4537  0.3667  0.4216
  357MOL   C11043542   5.566   1.601   4.633 -0.5535  0.1848 -0.4020
  357MOL   C11143543   5.645   1.550   4.758 -0.3792  0.1208  0.2963
  357MOL  Cl11243544   5.763   1.428   4.706 -0.1564 -0.0810  0.1892
  357MOL   H11343545   5.503   1.686   4.656  1.2908  1.0390  1.6560
  357MOL   H11443546   5.649   1.642   4.574  1.4308  0.5807  2.5720
  357MOL   H11543547   5.705   1.636   4.788  0.7702  0.6875 -3.3522
  357MOL   C11643548   5.543   1.485   4.858 -0.0450 -0.4592 -0.2307
  357MOL   C11743549   5.470   1.596   4.940 -0.6269  0.5007  0.6676
  357MOL  Cl11843550   5.362   1.518   5.055  0.0919  0.0066 -0.2139
  357MOL   H11943551   5.590   1.418   4.929  2.9513  1.3611 -0.4127
  357MOL   H12043552   5.477   1.410   4.813  2.3279 -2.1049 -1.0742
  357MOL   H12143553   5.540   1.655   4.998  1.7547 -1.8037  0.2200
  357MOL   H12243554   5.410   1.658   4.873 -0.4713  1.0420  1.0318
  358MOL     C143555   3.633   2.838   2.042 -0.4929  0.8722  0.2571
  358MOL     C243556   3.736   2.879   2.151 -0.3978  0.6860  0.1462
  358MOL    Cl343557   3.647   2.960   2.282 -0.4331  0.0379 -0.2783
  358MOL     H443558   3.684   2.781   1.965 -1.2832 -0.0645  0.4150
  358MOL     H543559   3.561   2.772   2.091 -0.5341  1.2133  0.6546
  358MOL     H643560   3.782   2.784   2.178 -0.2706  0.3586 -1.2121
  358MOL     H743561   3.585   2.932   2.015  0.0608  0.4103 -2.5253
  358MOL     C843562   3.847   2.979   2.110  0.1142  0.1379  0.2420
  358MOL     C943563   3.932   2.922   1.998  0.0788  0.3148 -0.1972
  358MOL   Cl1043564   4.017   2.778   2.047 -0.0863 -0.0172  0.1988
  358MOL    H1143565   3.905   3.013   2.195  0.6764 -1.4386  0.5050
  358MOL    H1243566   3.800   3.068   2.068  1.5391  1.4271  1.3404
  358MOL    H1343567   3.858   2.897   1.922  0.0111  0.9647 -0.3413
  358MOL    C1443568   4.040   3.015   1.934  0.3258  0.3898  0.4103
  358MOL    C1543569   4.123   2.960   1.813  0.0531  0.1797 -0.0012
  358MOL   Cl1643570   4.239   3.092   1.758  0.1358 -0.1894  0.1973
  358MOL    H1743571   4.114   3.033   2.012 -0.0811  0.2566  0.8237
  358MOL    H1843572   3.994   3.110   1.909  1.1552  0.4536 -0.9167
  358MOL    H1943573   4.184   2.877   1.849  1.7075  0.5170 -1.8787
  358MOL    C2043574   4.041   2.922   1.689 -0.0246 -0.0938  0.9525
  358MOL    C2143575   3.963   3.034   1.624  0.2126 -0.2523 -0.7244
  358MOL   Cl2243576   3.801   3.021   1.679 -0.4697  0.4817 -0.1800
  358MOL    H2343577   3.973   2.839   1.705 -0.3282 -0.2914 -1.3120
  358MOL    H2443578   4.118   2.880   1.624 -1.1457 -0.8215  0.0882
  358MOL    H2543579   3.993   3.138   1.640 -1.2649  0.3193 -1.6333
  358MOL    C2643580   3.965   3.013   1.473 -0.5724 -0.5678 -0.6117
  358MOL    C2743581   4.088   3.060   1.390  0.5805  0.1192 -0.0110
  358MOL   Cl2843582   4.088   3.239   1.378  0.3725 -0.5780 -0.2343
  358MOL    H2943583   3.882   3.063   1.424 -0.8039 -1.8555 -1.5328
  358MOL    H3043584   3.935   2.910   1.457  1.2911 -1.0242 -1.2678
  358MOL    H3143585   4.182   3.026   1.433 -0.0053 -0.9636  0.4109
  358MOL    C3243586   4.063   3.011   1.246  0.5842 -0.2573  0.2028
  358MOL    C3343587   4.071   2.850   1.221 -0.1325 -0.5813 -0.3116
  358MOL   Cl3443588   4.206   2.809   1.113 -0.0506 -0.0647 -0.1563
  358MOL    H3543589   4.145   3.049   1.186 -1.3823 -0.8756 -2.9655
  358MOL    H3643590   3.979   3.050   1.188  0.0826  2.1857  2.4417
  358MOL    H3743591   4.099   2.807   1.317 -0.5280 -0.0327  0.0560
  358MOL    C3843592   3.933   2.797   1.170  0.6062  0.2797  0.6081
  358MOL    C3943593   3.949   2.642   1.167  0.4420  0.1479  0.0779
  358MOL   Cl4043594   3.813   2.554   1.090  0.3106  0.4309 -0.2878
  358MOL    H4143595   3.899   2.842   1.076 -0.4850 -2.9588 -0.6035
  358MOL    H4243596   3.857   2.824   1.242 -0.6723  0.8399 -0.9120
  358MOL    H4343597   4.035   2.620   1.103 -0.3843  0.4953 -1.1699
  358MOL    C4443598   3.951   2.574   1.313 -0.0816 -0.5002 -1.1849
  358MOL    C4543599   3.989   2.424   1.333  0.3448 -0.8895  0.6590
  358MOL   Cl4643600   3.957   2.363   1.491  0.3808  0.1525  0.2377
  358MOL    H4743601   3.854   2.579   1.362  1.6497  1.1066  2.2100
  358MOL    H4843602   4.011   2.633   1.382  1.1473 -3.2926  0.2554
  358MOL    H4943603   3.923   2.368   1.268  2.1268 -0.1002 -1.8895
  358MOL    C5043604   4.140   2.407   1.293  0.1005  0.2297  0.1846
  358MOL    C5143605   4.179   2.283   1.198 -0.1714 -0.6373  0.3229
  358MOL   Cl5243606   4.095   2.310   1.047  0.3589 -0.1320 -0.6593
  358MOL    H5343607   4.203   2.408   1.382  1.5834 -1.6259 -0.8129
  358MOL    H5443608   4.176   2.496   1.241 -2.6820  1.9093  0.9993
  358MOL    H5543609   4.286   2.277   1.180 -0.0305  1.0206  0.6038
  358MOL    C5643610   4.129   2.142   1.248  0.2733  0.0587 -0.4818
  358MOL    C5743611   4.177   2.019   1.176  0.3701 -0.0911 -0.2649
  358MOL   Cl5843612   4.071   1.881   1.219 -0.2572  0.1648 -0.0119
  358MOL    H5943613   4.020   2.134   1.249  0.2122  0.5309 -1.7121
  358MOL    H6043614   4.147   2.131   1.355  0.2431 -2.4615 -0.7008
  358MOL    H6143615   4.158   2.044   1.072 -0.5305 -1.8878 -0.5421
  358MOL    C6243616   4.324   1.980   1.200 -0.2217  0.3266  0.1726
  358MOL    C6343617   4.400   1.916   1.086  0.7694 -1.1605  0.2126
  358MOL   Cl6443618   4.567   1.878   1.136  0.6722 -0.2688  0.2545
  358MOL    H6543619   4.325   1.906   1.280 -0.6577  1.6076  1.3827
  358MOL    H6643620   4.382   2.060   1.246  1.3855  0.7546 -2.4935
  358MOL    H6743621   4.341   1.833   1.046 -1.9677  1.4961 -1.4475
  358MOL    C6843622   4.407   2.019   0.974 -0.4583  0.0922 -0.2829
  358MOL    C6943623   4.460   1.980   0.837  0.3818  0.8804 -0.1327
  358MOL   Cl7043624   4.480   2.126   0.742  0.1892 -0.0124  0.0018
  358MOL    H7143625   4.482   2.091   1.007  0.0404 -0.1153 -0.9390
  358MOL    H7243626   4.316   2.074   0.952 -0.4480 -1.2258 -4.0217
  358MOL    H7343627   4.558   1.944   0.867  0.3891  1.6345  0.8054
  358MOL    C7443628   4.380   1.865   0.763  0.2796  0.2905  0.3571
  358MOL    C7543629   4.236   1.906   0.722 -0.0404 -0.7505 -0.3950
  358MOL   Cl7643630   4.126   1.869   0.859  0.3718 -0.1423 -0.1056
  358MOL    H7743631   4.377   1.766   0.809  0.9577 -0.1760 -0.5888
  358MOL    H7843632   4.446   1.851   0.677 -1.6686  0.4334 -1.2063
  358MOL    H7943633   4.236   2.014   0.707 -0.5756 -0.5914  0.7432
  358MOL    C8043634   4.164   1.831   0.599 -0.6934 -0.1470 -0.2101
  358MOL    C8143635   4.024   1.871   0.551 -0.8127  0.5127  0.5061
  358MOL   Cl8243636   3.979   1.744   0.435 -0.2733 -0.2639 -0.1056
  358MOL    H8343637   4.148   1.729   0.634 -1.2277 -0.5320 -1.5303
  358MOL    H8443638   4.233   1.824   0.515 -0.4399 -0.7718  0.0433
  358MOL    H8543639   3.950   1.871   0.631 -0.7806  2.7327  0.5587
  358MOL    C8643640   4.011   2.005   0.484  0.0005 -0.4535  0.3059
  358MOL    C8743641   3.873   2.071   0.493 -0.0397  0.2024  0.5686
  358MOL   Cl8843642   3.739   1.978   0.410 -0.1175 -0.0359  0.1690
  358MOL    H8943643   4.045   1.987   0.382  0.3391 -0.4137  0.4116
  358MOL    H9043644   4.082   2.073   0.531  0.9859  0.1611 -1.9908
  358MOL    H9143645   3.850   2.068   0.599  1.3999  1.8316  0.9580
  358MOL    C9243646   3.871   2.211   0.429  0.1058 -0.3289  0.0736
  358MOL    C9343647   3.745   2.287   0.450  0.0552  0.0011  0.6413
  358MOL   Cl9443648   3.766   2.443   0.354  0.1179 -0.2330  0.1199
  358MOL    H9543649   3.885   2.211   0.321  1.7073  1.8185  0.2545
  358MOL    H9643650   3.945   2.269   0.483  0.1709  0.1331 -0.5092
  358MOL    H9743651   3.669   2.236   0.391  1.6404 -1.7340  0.0253
  358MOL    C9843652   3.694   2.311   0.590  0.4423 -0.5302 -0.4674
  358MOL    C9943653   3.590   2.419   0.607  0.1401  0.0616 -0.6756
  358MOL  Cl10043654   3.565   2.436   0.780  0.0379  0.1557 -0.1981
  358MOL   H10143655   3.778   2.335   0.655 -1.3434 -1.4274  2.2471
  358MOL   H10243656   3.658   2.214   0.625 -0.6567 -0.1858 -0.6174
  358MOL   H10343657   3.622   2.517   0.571 -0.5229  0.4397 -0.2415
  358MOL   C10443658   3.462   2.380   0.536 -0.1037 -0.3863 -0.0017
  358MOL   C10543659   3.350   2.481   0.542 -0.5806  0.2963 -0.5757
  358MOL  Cl10643660   3.187   2.410   0.497  0.0888 -0.0970 -0.1242
  358MOL   H10743661   3.423   2.288   0.579  0.9574 -0.3384  1.0796
  358MOL   H10843662   3.486   2.363   0.431  2.4276  0.7868  0.3676
  358MOL   H10943663   3.333   2.522   0.641  0.8703  0.5803 -0.4414
  358MOL   C11043664   3.373   2.604   0.446  0.5228 -0.1321  0.3732
  358MOL   C11143665   3.354   2.743   0.509 -0.0669 -0.4971 -0.3134
  358MOL  Cl11243666   3.182   2.757   0.550 -0.1435  0.1672  0.4717
  358MOL   H11343667   3.318   2.589   0.353 -0.2804  4.6976 -0.0293
  358MOL   H11443668   3.476   2.604   0.408  0.9032 -1.8599  1.3304
  358MOL   H11543669   3.413   2.744   0.600 -0.4077 -1.7760 -0.0555
  358MOL   C11643670   3.389   2.860   0.412  0.3643  0.4621  0.1332
  358MOL   C11743671   3.537   2.877   0.368 -0.3006 -0.5119  0.3594
  358MOL  Cl11843672   3.628   2.902   0.521  0.1082  0.2328  0.0343
  358MOL   H11943673   3.354   2.958   0.443 -4.4397 -0.4355 -1.9080
  358MOL   H12043674   3.326   2.842   0.325 -0.0928 -1.7254  0.8701
  358MOL   H12143675   3.564   2.783   0.319 -0.1417 -0.4667  0.3589
  358MOL   H12243676   3.547   2.959   0.297  2.7003 -0.5094  0.7310
  359MOL     C143677   5.618   4.908   1.050 -0.4326 -0.1130 -0.3957
  359MOL     C243678   5.724   4.794   1.067 -0.1306  0.0026 -0.5643
  359MOL    Cl343679   5.666   4.651   0.972 -0.2289  0.2198  0.1820
  359MOL     H443680   5.604   4.908   0.942 -0.1941  1.9174 -0.4481
  359MOL     H543681   5.527   4.879   1.104  0.8472 -0.7408  1.4493
  359MOL     H643682   5.823   4.822   1.029 -0.0927 -0.1425 -0.5735
  359MOL     H743683   5.654   5.007   1.077 -0.8379 -0.0674 -0.0093
  359MOL     C843684   5.750   4.756   1.215  0.0178 -0.1418  0.2909
  359MOL     C943685   5.840   4.852   1.285 -0.1348 -0.4732 -0.1031
  359MOL   Cl1043686   6.003   4.812   1.217 -0.3075 -0.0767  0.0290
  359MOL    H1143687   5.785   4.653   1.225 -3.5256 -1.7028 -2.1682
  359MOL    H1243688   5.651   4.755   1.260 -0.8531 -3.4778 -1.4867
  359MOL    H1343689   5.816   4.953   1.255 -2.3744 -0.9510 -0.0174
  359MOL    C1443690   5.845   4.836   1.435  0.4989  0.0053 -0.0104
  359MOL    C1543691   5.712   4.883   1.508  0.1662 -0.8195  0.5609
  359MOL   Cl1643692   5.673   5.051   1.454  0.0357  0.0474 -0.0816
  359MOL    H1743693   5.926   4.896   1.476  1.1574 -0.2199 -0.9567
  359MOL    H1843694   5.882   4.736   1.459 -1.2361 -0.2461  1.6738
  359MOL    H1943695   5.619   4.831   1.484  0.1185 -0.3406 -0.3240
  359MOL    C2043696   5.741   4.878   1.657  0.9124 -0.2258 -0.8941
  359MOL    C2143697   5.630   4.866   1.760 -0.1439 -0.0349 -0.8297
  359MOL   Cl2243698   5.545   4.707   1.731  0.2161  0.1837  0.0241
  359MOL    H2343699   5.802   4.966   1.678 -0.3695  0.2666  0.9713
  359MOL    H2443700   5.801   4.789   1.676  0.0699 -0.5555  0.2647
  359MOL    H2543701   5.678   4.848   1.856  0.7858 -0.6002 -1.4040
  359MOL    C2643702   5.530   4.986   1.775 -0.2737  0.0350  0.6881
  359MOL    C2743703   5.593   5.118   1.820  0.1671 -0.6827 -0.0573
  359MOL   Cl2843704   5.629   5.096   1.994 -0.0025 -0.4250  0.2333
  359MOL    H2943705   5.464   4.957   1.856  0.1277  1.5416  1.5727
  359MOL    H3043706   5.471   4.999   1.684 -0.8069  1.5134  1.2360
  359MOL    H3143707   5.689   5.142   1.776 -1.1593  2.8746 -1.1571
  359MOL    C3243708   5.497   5.227   1.793 -0.6242 -0.4196 -0.8661
  359MOL    C3343709   5.550   5.344   1.697  0.2113  0.2248 -0.4151
  359MOL   Cl3443710   5.672   5.431   1.791 -0.0652  0.0783  0.0637
  359MOL    H3543711   5.479   5.275   1.889  1.6677  0.9138 -1.0448
  359MOL    H3643712   5.397   5.197   1.761 -0.8415 -0.3278 -0.2698
  359MOL    H3743713   5.607   5.292   1.620  2.0567 -1.3519  1.9241
  359MOL    C3843714   5.444   5.439   1.647 -0.0663 -0.1860  0.0033
  359MOL    C3943715   5.379   5.526   1.754 -0.0063 -0.4642 -0.1657
  359MOL   Cl4043716   5.234   5.446   1.804 -0.1905  0.0955 -0.5360
  359MOL    H4143717   5.380   5.397   1.568 -0.9216 -0.9527  1.0806
  359MOL    H4243718   5.493   5.506   1.577  0.3440  0.8235  1.2522
  359MOL    H4343719   5.448   5.544   1.836 -1.1120 -0.4338  0.7689
  359MOL    C4443720   5.324   5.661   1.705 -0.1283  0.1234  0.2452
  359MOL    C4543721   5.433   5.776   1.681  0.5061  0.2411 -0.2308
  359MOL   Cl4643722   5.490   5.821   1.846 -0.0244  0.2097 -0.0638
  359MOL    H4743723   5.249   5.701   1.773  0.0137 -0.0511  0.5080
  359MOL    H4843724   5.284   5.630   1.608 -1.6887 -1.3035  1.3102
  359MOL    H4943725   5.514   5.741   1.617 -1.1064 -0.7445 -1.7668
  359MOL    C5043726   5.374   5.907   1.632  0.8617  0.1843 -0.0215
  359MOL    C5143727   5.341   5.897   1.485  0.2724  0.2402  0.0601
  359MOL   Cl5243728   5.485   5.886   1.394  0.0289  0.1999 -0.4655
  359MOL    H5343729   5.439   5.994   1.641 -1.3291  1.9560 -0.7213
  359MOL    H5443730   5.285   5.929   1.692  0.2434 -0.1382 -0.8139
  359MOL    H5543731   5.290   5.801   1.470 -0.3721  0.2381  2.1275
  359MOL    C5643732   5.262   6.016   1.429 -0.5827 -0.4713 -0.2089
  359MOL    C5743733   5.220   6.018   1.280  0.1909 -0.1775  0.2143
  359MOL   Cl5843734   5.167   6.189   1.243  0.2746 -0.4347  0.2586
  359MOL    H5943735   5.322   6.103   1.454 -0.9482  0.0995 -1.3057
  359MOL    H6043736   5.177   6.024   1.497  2.1235 -0.7030  3.3645
  359MOL    H6143737   5.304   5.981   1.221  1.0832  1.1558  0.6072
  359MOL    C6243738   5.100   5.915   1.259 -0.2458  0.5440  0.1742
  359MOL    C6343739   5.053   5.890   1.112 -0.5188  0.1045 -0.1479
  359MOL   Cl6443740   5.185   5.885   0.990 -0.3894 -0.1782 -0.1597
  359MOL    H6543741   5.019   5.952   1.322 -1.0015  0.3515 -0.6731
  359MOL    H6643742   5.141   5.826   1.306 -1.8878 -1.1254 -1.4709
  359MOL    H6743743   5.010   5.790   1.113 -1.0025  0.3008 -0.6827
  359MOL    C6843744   4.954   5.997   1.067  0.3712 -0.1872 -0.5838
  359MOL    C6943745   4.907   6.004   0.920  0.0309 -0.0327  0.2739
  359MOL   Cl7043746   4.782   6.136   0.892 -0.2968  0.1915  0.3374
  359MOL    H7143747   4.996   6.098   1.078 -2.8349  1.3189 -1.5709
  359MOL    H7243748   4.861   5.985   1.121 -0.1007 -0.8098 -1.5287
  359MOL    H7343749   4.999   6.039   0.873  0.6043  1.2201  2.2187
  359MOL    C7443750   4.876   5.869   0.851 -0.0191  0.3438  1.3564
  359MOL    C7543751   4.734   5.816   0.859 -0.1330 -0.4037 -0.0117
  359MOL   Cl7643752   4.714   5.708   1.006 -0.1502  0.0052 -0.2252
  359MOL    H7743753   4.935   5.787   0.892  1.8875  1.2674  0.5657
  359MOL    H7843754   4.897   5.885   0.745  0.0751 -2.4396  0.9343
  359MOL    H7943755   4.657   5.892   0.872 -1.4458 -1.6346 -0.4824
  359MOL    C8043756   4.693   5.734   0.730  0.7789 -0.8673  0.3265
  359MOL    C8143757   4.543   5.689   0.716 -0.4848 -0.1810 -0.2760
  359MOL   Cl8243758   4.515   5.591   0.562 -0.3010 -0.1282  0.4900
  359MOL    H8343759   4.769   5.657   0.718  0.5254 -0.6782 -3.2933
  359MOL    H8443760   4.712   5.803   0.648  1.4257 -2.4241 -0.8751
  359MOL    H8543761   4.525   5.625   0.802 -0.0425 -0.7508 -0.6075
  359MOL    C8643762   4.434   5.806   0.720 -0.3536 -0.1733 -0.1565
  359MOL    C8743763   4.288   5.756   0.722 -0.7862  0.6751 -0.5235
  359MOL   Cl8843764   4.184   5.902   0.734  0.2098 -0.2870 -0.1851
  359MOL    H8943765   4.456   5.863   0.630  1.4132  0.9357  0.9568
  359MOL    H9043766   4.445   5.857   0.816  3.3129  0.2447 -0.7433
  359MOL    H9143767   4.276   5.717   0.621  1.5161 -0.0117 -0.5622
  359MOL    C9243768   4.246   5.634   0.808 -0.4217 -0.1524 -0.5605
  359MOL    C9343769   4.210   5.679   0.956  0.2316 -0.0474 -0.2458
  359MOL   Cl9443770   4.329   5.778   1.039 -0.0398 -0.1030 -0.3509
  359MOL    H9543771   4.318   5.552   0.807  1.2530  1.1224  3.5965
  359MOL    H9643772   4.155   5.604   0.757 -1.1591 -1.4278  1.4518
  359MOL    H9743773   4.123   5.744   0.947  1.1512  0.9178 -2.4891
  359MOL    C9843774   4.184   5.557   1.044 -0.6596  0.6401  0.4895
  359MOL    C9943775   4.084   5.448   0.996 -0.5637  0.0816 -0.3389
  359MOL  Cl10043776   3.932   5.522   0.960 -0.1765 -0.0246 -0.3977
  359MOL   H10143777   4.152   5.602   1.138 -0.4623  0.9100  0.4289
  359MOL   H10243778   4.280   5.508   1.064  0.3377  2.0724 -0.6785
  359MOL   H10343779   4.130   5.397   0.912  1.1218 -2.3765  2.0026
  359MOL   C10443780   4.050   5.345   1.111 -0.9559 -0.1044  0.0035
  359MOL   C10543781   4.169   5.260   1.158  0.3304 -0.4548  0.6427
  359MOL  Cl10643782   4.245   5.195   1.010  0.0905  0.1171  0.3661
  359MOL   H10743783   3.971   5.279   1.076  0.0688 -1.2022 -0.2639
  359MOL   H10843784   4.018   5.400   1.199  1.8722  2.3128 -0.3816
  359MOL   H10943785   4.242   5.318   1.214 -2.1527  1.4892  1.9834
  359MOL   C11043786   4.130   5.138   1.248  0.6566 -0.1533 -0.2990
  359MOL   C11143787   4.238   5.065   1.326  0.4009  0.1452  0.6369
  359MOL  Cl11243788   4.166   4.922   1.399  0.0272  0.0059 -0.1485
  359MOL   H11343789   4.074   5.069   1.183  0.4538 -0.8204  0.5653
  359MOL   H11443790   4.051   5.175   1.313 -0.3595  0.4154 -1.8034
  359MOL   H11543791   4.312   5.038   1.250 -0.4955  1.2839 -0.6594
  359MOL   C11643792   4.312   5.145   1.441 -0.4221  0.0143  0.1270
  359MOL   C11743793   4.436   5.083   1.488 -0.7020 -0.1089  0.5790
  359MOL  Cl11843794   4.553   5.111   1.358  0.3508  0.0313  0.4063
  359MOL   H11943795   4.249   5.159   1.528  1.5182 -0.9749  1.7453
  359MOL   H12043796   4.332   5.248   1.411 -2.2319 -0.1911 -1.9111
  359MOL   H12143797   4.462   5.138   1.579  2.1573  2.3866 -1.6585
  359MOL   H12243798   4.429   4.977   1.515 -0.7789 -0.0785  0.6828
  360MOL     C143799   4.427   6.497   5.713 -0.2201 -0.2077 -0.3870
  360MOL     C243800   4.423   6.628   5.802  0.1959 -0.0551  0.0076
  360MOL    Cl343801   4.583   6.649   5.865  0.1031 -0.1771 -0.3650
  360MOL     H443802   4.487   6.518   5.624  0.4945  2.3885  0.6872
  360MOL     H543803   4.469   6.416   5.773  1.6363  0.5652 -0.6078
  360MOL     H643804   4.403   6.710   5.732  2.5047 -1.1302 -1.9923
  360MOL     H743805   4.324   6.487   5.678  0.2707 -1.5962 -1.4925
  360MOL     C843806   4.323   6.626   5.917  0.5882  0.2611 -0.4346
  360MOL     C943807   4.178   6.587   5.890 -0.0818 -0.1535  0.2755
  360MOL   Cl1043808   4.108   6.673   5.756  0.0412 -0.4136 -0.0396
  360MOL    H1143809   4.324   6.724   5.965 -0.8401  0.2428 -0.3352
  360MOL    H1243810   4.366   6.558   5.990  0.4054  2.4295  1.7581
  360MOL    H1343811   4.186   6.483   5.859 -0.6309  0.2378 -1.1974
  360MOL    C1443812   4.082   6.608   6.009 -0.7518  0.1222  0.2255
  360MOL    C1543813   3.934   6.591   5.989 -0.0962 -0.7425  0.0137
  360MOL   Cl1643814   3.847   6.687   6.110 -0.0106  0.0426  0.0737
  360MOL    H1743815   4.097   6.714   6.030 -2.3376  0.1941  1.0597
  360MOL    H1843816   4.103   6.550   6.099 -0.6858 -0.2423 -0.0239
  360MOL    H1943817   3.902   6.619   5.889 -3.9476 -1.1391  1.0871
  360MOL    C2043818   3.898   6.446   6.016  0.9620  0.5329  0.1297
  360MOL    C2143819   3.754   6.398   5.961 -0.5069 -0.0300  0.3834
  360MOL   Cl2243820   3.702   6.264   6.062 -0.1995 -0.1305 -0.0368
  360MOL    H2343821   3.897   6.431   6.124 -0.1325 -0.2803  0.0215
  360MOL    H2443822   3.970   6.372   5.983  0.8278  0.8628 -0.9122
  360MOL    H2543823   3.681   6.476   5.980 -1.0033 -0.3425 -0.2050
  360MOL    C2643824   3.749   6.348   5.814  0.2363 -1.0150 -0.7228
  360MOL    C2743825   3.770   6.453   5.706  0.3127 -0.5068 -0.7699
  360MOL   Cl2843826   3.656   6.598   5.725 -0.3785  0.1221  0.0804
  360MOL    H2943827   3.657   6.290   5.807  0.6498 -2.1735  2.4733
  360MOL    H3043828   3.833   6.279   5.802  0.4742 -0.4686 -2.4249
  360MOL    H3143829   3.872   6.491   5.714 -0.3465  0.8005  2.6137
  360MOL    C3243830   3.759   6.399   5.567  0.0736 -0.4324  0.1232
  360MOL    C3343831   3.869   6.310   5.500  0.3469 -0.9458  0.2812
  360MOL   Cl3443832   4.008   6.418   5.493  0.1372 -0.1182 -0.7353
  360MOL    H3543833   3.720   6.474   5.497 -0.7318 -1.3661 -0.4370
  360MOL    H3643834   3.679   6.326   5.553 -0.0715 -0.7935  2.7668
  360MOL    H3743835   3.903   6.235   5.571  0.7595 -0.4504  0.6144
  360MOL    C3843836   3.825   6.271   5.358  0.1559  0.0348  0.5514
  360MOL    C3943837   3.931   6.188   5.280  0.2271  0.1484 -0.2615
  360MOL   Cl4043838   3.857   6.160   5.123  0.0299 -0.4287 -0.2100
  360MOL    H4143839   3.806   6.367   5.310  0.3215  1.1149  2.6051
  360MOL    H4243840   3.728   6.222   5.353 -0.7415  1.9048 -1.3808
  360MOL    H4343841   4.025   6.237   5.257 -0.2899  0.7894 -1.0454
  360MOL    C4443842   3.953   6.054   5.350 -1.0583  0.4087  0.1719
  360MOL    C4543843   4.075   5.969   5.301  0.5412 -0.1460  0.3427
  360MOL   Cl4643844   4.005   5.855   5.186  0.0004 -0.2832 -0.2952
  360MOL    H4743845   3.864   5.992   5.343  0.1600 -1.4622  0.9051
  360MOL    H4843846   3.966   6.074   5.457  0.7646 -0.5146  0.1422
  360MOL    H4943847   4.148   6.028   5.247  0.5807  0.3356  0.9203
  360MOL    C5043848   4.145   5.898   5.415 -0.3699 -0.1422 -0.9343
  360MOL    C5143849   4.209   5.996   5.517  0.2535  0.3219  0.0783
  360MOL   Cl5243850   4.329   6.089   5.421  0.4287 -0.1719 -0.2150
  360MOL    H5343851   4.225   5.837   5.374 -1.2710 -1.3378 -0.9556
  360MOL    H5443852   4.071   5.835   5.464  0.4574  1.0388  1.8876
  360MOL    H5543853   4.140   6.075   5.547 -1.1583 -0.4642 -1.0614
  360MOL    C5643854   4.285   5.935   5.632 -0.5210  0.0372  0.5082
  360MOL    C5743855   4.350   6.027   5.733  0.2561 -0.7633  0.4001
  360MOL   Cl5843856   4.513   5.976   5.779 -0.0029  0.0559 -0.3900
  360MOL    H5943857   4.363   5.887   5.573 -0.2546  0.9033  0.1415
  360MOL    H6043858   4.219   5.859   5.673 -2.9529  1.5542 -0.4687
  360MOL    H6143859   4.354   6.125   5.686  0.2054 -0.2245  1.5029
  360MOL    C6243860   4.274   6.040   5.866 -0.1669  0.4918  0.2964
  360MOL    C6343861   4.124   6.063   5.858 -0.2251  0.1116 -0.2901
  360MOL   Cl6443862   4.113   6.222   5.778  0.0508 -0.1833 -0.1940
  360MOL    H6543863   4.317   6.128   5.915  0.3856  0.3111  0.1378
  360MOL    H6643864   4.292   5.945   5.916  1.9327 -0.8128 -2.8408
  360MOL    H6743865   4.081   5.988   5.791 -0.4961  1.4347 -1.6307
  360MOL    C6843866   4.044   6.059   5.990 -0.5494  0.6037  0.4202
  360MOL    C6943867   4.074   5.941   6.094  0.1696  0.5972 -0.3407
  360MOL   Cl7043868   4.060   5.781   6.004 -0.1986  0.6114  0.1079
  360MOL    H7143869   3.939   6.051   5.961  0.3009  0.2443 -2.7198
  360MOL    H7243870   4.050   6.153   6.045  0.4957  0.3484  0.7539
  360MOL    H7343871   4.175   5.941   6.136  0.1406  1.1707 -0.2741
  360MOL    C7443872   3.965   5.935   6.203  0.6020 -0.0641  0.0040
  360MOL    C7543873   3.971   6.045   6.304 -0.6584  0.0755 -0.2737
  360MOL   Cl7643874   4.135   6.038   6.373 -0.3785  0.0038  0.4718
  360MOL    H7743875   3.970   5.842   6.259 -1.7744  0.1731  0.6440
  360MOL    H7843876   3.870   5.919   6.153  0.2290  1.2189  0.2705
  360MOL    H7943877   3.969   6.142   6.253 -2.2040  0.2079  0.0164
  360MOL    C8043878   3.861   6.024   6.411 -0.9617 -0.0061  0.4553
  360MOL    C8143879   3.826   6.141   6.498 -0.4142  0.5701 -0.0251
  360MOL   Cl8243880   3.732   6.267   6.402  0.0674 -0.0823  0.3271
  360MOL    H8343881   3.886   5.934   6.467  0.7106  1.0127  1.3794
  360MOL    H8443882   3.778   5.980   6.355  0.4601 -1.4566 -0.5831
  360MOL    H8543883   3.750   6.106   6.568  2.1775 -0.9647  2.0867
  360MOL    C8643884   3.942   6.210   6.576  0.0972  0.5297 -0.6297
  360MOL    C8743885   3.907   6.325   6.667 -0.2224  0.7089  0.1078
  360MOL   Cl8843886   4.064   6.375   6.746 -0.4638  0.1518  0.3494
  360MOL    H8943887   4.002   6.249   6.494  2.1683 -1.1203  0.0481
  360MOL    H9043888   4.007   6.133   6.617 -0.8292 -1.5013 -2.8721
  360MOL    H9143889   3.879   6.411   6.607  0.6708  1.5302  0.8684
  360MOL    C9243890   3.802   6.294   6.772  0.3887  0.0736  0.0242
  360MOL    C9343891   3.760   6.412   6.867  0.4363  0.6404  0.1411
  360MOL   Cl9443892   3.635   6.353   6.990 -0.3422  0.0338 -0.2387
  360MOL    H9543893   3.842   6.210   6.828 -1.7102 -0.2055  1.1832
  360MOL    H9643894   3.709   6.263   6.724  0.4571 -0.6800  0.3742
  360MOL    H9743895   3.852   6.438   6.920  1.7839 -1.6791 -0.9539
  360MOL    C9843896   3.696   6.535   6.791 -0.2569 -0.2721 -0.4700
  360MOL    C9943897   3.632   6.642   6.873  0.4591  0.0289 -0.5014
  360MOL  Cl10043898   3.549   6.764   6.767 -0.0970  0.1926  0.0494
  360MOL   H10143899   3.623   6.488   6.724 -0.3584 -0.6799 -0.0775
  360MOL   H10243900   3.774   6.575   6.727 -1.4907  0.8941 -1.2828
  360MOL   H10343901   3.549   6.598   6.928 -0.8880 -1.0522 -3.3027
  360MOL   C10443902   3.732   6.712   6.969 -0.4503 -0.5359  0.0336
  360MOL   C10543903   3.699   6.789   7.106  1.2992  0.1823 -1.0602
  360MOL  Cl10643904   3.624   6.952   7.064  0.2938  0.0927 -0.0703
  360MOL   H10743905   3.802   6.773   6.911 -1.5475  0.6968 -0.0147
  360MOL   H10843906   3.789   6.624   6.998 -0.0704 -0.2063  0.2984
  360MOL   H10943907   3.629   6.726   7.160  1.5425 -0.9124 -2.0035
  360MOL   C11043908   3.826   6.804   7.186 -0.3218  0.5903  0.7298
  360MOL   C11143909   3.808   6.860   7.328  0.7289 -0.4947 -0.0310
  360MOL  Cl11243910   3.964   6.841   7.400  0.1502  0.2574  0.5521
  360MOL   H11343911   3.897   6.854   7.121 -1.6092  0.2903 -0.9484
  360MOL   H11443912   3.867   6.703   7.196 -3.2181 -0.8065 -0.8670
  360MOL   H11543913   3.794   6.965   7.306  0.1580 -0.8334 -1.3541
  360MOL   C11643914   3.704   6.821   7.431  0.5751 -0.7538  0.1931
  360MOL   C11743915   3.739   6.881   7.571  0.1799 -0.6606  0.1263
  360MOL  Cl11843916   3.605   6.856   7.684  0.0884  0.0320  0.0395
  360MOL   H11943917   3.690   6.714   7.443  1.0013 -0.6693  1.6005
  360MOL   H12043918   3.613   6.861   7.385  1.8879 -0.4032 -2.1735
  360MOL   H12143919   3.834   6.853   7.616  0.2539 -0.3447  0.1628
  360MOL   H12243920   3.742   6.989   7.559  0.3770 -0.9078 -2.3309
  361MOL     C143921   4.619   7.444   0.976  0.4202  0.7528 -0.0655
  361MOL     C243922   4.524   7.412   1.087  0.3437  0.7313 -0.8987
  361MOL    Cl343923   4.459   7.247   1.075 -0.2899  0.2514 -0.1012
  361MOL     H443924   4.560   7.453   0.885 -0.3665 -2.6301  0.0650
  361MOL     H543925   4.681   7.533   0.991 -0.3094  1.1448  0.6577
  361MOL     H643926   4.570   7.409   1.186  1.1241  0.4065 -1.2608
  361MOL     H743927   4.692   7.364   0.960  1.5512  1.6368  0.5674
  361MOL     C843928   4.406   7.509   1.103 -0.0968 -1.1699 -0.6467
  361MOL     C943929   4.450   7.657   1.124 -0.5743  0.6658  0.3594
  361MOL   Cl1043930   4.579   7.667   1.245 -0.2977  0.2002  0.1940
  361MOL    H1143931   4.342   7.479   1.186 -0.6338  0.1492 -0.5665
  361MOL    H1243932   4.342   7.504   1.015  0.1261 -1.3001 -0.8006
  361MOL    H1343933   4.489   7.699   1.032  0.3210 -0.7474  0.0722
  361MOL    C1443934   4.341   7.762   1.156 -0.2269 -0.2224  0.7121
  361MOL    C1543935   4.207   7.764   1.068  0.1410  0.0060  0.0465
  361MOL   Cl1643936   4.257   7.789   0.898 -0.0629  0.0366 -0.0141
  361MOL    H1743937   4.387   7.861   1.156 -1.3612  0.3206  1.9680
  361MOL    H1843938   4.309   7.753   1.260 -0.2368 -0.6748  0.6697
  361MOL    H1943939   4.157   7.668   1.079 -2.1645  1.1603 -0.0365
  361MOL    C2043940   4.124   7.888   1.105  0.1790 -0.1536  0.6620
  361MOL    C2143941   3.982   7.871   1.058  0.2393 -0.6432  0.7615
  361MOL   Cl2243942   3.908   8.035   1.082 -0.3782 -0.0939  0.3679
  361MOL    H2343943   4.164   7.987   1.086 -2.2569  0.3771 -2.1674
  361MOL    H2443944   4.115   7.893   1.214  0.1954  0.0419  0.6548
  361MOL    H2543945   3.978   7.853   0.951  1.2101  1.0208  0.4413
  361MOL    C2643946   3.904   7.762   1.144  0.7535 -0.4662 -0.4189
  361MOL    C2743947   3.834   7.649   1.061 -1.1036  0.3858  0.5940
  361MOL   Cl2843948   3.691   7.712   0.979 -0.4235 -0.1642 -0.2399
  361MOL    H2943949   3.827   7.810   1.204  1.4830 -2.0837  1.8896
  361MOL    H3043950   3.979   7.712   1.206  0.5547  1.1540  1.1708
  361MOL    H3143951   3.908   7.617   0.987 -0.1162 -0.8625  2.0741
  361MOL    C3243952   3.790   7.538   1.162  0.0684 -0.3179 -0.3345
  361MOL    C3343953   3.726   7.409   1.103 -0.1891  0.0409 -0.4314
  361MOL   Cl3443954   3.692   7.300   1.238  0.3886  0.2349  0.1882
  361MOL    H3543955   3.717   7.575   1.233  0.7201  0.6322 -0.1471
  361MOL    H3643956   3.872   7.513   1.229 -0.2851 -1.6554 -0.3894
  361MOL    H3743957   3.628   7.430   1.059 -0.1332 -0.3157 -0.7245
  361MOL    C3843958   3.813   7.337   1.000 -0.2373 -0.5999  0.0433
  361MOL    C3943959   3.764   7.202   0.947  0.3519 -0.3340 -1.0124
  361MOL   Cl4043960   3.897   7.134   0.855 -0.2552  0.3377 -0.1183
  361MOL    H4143961   3.907   7.315   1.049  1.0086  2.6105 -0.8147
  361MOL    H4243962   3.817   7.407   0.916 -1.4128  0.0471  0.5129
  361MOL    H4343963   3.757   7.135   1.033  2.4446  0.6359 -0.0649
  361MOL    C4443964   3.632   7.205   0.872 -0.2721  0.3146  0.2068
  361MOL    C4543965   3.587   7.075   0.810  0.5329  0.6136 -0.4790
  361MOL   Cl4643966   3.448   7.111   0.705 -0.0903 -0.0252  0.1380
  361MOL    H4743967   3.638   7.275   0.790 -0.9088 -0.3029 -0.3743
  361MOL    H4843968   3.548   7.248   0.928 -1.8741 -0.6243 -1.4064
  361MOL    H4943969   3.665   7.024   0.754  0.5500 -1.1442  1.1034
  361MOL    C5043970   3.531   6.989   0.920 -0.3173  0.6389  0.1704
  361MOL    C5143971   3.485   6.849   0.869  0.3385 -0.1157 -0.7254
  361MOL   Cl5243972   3.411   6.763   1.004  0.3216  0.2894  0.1030
  361MOL    H5343973   3.448   7.040   0.969 -0.3373  1.9986 -1.2344
  361MOL    H5443974   3.607   6.971   0.995  0.6916  0.6463 -0.8432
  361MOL    H5543975   3.396   6.865   0.807 -0.9032  1.2124  1.3269
  361MOL    C5643976   3.592   6.761   0.792  0.6557 -0.0598 -0.3952
  361MOL    C5743977   3.546   6.618   0.758 -0.4563 -0.0953  0.1551
  361MOL   Cl5843978   3.683   6.519   0.711 -0.1383  0.1996  0.1045
  361MOL    H5943979   3.688   6.754   0.844 -1.1210  0.2017  3.0015
  361MOL    H6043980   3.613   6.813   0.698  0.4242 -0.4182 -0.6458
  361MOL    H6143981   3.520   6.574   0.854 -1.4044 -1.8369 -0.8639
  361MOL    C6243982   3.437   6.617   0.643 -0.3900  0.6342  0.5029
  361MOL    C6343983   3.391   6.472   0.588 -0.1763 -0.4802  0.7061
  361MOL   Cl6443984   3.296   6.489   0.439  0.2382  0.0043  0.0314
  361MOL    H6543985   3.479   6.676   0.561 -0.4671 -1.0318 -0.7569
  361MOL    H6643986   3.342   6.668   0.663 -1.1049 -0.1721 -0.7895
  361MOL    H6743987   3.478   6.414   0.557 -1.5043 -2.4649  0.6233
  361MOL    C6843988   3.312   6.394   0.699  0.2554 -0.5745 -0.3625
  361MOL    C6943989   3.269   6.246   0.663  0.6063 -0.2055 -0.2259
  361MOL   Cl7043990   3.155   6.189   0.783 -0.2727  0.0157  0.3717
  361MOL    H7143991   3.223   6.453   0.718  1.5094  1.1652  0.2225
  361MOL    H7243992   3.370   6.402   0.791 -0.2518  0.5646 -0.1399
  361MOL    H7343993   3.211   6.244   0.571 -1.4944 -0.5196  1.0773
  361MOL    C7443994   3.378   6.143   0.648 -0.0404 -0.5276  0.2489
  361MOL    C7543995   3.456   6.091   0.771  0.4566 -0.6694  0.8490
  361MOL   Cl7643996   3.567   6.210   0.825  0.5219  0.1000  0.1061
  361MOL    H7743997   3.445   6.178   0.570  1.8705  0.4612  2.2722
  361MOL    H7843998   3.320   6.063   0.601 -2.3966  1.6269 -0.6606
  361MOL    H7943999   3.391   6.074   0.857 -0.8969 -0.6118 -0.1564
  361MOL    C8044000   3.553   5.968   0.730  0.0603  0.2801 -0.4227
  361MOL    C8144001   3.470   5.837   0.721 -0.1260  0.0081  0.2695
  361MOL   Cl8244002   3.417   5.788   0.882  0.3892  0.0393 -0.0134
  361MOL    H8344003   3.629   5.956   0.807 -1.6733 -2.9108  0.8321
  361MOL    H8444004   3.607   6.007   0.643  1.7375 -0.1315  0.4090
  361MOL    H8544005   3.376   5.865   0.674  0.3665  1.1406 -0.0375
  361MOL    C8644006   3.551   5.715   0.661  0.1628 -0.3933 -0.4204
  361MOL    C8744007   3.617   5.743   0.524 -0.2962 -0.2746  0.4236
  361MOL   Cl8844008   3.505   5.855   0.426 -0.1520  0.1449  0.5090
  361MOL    H8944009   3.480   5.634   0.647  0.0259 -0.1781 -1.0157
  361MOL    H9044010   3.627   5.681   0.731  0.5715  0.7302 -0.3124
  361MOL    H9144011   3.703   5.809   0.534  0.8627 -1.6088 -0.5447
  361MOL    C9244012   3.644   5.620   0.436 -0.4113  0.0798  0.1781
  361MOL    C9344013   3.766   5.540   0.489  0.1712 -0.0959  0.2434
  361MOL   Cl9444014   3.909   5.634   0.454  0.0309 -0.0955  0.3097
  361MOL    H9544015   3.656   5.655   0.333  1.9791  1.3536  0.8809
  361MOL    H9644016   3.554   5.558   0.425 -0.5912  0.3507  0.1296
  361MOL    H9744017   3.761   5.540   0.597 -0.7461  1.1927  0.2105
  361MOL    C9844018   3.772   5.396   0.430  0.3342  0.1600  0.3821
  361MOL    C9944019   3.882   5.296   0.463  0.5762  0.2119 -0.6139
  361MOL  Cl10044020   3.863   5.156   0.356  0.2156 -0.4959  0.2130
  361MOL   H10144021   3.784   5.402   0.321  0.3412  1.4461  0.4508
  361MOL   H10244022   3.677   5.343   0.435  0.6553 -0.7111 -2.0396
  361MOL   H10344023   3.980   5.337   0.437  0.9190 -0.8181 -0.9719
  361MOL   C10444024   3.884   5.256   0.620  0.2295  0.5168  1.1010
  361MOL   C10544025   3.972   5.130   0.652  0.6569 -0.6288  0.5075
  361MOL  Cl10644026   3.980   5.107   0.826 -0.2642  0.0167 -0.3167
  361MOL   H10744027   3.779   5.235   0.644  0.6296 -1.6643  1.0560
  361MOL   H10844028   3.907   5.345   0.678 -1.1697  0.5900  1.5557
  361MOL   H10944029   3.912   5.045   0.616 -4.3509  3.1329 -0.5763
  361MOL   C11044030   4.111   5.112   0.581 -0.5796 -0.0072 -0.2865
  361MOL   C11144031   4.230   5.192   0.646 -0.3004 -0.2850  0.2778
  361MOL  Cl11244032   4.210   5.372   0.629  0.5776  0.2692  0.2485
  361MOL   H11344033   4.103   5.133   0.475 -0.8921  2.8993  0.2682
  361MOL   H11444034   4.130   5.005   0.586  0.3889  0.1950  0.5905
  361MOL   H11544035   4.230   5.174   0.754  1.7207  1.6890  0.6446
  361MOL   C11644036   4.369   5.150   0.590  0.1038  0.3468 -0.4863
  361MOL   C11744037   4.493   5.193   0.662 -0.0235  0.3318 -0.3780
  361MOL  Cl11844038   4.629   5.169   0.552 -0.3219 -0.5735 -0.0246
  361MOL   H11944039   4.379   5.195   0.491 -1.8974 -2.6303 -2.1578
  361MOL   H12044040   4.369   5.047   0.554 -1.8652  0.0706  0.2528
  361MOL   H12144041   4.481   5.298   0.689 -0.5678  0.2271 -0.2104
  361MOL   H12244042   4.515   5.134   0.750 -0.1471 -0.3672 -0.8114
  362MOL     C144043   0.827   6.788   2.828  0.2362  0.0596 -0.9754
  362MOL     C244044   0.872   6.906   2.744 -0.0562 -0.5190  0.0926
  362MOL    Cl344045   0.777   7.049   2.809  0.0531 -0.2408 -0.0734
  362MOL     H444046   0.879   6.699   2.792 -0.8047 -1.6945  1.6374
  362MOL     H544047   0.859   6.801   2.932  0.8949  1.7566 -1.3775
  362MOL     H644048   0.976   6.933   2.759 -0.3360  0.7301 -0.1661
  362MOL     H744049   0.719   6.776   2.824  0.1161  1.0702 -0.7615
  362MOL     C844050   0.835   6.895   2.601  0.3553  0.4808 -0.2500
  362MOL     C944051   0.886   7.002   2.510  0.0048  0.0149  0.5064
  362MOL   Cl1044052   0.832   6.986   2.339  0.0746 -0.0323 -0.5649
  362MOL    H1144053   0.726   6.895   2.592  0.0176 -1.0434  3.0475
  362MOL    H1244054   0.878   6.799   2.573  1.9237  1.4062 -1.0658
  362MOL    H1344055   0.848   7.098   2.543  0.0920 -0.2148  1.2758
  362MOL    C1444056   1.041   7.007   2.507 -0.6226 -0.5540 -0.1145
  362MOL    C1544057   1.103   7.096   2.392  0.2920 -0.2544 -0.6087
  362MOL   Cl1644058   1.270   7.051   2.387  0.1935 -0.0219 -0.4660
  362MOL    H1744059   1.072   6.904   2.491  0.1067 -0.6038  1.5627
  362MOL    H1844060   1.088   7.030   2.602 -0.1316  2.0074 -0.9307
  362MOL    H1944061   1.056   7.079   2.295  1.3271 -2.2391 -0.7967
  362MOL    C2044062   1.088   7.250   2.432 -0.0753  0.5177  0.0167
  362MOL    C2144063   1.147   7.353   2.328  0.5621 -0.0990 -0.2504
  362MOL   Cl2244064   1.126   7.525   2.390 -0.4527 -0.0849  0.2936
  362MOL    H2344065   1.147   7.257   2.524  2.2767 -0.9304 -1.3149
  362MOL    H2444066   0.983   7.273   2.448  0.0000  0.4623  0.6087
  362MOL    H2544067   1.253   7.333   2.311  0.1362 -1.4769 -1.3778
  362MOL    C2644068   1.069   7.337   2.194  0.1038 -0.3089  0.2111
  362MOL    C2744069   1.088   7.440   2.085 -0.1189  0.6789 -0.1893
  362MOL   Cl2844070   0.965   7.401   1.958 -0.2585  0.0999  0.0145
  362MOL    H2944071   0.962   7.332   2.214  0.1561  1.3270  0.9863
  362MOL    H3044072   1.092   7.238   2.156 -0.0402 -0.1810 -0.2084
  362MOL    H3144073   1.056   7.536   2.126 -0.1712  0.6814 -0.2343
  362MOL    C3244074   1.225   7.456   2.021 -0.0365  0.3503 -0.0300
  362MOL    C3344075   1.257   7.582   1.936  0.7713  0.2180 -0.2106
  362MOL   Cl3444076   1.416   7.542   1.869 -0.1982 -0.2347  0.1329
  362MOL    H3544077   1.251   7.368   1.961  0.8656  0.1752  0.6161
  362MOL    H3644078   1.299   7.452   2.101 -0.7753 -1.7095  0.5997
  362MOL    H3744079   1.186   7.575   1.854  1.9318 -1.6646 -1.1123
  362MOL    C3844080   1.244   7.712   2.011 -0.5499 -0.3207 -0.0145
  362MOL    C3944081   1.262   7.839   1.930 -0.2404 -0.1669 -0.8837
  362MOL   Cl4044082   1.174   7.836   1.772 -0.1157 -0.2195  0.3655
  362MOL    H4144083   1.323   7.716   2.086  0.1942  0.9819 -0.8419
  362MOL    H4244084   1.153   7.722   2.069 -1.5793  0.9025 -1.8204
  362MOL    H4344085   1.214   7.914   1.992  1.9393 -0.9198  1.8471
  362MOL    C4444086   1.413   7.886   1.908 -0.5986 -0.1609  0.5364
  362MOL    C4544087   1.494   7.959   2.017 -0.5290  0.6891  0.4792
  362MOL   Cl4644088   1.404   8.106   2.061  0.0190 -0.1957 -0.1055
  362MOL    H4744089   1.408   7.956   1.825 -2.8970 -0.4045  0.4411
  362MOL    H4844090   1.472   7.808   1.860 -0.8081  0.6234 -1.0195
  362MOL    H4944091   1.500   7.891   2.103  2.8593  0.6225  0.2519
  362MOL    C5044092   1.640   7.984   1.966 -0.0881 -0.6820  0.4733
  362MOL    C5144093   1.749   8.032   2.067 -0.2529  0.4085 -0.3702
  362MOL   Cl5244094   1.717   8.198   2.133  0.3166  0.2547 -0.0074
  362MOL    H5344095   1.634   8.061   1.890 -0.7838 -1.7947 -0.6194
  362MOL    H5444096   1.679   7.900   1.909  0.3779  0.4210 -0.8557
  362MOL    H5544097   1.751   7.954   2.144 -1.9565  1.4232  0.7573
  362MOL    C5644098   1.887   8.036   2.004  0.0678 -0.2335 -0.3026
  362MOL    C5744099   1.949   7.906   1.954 -0.0648 -0.5680  0.2638
  362MOL   Cl5844100   1.969   7.799   2.096  0.4495  0.1315 -0.0967
  362MOL    H5944101   1.952   8.080   2.080 -0.4671  1.5347 -0.8518
  362MOL    H6044102   1.887   8.108   1.922  0.6498 -0.7874 -0.7974
  362MOL    H6144103   1.888   7.850   1.883 -0.9203 -0.0645  0.5925
  362MOL    C6244104   2.085   7.956   1.897 -1.2090 -0.3645 -0.0271
  362MOL    C6344105   2.185   7.841   1.847 -0.3030  0.0480 -0.3367
  362MOL   Cl6444106   2.340   7.916   1.791  0.4623  0.5226  0.4580
  362MOL    H6544107   2.139   8.002   1.979 -0.0446 -1.1997 -0.3146
  362MOL    H6644108   2.065   8.024   1.814  0.7773  1.6211  1.0745
  362MOL    H6744109   2.215   7.788   1.937  1.7600 -1.4789 -1.8721
  362MOL    C6844110   2.120   7.751   1.746  0.5369 -0.4600 -0.2647
  362MOL    C6944111   2.123   7.809   1.596  0.3257  0.1977  0.0595
  362MOL   Cl7044112   1.954   7.855   1.550  0.0140 -0.1986  0.0465
  362MOL    H7144113   2.022   7.707   1.766  0.7398 -1.3202 -1.1296
  362MOL    H7244114   2.188   7.666   1.746  3.3171  1.6789  0.8904
  362MOL    H7344115   2.167   7.908   1.586  1.2897 -0.3181 -0.8527
  362MOL    C7444116   2.179   7.721   1.481  0.2749 -0.3497 -0.2214
  362MOL    C7544117   2.330   7.689   1.492 -0.4860 -0.2504  0.0843
  362MOL   Cl7644118   2.410   7.842   1.439  0.2765 -0.2160  0.0419
  362MOL    H7744119   2.168   7.779   1.389 -0.8517 -0.3967 -0.1117
  362MOL    H7844120   2.133   7.622   1.488 -2.8203  1.0634  0.1142
  362MOL    H7944121   2.356   7.671   1.597 -2.5656 -0.1342  0.6379
  362MOL    C8044122   2.376   7.578   1.399 -0.0873  0.2763 -0.0540
  362MOL    C8144123   2.490   7.484   1.446  0.7256  1.3214  0.5652
  362MOL   Cl8244124   2.428   7.381   1.572  0.1263 -0.1440 -0.1809
  362MOL    H8344125   2.417   7.628   1.311 -2.0319 -0.0701 -1.1813
  362MOL    H8444126   2.295   7.514   1.365 -1.2325  1.8439 -0.3101
  362MOL    H8544127   2.524   7.430   1.357  1.9972  1.6070  0.8711
  362MOL    C8644128   2.620   7.549   1.496 -0.1539  0.1357  0.3253
  362MOL    C8744129   2.721   7.604   1.396 -1.1431  0.2826 -0.3894
  362MOL   Cl8844130   2.778   7.469   1.288 -0.4371 -0.1772 -0.2458
  362MOL    H8944131   2.680   7.469   1.542  1.0728  0.5368 -0.5429
  362MOL    H9044132   2.600   7.623   1.573  1.3055 -0.4762  1.3459
  362MOL    H9144133   2.671   7.676   1.331  1.7410  1.0417 -1.8592
  362MOL    C9244134   2.839   7.672   1.477 -0.1619 -0.1754  0.0440
  362MOL    C9344135   2.806   7.813   1.518 -0.2123  0.0119 -0.0605
  362MOL   Cl9444136   2.847   7.924   1.385 -0.1410  0.1093 -0.4355
  362MOL    H9544137   2.921   7.698   1.410 -0.4495  2.5716  0.6926
  362MOL    H9644138   2.885   7.619   1.561  0.5947  0.3338 -0.0406
  362MOL    H9744139   2.703   7.835   1.549  0.4698  1.7723  1.0065
  362MOL    C9844140   2.898   7.854   1.637  0.1093 -0.0383 -0.3800
  362MOL    C9944141   2.846   7.818   1.775 -0.5842  0.0867  0.1837
  362MOL  Cl10044142   2.683   7.875   1.807  0.3872  0.6962 -0.2581
  362MOL   H10144143   2.898   7.963   1.637  3.1841  0.0192 -0.8733
  362MOL   H10244144   3.001   7.825   1.618 -0.1720  0.4237 -2.9141
  362MOL   H10344145   2.842   7.709   1.764  1.1532  0.1102 -0.9406
  362MOL   C10444146   2.934   7.870   1.888 -0.0523 -0.0115 -0.3745
  362MOL   C10544147   3.074   7.806   1.902  0.3048 -0.6892  0.7818
  362MOL  Cl10644148   3.062   7.626   1.911 -0.0289 -0.0603 -0.0318
  362MOL   H10744149   2.882   7.836   1.978  0.7254 -0.1126  0.0419
  362MOL   H10844150   2.949   7.978   1.890  0.1625 -0.0553  0.8999
  362MOL   H10944151   3.137   7.825   1.815  0.0408  0.9500  0.9319
  362MOL   C11044152   3.151   7.849   2.030  0.6719  0.3741 -0.1286
  362MOL   C11144153   3.206   7.991   2.036 -0.5406 -0.1549 -0.0141
  362MOL  Cl11244154   3.336   8.004   1.910  0.3247  0.1501 -0.3600
  362MOL   H11344155   3.226   7.773   2.054  0.6579  0.0710 -1.0246
  362MOL   H11444156   3.078   7.837   2.110  0.7866  0.8227  0.0433
  362MOL   H11544157   3.126   8.055   2.001 -0.0366  1.8605  2.3651
  362MOL   C11644158   3.263   8.033   2.163  1.1159  0.7179 -0.2409
  362MOL   C11744159   3.182   8.156   2.211 -0.3809  0.2598  0.8275
  362MOL  Cl11844160   3.271   8.235   2.345 -0.1165 -0.2475  0.1087
  362MOL   H11944161   3.367   8.063   2.151  1.3788 -0.1910 -0.2403
  362MOL   H12044162   3.251   7.953   2.236  1.7339 -1.6001 -2.6208
  362MOL   H12144163   3.184   8.227   2.128 -1.6664  0.0352  0.5916
  362MOL   H12244164   3.077   8.139   2.235 -0.3671  1.4913  1.8104
  363MOL     C144165   4.320   5.343   5.297  0.0420  0.3557  0.3331
  363MOL     C244166   4.365   5.218   5.214 -0.2735 -0.5704 -0.2205
  363MOL    Cl344167   4.418   5.267   5.051  0.1501 -0.2353  0.2181
  363MOL     H444168   4.331   5.321   5.403  1.6355  1.1882  0.3513
  363MOL     H544169   4.392   5.422   5.277  0.7411 -0.3418  0.0662
  363MOL     H644170   4.458   5.187   5.260  0.3113  1.1850 -0.1819
  363MOL     H744171   4.213   5.362   5.287 -0.1461 -0.7938  0.0904
  363MOL     C844172   4.262   5.102   5.202 -0.4174  0.8047  0.3812
  363MOL     C944173   4.214   5.041   5.343  0.9044 -0.3089  0.0082
  363MOL   Cl1044174   4.362   4.962   5.415  0.3516 -0.3651 -0.2643
  363MOL    H1144175   4.315   5.025   5.146 -0.3935 -0.3529  1.9509
  363MOL    H1244176   4.183   5.144   5.141 -1.3411  0.6497  1.4648
  363MOL    H1344177   4.183   5.119   5.414  0.0091  0.3932 -1.1408
  363MOL    C1444178   4.099   4.938   5.340  0.4910  0.0594 -0.3443
  363MOL    C1544179   3.957   4.995   5.320  0.4693  0.0850 -0.1001
  363MOL   Cl1644180   3.921   5.086   5.466  0.0055 -0.0493 -0.1755
  363MOL    H1744181   4.087   4.880   5.431 -2.4443 -0.1991 -0.8357
  363MOL    H1844182   4.115   4.873   5.253 -1.3650 -0.2943 -0.4506
  363MOL    H1944183   3.962   5.065   5.237  0.1953 -1.6494 -1.6049
  363MOL    C2044184   3.845   4.893   5.298  0.5362  0.2881 -0.5376
  363MOL    C2144185   3.867   4.804   5.176  0.5145 -0.2512 -0.6712
  363MOL   Cl2244186   3.882   4.904   5.032  0.1823 -0.0153  0.3781
  363MOL    H2344187   3.755   4.950   5.277  1.2532  1.0702 -1.5038
  363MOL    H2444188   3.837   4.832   5.389 -0.0837 -0.7117 -1.2534
  363MOL    H2544189   3.960   4.748   5.184 -0.5393 -1.5982  4.0138
  363MOL    C2644190   3.758   4.703   5.151  0.7394 -0.0300  0.1770
  363MOL    C2744191   3.803   4.573   5.068  0.8132  0.2120 -0.0201
  363MOL   Cl2844192   3.664   4.464   5.062  0.0888  0.4132 -0.2527
  363MOL    H2944193   3.668   4.743   5.105  1.1249 -1.1392 -1.6005
  363MOL    H3044194   3.716   4.663   5.244 -1.1723  0.0908 -0.6091
  363MOL    H3144195   3.808   4.606   4.965 -1.3927 -1.2886 -0.6279
  363MOL    C3244196   3.935   4.495   5.093  0.7250 -0.2977  0.4694
  363MOL    C3344197   3.947   4.415   5.228 -0.7927 -0.4565  0.3726
  363MOL   Cl3444198   3.941   4.522   5.375  0.1284 -0.2744  0.2918
  363MOL    H3544199   4.017   4.567   5.082 -0.3468  1.0614  1.2162
  363MOL    H3644200   3.939   4.421   5.014 -1.5478  0.7284 -0.6384
  363MOL    H3744201   3.859   4.352   5.242 -1.6311  0.1838 -1.8182
  363MOL    C3844202   4.080   4.333   5.224  0.0012 -0.1780 -0.1603
  363MOL    C3944203   4.104   4.236   5.347  0.0163  0.0397 -0.7216
  363MOL   Cl4044204   4.258   4.137   5.328 -0.2781  0.1626 -0.0278
  363MOL    H4144205   4.169   4.393   5.205 -0.1161 -0.6312 -2.2974
  363MOL    H4244206   4.072   4.266   5.139  1.8831 -1.2040  0.4435
  363MOL    H4344207   4.111   4.290   5.441  1.7959 -1.1074 -0.1730
  363MOL    C4444208   3.999   4.122   5.350  0.2085 -0.1520 -0.2895
  363MOL    C4544209   3.988   4.042   5.486  0.7200 -0.5879  0.5741
  363MOL   Cl4644210   3.904   3.894   5.449 -0.1793  0.2382 -0.2059
  363MOL    H4744211   4.018   4.055   5.266 -1.0251 -0.9101  0.0252
  363MOL    H4844212   3.901   4.155   5.315  0.9950  0.3526 -2.1083
  363MOL    H4944213   4.087   4.013   5.523  1.1594  0.5153  0.2812
  363MOL    C5044214   3.901   4.110   5.590 -0.5521 -0.0424 -0.0642
  363MOL    C5144215   3.902   4.068   5.733 -0.4815  0.0804 -0.2082
  363MOL   Cl5244216   4.076   4.095   5.787 -0.1588 -0.2871 -0.1823
  363MOL    H5344217   3.797   4.110   5.560 -0.3796  0.0254 -0.6694
  363MOL    H5444218   3.938   4.213   5.597 -2.1539  0.4508  1.9933
  363MOL    H5544219   3.842   4.142   5.786 -0.9295  0.0133 -0.6185
  363MOL    C5644220   3.852   3.924   5.764  0.0492  0.5418  0.1691
  363MOL    C5744221   3.835   3.890   5.918 -0.1599  0.6108  0.2016
  363MOL   Cl5844222   3.993   3.853   5.993  0.5156  0.1193  0.2211
  363MOL    H5944223   3.909   3.846   5.714 -0.3481  1.2459 -1.4149
  363MOL    H6044224   3.755   3.912   5.716  0.3017 -1.4314  0.1466
  363MOL    H6144225   3.792   3.976   5.969  2.1490  0.4759  2.5053
  363MOL    C6244226   3.734   3.771   5.944  0.2730  0.0393 -0.4956
  363MOL    C6344227   3.588   3.822   5.952  0.4538 -0.4284 -0.3787
  363MOL   Cl6444228   3.535   3.833   6.121  0.2615 -0.4377 -0.4209
  363MOL    H6544229   3.762   3.714   6.033  1.6437 -0.2702 -1.1108
  363MOL    H6644230   3.746   3.698   5.864  0.4854 -1.6285  1.0156
  363MOL    H6744231   3.571   3.920   5.909 -0.1126 -0.5219 -0.3720
  363MOL    C6844232   3.497   3.716   5.883  0.5873 -0.8181  0.7794
  363MOL    C6944233   3.478   3.740   5.733 -0.3366 -0.3260 -0.0197
  363MOL   Cl7044234   3.406   3.901   5.705 -0.0863 -0.2713  0.1908
  363MOL    H7144235   3.395   3.725   5.920  0.9344 -0.6563  1.7054
  363MOL    H7244236   3.538   3.617   5.899  0.3873 -1.1800 -0.8228
  363MOL    H7344237   3.572   3.753   5.679 -0.7241  0.7410 -0.4487
  363MOL    C7444238   3.390   3.634   5.663 -0.5272 -1.0841 -0.2000
  363MOL    C7544239   3.442   3.486   5.670  0.0363  0.1127  0.5875
  363MOL   Cl7644240   3.608   3.496   5.617  0.0763  0.5598  0.1395
  363MOL    H7744241   3.368   3.668   5.561  0.0342  1.6152  0.5598
  363MOL    H7844242   3.296   3.651   5.715 -0.2152  0.1021 -0.0103
  363MOL    H7944243   3.429   3.447   5.771  3.1525  0.1619  1.0752
  363MOL    C8044244   3.357   3.403   5.573 -0.0007 -0.2909 -0.5472
  363MOL    C8144245   3.215   3.360   5.635 -0.4730 -0.1578  0.1755
  363MOL   Cl8244246   3.244   3.270   5.789 -0.1864 -0.2697  0.1346
  363MOL    H8344247   3.416   3.314   5.554  0.9287  0.2343 -0.1273
  363MOL    H8444248   3.339   3.451   5.477 -0.0880 -0.9354 -0.8599
  363MOL    H8544249   3.164   3.452   5.662 -0.1093  0.1129 -0.0590
  363MOL    C8644250   3.127   3.280   5.544 -0.5299 -0.2281  0.0045
  363MOL    C8744251   2.983   3.256   5.581  0.5502 -0.3191  0.3419
  363MOL   Cl8844252   2.903   3.135   5.476 -0.2647 -0.0745 -0.0673
  363MOL    H8944253   3.171   3.181   5.533  0.2383  0.2481 -1.4439
  363MOL    H9044254   3.133   3.324   5.444 -1.3220  0.5482  0.3000
  363MOL    H9144255   2.983   3.216   5.683 -1.7955  1.7671  1.2177
  363MOL    C9244256   2.904   3.383   5.589  0.2697 -0.1820  0.1248
  363MOL    C9344257   2.753   3.384   5.615 -0.1525  0.2151  0.1183
  363MOL   Cl9444258   2.686   3.548   5.632 -0.0959 -0.1265  0.0155
  363MOL    H9544259   2.920   3.454   5.508 -0.9806 -0.1611 -0.1156
  363MOL    H9644260   2.944   3.441   5.672 -0.2442  0.1946  0.1126
  363MOL    H9744261   2.710   3.350   5.521  0.3391  0.7498 -0.2994
  363MOL    C9844262   2.702   3.298   5.729  0.5569  0.0022 -0.8248
  363MOL    C9944263   2.569   3.228   5.708  0.8634 -0.1715 -0.0354
  363MOL  Cl10044264   2.579   3.128   5.563 -0.1905 -0.2997  0.1252
  363MOL   H10144265   2.689   3.356   5.821 -0.3601 -1.1556 -0.2112
  363MOL   H10244266   2.784   3.230   5.749  0.7485  0.3977 -0.2456
  363MOL   H10344267   2.558   3.158   5.791  0.1193 -0.0370 -0.0155
  363MOL   C10444268   2.443   3.320   5.706  0.6361 -0.1705  0.5992
  363MOL   C10544269   2.405   3.374   5.841 -0.0304 -0.6700 -0.3434
  363MOL  Cl10644270   2.335   3.242   5.941  0.2283 -0.0321  0.1251
  363MOL   H10744271   2.367   3.248   5.674 -0.3903  0.8206  0.7991
  363MOL   H10844272   2.455   3.397   5.630 -1.3016  0.7273  1.1942
  363MOL   H10944273   2.494   3.413   5.892 -0.5604  0.4798 -0.2802
  363MOL   C11044274   2.297   3.481   5.834  0.0482  0.4100 -0.0764
  363MOL   C11144275   2.326   3.614   5.776 -0.2058  0.3988  0.2005
  363MOL  Cl11244276   2.434   3.699   5.885 -0.1117  0.1931 -0.0675
  363MOL   H11344277   2.240   3.494   5.926  0.4920  1.3467  0.0758
  363MOL   H11444278   2.227   3.443   5.759 -0.1283  0.3877  0.1005
  363MOL   H11544279   2.382   3.602   5.683 -1.3879  0.3473 -0.5105
  363MOL   C11644280   2.195   3.698   5.757  0.2971 -0.1349  0.0394
  363MOL   C11744281   2.228   3.838   5.696  0.7057  0.0150 -0.0881
  363MOL  Cl11844282   2.271   3.823   5.527 -0.0360  0.0221  0.0469
  363MOL   H11944283   2.132   3.700   5.846 -0.9488  2.0378 -0.8538
  363MOL   H12044284   2.130   3.662   5.676  1.0121  0.3309 -0.7485
  363MOL   H12144285   2.138   3.898   5.681  0.2526 -0.1981  1.6581
  363MOL   H12244286   2.298   3.895   5.758  0.6358  1.5386 -1.3787
  364MOL     C144287   0.038   6.365   7.583 -0.2666 -0.1417 -0.1366
  364MOL     C244288   8.494   6.499   7.602 -0.1828 -0.7608  0.9722
  364MOL    Cl344289   0.010   6.592   7.453  0.1410 -0.2859  0.1151
  364MOL     H444290   8.511   6.311   7.505  0.2776 -1.2488  0.2458
  364MOL     H544291   0.143   6.367   7.555 -0.6381 -0.8893 -1.6314
  364MOL     H644292   8.385   6.492   7.609 -0.1276 -2.3160  0.5579
  364MOL     H744293   0.030   6.309   7.677 -2.7545 -0.2422 -0.3810
  364MOL     C844294   0.024   6.578   7.726 -0.4428  0.2697 -0.0164
  364MOL     C944295   8.487   6.545   7.861 -0.2573 -0.7694 -0.1576
  364MOL   Cl1044296   8.321   6.605   7.862  0.2213  0.1428  0.4252
  364MOL    H1144297   0.009   6.681   7.694 -1.8445 -0.7567 -2.9005
  364MOL    H1244298   0.132   6.567   7.727 -0.5410 -0.7061  2.0990
  364MOL    H1344299   8.484   6.436   7.855  2.3557 -0.7898 -1.4452
  364MOL    C1444300   0.040   6.606   7.992  0.1676 -0.2152 -0.2928
  364MOL    C1544301   0.179   6.553   8.000  0.5281 -0.4643  0.4125
  364MOL   Cl1644302   0.179   6.378   7.982 -0.2846  0.2070 -0.0836
  364MOL    H1744303   0.002   6.572   8.089  0.4085 -0.5442 -0.3114
  364MOL    H1844304   0.052   6.714   7.990  0.8064 -0.2972 -1.2982
  364MOL    H1944305   0.241   6.588   7.917  1.8146 -1.5479  0.9088
  364MOL    C2044306   0.260   6.584   8.125 -0.1879  0.3093 -0.7102
  364MOL    C2144307   0.407   6.543   8.116 -0.0095 -0.2791 -0.1044
  364MOL   Cl2244308   0.487   6.578   8.269 -0.1605 -0.1009 -0.2567
  364MOL    H2344309   0.216   6.558   8.221  0.4120 -0.7337 -0.7223
  364MOL    H2444310   0.260   6.693   8.128 -0.2706  0.2545  2.4020
  364MOL    H2544311   0.416   6.434   8.116  1.0697 -0.2295  2.7258
  364MOL    C2644312   0.489   6.614   8.007 -0.4054 -0.1146 -0.2342
  364MOL    C2744313   0.642   6.596   8.009  0.0643  0.7416 -0.3718
  364MOL   Cl2844314   0.696   6.698   7.871 -0.0686 -0.2854  0.0631
  364MOL    H2944315   0.468   6.721   8.014  0.5072 -0.0095  0.9130
  364MOL    H3044316   0.459   6.582   7.907  1.7722  1.2736 -1.3538
  364MOL    H3144317   0.680   6.651   8.095  2.8034  0.5547 -1.4255
  364MOL    C3244318   0.688   6.452   7.994  0.5089 -0.4903 -0.6763
  364MOL    C3344319   0.837   6.431   8.004 -1.4614  0.3198  0.2024
  364MOL   Cl3444320   0.906   6.415   7.840  0.0470  0.0472 -0.0701
  364MOL    H3544321   0.653   6.410   7.899 -0.0755  1.2251 -1.2558
  364MOL    H3644322   0.634   6.400   8.072  3.3141 -1.9406  0.3322
  364MOL    H3744323   0.876   6.521   8.052 -1.5947 -0.1722  1.2592
  364MOL    C3844324   0.882   6.295   8.078 -0.0984 -0.1084  0.0973
  364MOL    C3944325   0.841   6.294   8.224  0.1318  0.3961 -0.1986
  364MOL   Cl4044326   0.943   6.390   8.331 -0.2905  0.0546 -0.2012
  364MOL    H4144327   0.990   6.306   8.072 -0.3858  1.2476 -4.0352
  364MOL    H4244328   0.860   6.205   8.021  1.4347 -1.1528  1.0929
  364MOL    H4344329   0.743   6.338   8.239  0.5259  0.1821  3.5017
  364MOL    C4444330   0.828   6.157   8.278 -0.1560  0.3340  0.7195
  364MOL    C4544331   0.800   6.144   8.429  0.1841 -0.3721  0.4821
  364MOL   Cl4644332   0.799   5.979   8.482  0.1403  0.2065 -0.3357
  364MOL    H4744333   0.924   6.111   8.255 -2.0138 -2.4208 -1.8791
  364MOL    H4844334   0.754   6.093   8.229  1.7141 -1.5194  0.2309
  364MOL    H4944335   0.882   6.193   8.481  0.5360  0.2851 -0.6521
  364MOL    C5044336   0.668   6.209   8.474  0.1960  0.3334 -0.6851
  364MOL    C5144337   0.646   6.228   0.098 -0.1724  0.6163  0.0576
  364MOL   Cl5244338   0.466   6.217   0.150  0.3580 -0.2004 -0.1017
  364MOL    H5344339   0.583   6.161   8.426 -0.6540  2.6706 -1.5663
  364MOL    H5444340   0.658   6.311   8.439 -0.8127  0.5391  0.1912
  364MOL    H5544341   0.705   6.149   0.144  1.9639  1.4768 -1.1325
  364MOL    C5644342   0.706   6.352   0.151  0.3177  0.0839  0.4548
  364MOL    C5744343   0.722   6.349   0.299 -0.1643 -0.0163 -0.6252
  364MOL   Cl5844344   0.667   6.503   0.370  0.0238  0.3751 -0.3244
  364MOL    H5944345   0.635   6.428   0.121 -0.0367 -0.8323 -1.1260
  364MOL    H6044346   0.796   6.392   0.105 -0.2971  0.5083 -0.4004
  364MOL    H6144347   0.656   6.275   0.344 -2.0655 -0.4313 -3.9173
  364MOL    C6244348   0.870   6.330   0.341  0.1475 -0.0152  0.7593
  364MOL    C6344349   0.931   6.193   0.301  0.6162 -0.2263  0.3489
  364MOL   Cl6444350   0.852   6.059   0.386  0.1241 -0.0135  0.2207
  364MOL    H6544351   0.860   6.324   0.450  0.2537 -2.3514  0.6669
  364MOL    H6644352   0.929   6.416   0.311 -0.2549  0.4326  1.2349
  364MOL    H6744353   0.907   6.183   0.195 -4.5896 -0.0238  1.3693
  364MOL    C6844354   1.078   6.182   0.326  0.8437  0.1240 -0.1345
  364MOL    C6944355   1.166   6.256   0.225  0.3022 -0.5813 -0.1508
  364MOL   Cl7044356   1.176   6.162   0.082 -0.1101 -0.3763 -0.4397
  364MOL    H7144357   1.114   6.080   0.342  1.2102  0.5373  1.9193
  364MOL    H7244358   1.097   6.219   0.427 -0.6291  0.3960  0.0531
  364MOL    H7344359   1.115   6.347   0.193 -1.8655 -1.6000  0.3137
  364MOL    C7444360   1.305   6.288   0.275 -0.1278  0.5676 -0.1199
  364MOL    C7544361   1.327   6.420   0.353 -0.0369 -0.4539 -0.1108
  364MOL   Cl7644362   1.254   6.546   0.257  0.0781 -0.1100  0.0880
  364MOL    H7744363   1.366   6.292   0.185 -0.4597  0.8853 -0.3312
  364MOL    H7844364   1.355   6.212   0.335 -0.7965 -3.5323 -4.4839
  364MOL    H7944365   1.278   6.421   0.450  0.4428  1.9933  0.1242
  364MOL    C8044366   1.473   6.447   0.375 -0.0138  0.5256 -0.6919
  364MOL    C8144367   1.501   6.583   0.448  0.1162 -0.3050  0.1191
  364MOL   Cl8244368   1.659   6.645   0.398  0.2722  0.3419 -0.1004
  364MOL    H8344369   1.519   6.450   0.276  0.7361  1.1373 -0.3329
  364MOL    H8444370   1.516   6.367   0.436 -2.6242  0.0783  0.6213
  364MOL    H8544371   1.435   6.655   0.401 -0.5869  0.2356  1.8791
  364MOL    C8644372   1.490   6.585   0.603 -0.6423  0.1707  0.4478
  364MOL    C8744373   1.588   6.504   0.682  0.5154 -0.0808  0.6420
  364MOL   Cl8844374   1.540   6.332   0.704 -0.1608  0.0034  0.3417
  364MOL    H8944375   1.397   6.556   0.652 -0.3846 -2.2437 -0.3841
  364MOL    H9044376   1.510   6.689   0.625 -0.8732  0.6602 -1.5455
  364MOL    H9144377   1.689   6.510   0.640  0.1449 -0.1686 -0.2783
  364MOL    C9244378   1.602   6.566   0.827  0.0523  0.4209  0.2676
  364MOL    C9344379   1.700   6.506   0.928  0.6699 -0.3514 -0.7907
  364MOL   Cl9444380   1.662   6.589   1.086 -0.5160  0.1154  0.3151
  364MOL    H9544381   1.503   6.572   0.872 -0.6047 -1.7908 -0.7883
  364MOL    H9644382   1.635   6.669   0.821 -2.4615  1.4890  3.0717
  364MOL    H9744383   1.679   6.402   0.950  0.7413 -0.1240  0.4304
  364MOL    C9844384   1.846   6.517   0.901 -0.5845  0.3053  0.8240
  364MOL    C9944385   1.948   6.451   1.000  0.6009 -0.4049  0.1690
  364MOL  Cl10044386   2.117   6.482   0.949 -0.1991  0.3551  0.0701
  364MOL   H10144387   1.870   6.623   0.901  0.3911  0.2594 -4.4591
  364MOL   H10244388   1.871   6.494   0.797  2.0668  0.7196  1.3334
  364MOL   H10344389   1.940   6.498   1.098 -1.4657 -0.9613  0.2834
  364MOL   C10444390   1.925   6.293   1.001  0.6769  0.4504 -0.0258
  364MOL   C10544391   1.841   6.241   1.116  0.9764 -0.6747  0.2361
  364MOL  Cl10644392   1.946   6.220   1.257  0.4333  0.1886 -0.2055
  364MOL   H10744393   2.027   6.255   1.008  1.0113  1.3740  0.2414
  364MOL   H10844394   1.900   6.257   0.901 -0.2649 -1.9500  1.0438
  364MOL   H10944395   1.759   6.303   1.152  0.3267  0.0769 -2.3780
  364MOL   C11044396   1.775   6.103   1.087  0.0393  0.3915 -0.0083
  364MOL   C11144397   1.657   6.109   0.991  0.8172  0.2316  0.3227
  364MOL  Cl11244398   1.522   6.183   1.087  0.0773 -0.1536  0.0324
  364MOL   H11344399   1.722   6.066   1.175  0.2499  1.1917  0.4587
  364MOL   H11444400   1.846   6.025   1.060 -0.3106  0.9707 -2.7116
  364MOL   H11544401   1.666   6.181   0.910  2.0987  0.2189  0.4352
  364MOL   C11644402   1.619   5.976   0.918 -0.5077 -0.0386 -0.4098
  364MOL   C11744403   1.499   5.979   0.823  0.2078 -0.7067  0.5675
  364MOL  Cl11844404   1.485   5.826   0.731 -0.0576  0.3496  0.0005
  364MOL   H11944405   1.599   5.905   0.997 -2.1017  1.0520  0.1838
  364MOL   H12044406   1.708   5.936   0.868  0.8717  1.5781  0.6690
  364MOL   H12144407   1.415   5.992   0.891 -0.4419 -1.6076 -0.0486
  364MOL   H12244408   1.499   6.055   0.744 -2.1169 -1.0092  0.2415
  365MOL     C144409   4.527   3.257   5.831 -0.4637 -0.0572 -0.1606
  365MOL     C244410   4.493   3.183   5.958 -0.0352  0.4016 -0.3721
  365MOL    Cl344411   4.321   3.182   5.996 -0.2884 -0.0031  0.2743
  365MOL     H444412   4.507   3.364   5.839 -0.4638 -0.2117  2.0771
  365MOL     H544413   4.631   3.248   5.798 -0.5987  1.8970 -1.1781
  365MOL     H644414   4.525   3.079   5.945 -0.7360  0.3416 -1.7198
  365MOL     H744415   4.480   3.202   5.749  0.6087  0.9074 -1.4492
  365MOL     C844416   4.567   3.236   6.081 -0.0434  0.5476  0.6772
  365MOL     C944417   4.723   3.220   6.082  0.3209 -0.4511 -0.1155
  365MOL   Cl1044418   4.756   3.045   6.099  0.1677  0.1409 -0.3709
  365MOL    H1144419   4.522   3.199   6.173  1.1269  0.4119  1.1975
  365MOL    H1244420   4.529   3.338   6.084 -3.4226 -0.5542 -1.4699
  365MOL    H1344421   4.778   3.264   5.999  2.0108 -0.8801  0.7520
  365MOL    C1444422   4.779   3.289   6.207 -0.8474  0.7503  0.3831
  365MOL    C1544423   4.766   3.442   6.227  0.2099 -0.7340 -0.2188
  365MOL   Cl1644424   4.866   3.534   6.107  0.0058  0.1511  0.2525
  365MOL    H1744425   4.883   3.256   6.209 -1.1692 -0.2748  0.3978
  365MOL    H1844426   4.734   3.233   6.289 -0.9029 -1.1030 -0.8785
  365MOL    H1944427   4.663   3.478   6.220  0.5457  0.5650  1.2715
  365MOL    C2044428   4.803   3.478   6.371  0.2597  0.4759 -0.3841
  365MOL    C2144429   4.766   3.616   6.430  0.6085 -0.4453 -0.6102
  365MOL   Cl2244430   4.851   3.636   6.585 -0.4116  0.5209 -0.0380
  365MOL    H2344431   4.912   3.468   6.378  0.1311 -1.8386 -1.4411
  365MOL    H2444432   4.756   3.403   6.435 -0.4593 -0.1042 -1.5820
  365MOL    H2544433   4.815   3.697   6.376  0.0678 -0.4694 -1.1448
  365MOL    C2644434   4.622   3.660   6.434  0.0947 -0.9369  0.8014
  365MOL    C2744435   4.527   3.573   6.521  0.3637 -0.4226 -0.3110
  365MOL   Cl2844436   4.466   3.433   6.420  0.0846 -0.1535  0.3261
  365MOL    H2944437   4.570   3.667   6.338  0.8274  0.0595  0.4736
  365MOL    H3044438   4.619   3.761   6.475 -2.3797 -0.5689 -0.1880
  365MOL    H3144439   4.582   3.541   6.609  0.9895  1.9297  0.2002
  365MOL    C3244440   4.409   3.660   6.573  0.0773  0.3262  0.1051
  365MOL    C3344441   4.329   3.616   6.696  0.6447  0.0728  0.4986
  365MOL   Cl3444442   4.271   3.452   6.683  0.0032  0.0631  0.0809
  365MOL    H3544443   4.340   3.680   6.491  0.3407 -2.9451 -0.9611
  365MOL    H3644444   4.450   3.757   6.601 -0.4480  0.1580  1.5015
  365MOL    H3744445   4.418   3.616   6.759 -0.3953 -1.9450  2.0174
  365MOL    C3844446   4.214   3.721   6.744  0.7442  0.1247  0.2614
  365MOL    C3944447   4.213   3.738   6.902 -0.0564  0.8272  0.0924
  365MOL   Cl4044448   4.193   3.578   6.975  0.0312 -0.0430 -0.2591
  365MOL    H4144449   4.111   3.696   6.716  0.5795 -1.8816  2.4564
  365MOL    H4244450   4.240   3.818   6.702  1.0707  0.0875  0.3759
  365MOL    H4344451   4.316   3.766   6.925  0.3313  1.0019 -1.7596
  365MOL    C4444452   4.108   3.829   6.951  0.2716  0.9666  0.1710
  365MOL    C4544453   4.122   3.876   7.101  0.3368  0.2269  0.2745
  365MOL   Cl4644454   3.984   3.975   7.137 -0.2253 -0.3401  0.1296
  365MOL    H4744455   4.010   3.783   6.938  0.3745  1.2955 -1.9409
  365MOL    H4844456   4.104   3.909   6.877  0.5462  0.7149 -0.1173
  365MOL    H4944457   4.114   3.798   7.176  1.0434  0.3193  0.4500
  365MOL    C5044458   4.252   3.952   7.138  0.4075  0.2153  0.4507
  365MOL    C5144459   4.262   4.100   7.091  1.1789  0.4426  0.3136
  365MOL   Cl5244460   4.269   4.095   6.908  0.3336 -0.0885  0.5267
  365MOL    H5344461   4.334   3.903   7.086  1.1183  3.4408 -1.6164
  365MOL    H5444462   4.257   3.953   7.247  1.0646  1.5744  0.4260
  365MOL    H5544463   4.172   4.155   7.121  1.4110  0.9073  0.1573
  365MOL    C5644464   4.387   4.170   7.152  0.0586 -0.1045  1.0277
  365MOL    C5744465   4.401   4.333   7.142 -0.3583  0.6263 -0.3433
  365MOL   Cl5844466   4.246   4.405   7.204  0.2795  0.0316 -0.1169
  365MOL    H5944467   4.476   4.127   7.105 -1.3629 -0.3285 -1.5723
  365MOL    H6044468   4.401   4.135   7.254  0.6986 -0.5920  0.7765
  365MOL    H6144469   4.481   4.373   7.204 -0.7749  1.0234 -0.0545
  365MOL    C6244470   4.433   4.393   7.003  0.1436  0.6633 -0.4306
  365MOL    C6344471   4.496   4.531   6.996 -0.9778  0.3408 -0.0885
  365MOL   Cl6444472   4.426   4.655   7.114 -0.1306 -0.2199 -0.5433
  365MOL    H6544473   4.343   4.384   6.944  1.7959  2.0077 -3.2450
  365MOL    H6644474   4.507   4.326   6.959 -0.1872  0.6418 -0.9519
  365MOL    H6744475   4.601   4.528   7.026 -0.0082 -0.3817 -3.3056
  365MOL    C6844476   4.481   4.598   6.860  0.4910  0.9840  0.3455
  365MOL    C6944477   4.547   4.507   6.741 -0.0920 -0.1084 -0.2919
  365MOL   Cl7044478   4.726   4.491   6.768 -0.1471 -0.0045  0.0879
  365MOL    H7144479   4.527   4.696   6.868 -0.2403  1.2552  1.3592
  365MOL    H7244480   4.374   4.617   6.855  0.0358 -1.4801 -0.1260
  365MOL    H7344481   4.507   4.406   6.754 -1.5332  0.4820 -0.0750
  365MOL    C7444482   4.521   4.566   6.598 -0.5798 -0.7111  0.0896
  365MOL    C7544483   4.382   4.564   6.544  0.5178 -0.1111 -0.2034
  365MOL   Cl7644484   4.321   4.400   6.538  0.1464 -0.0920  0.2028
  365MOL    H7744485   4.586   4.517   6.526  0.7942 -2.1406  2.2574
  365MOL    H7844486   4.565   4.664   6.578  2.4687 -2.0948 -0.2364
  365MOL    H7944487   4.318   4.596   6.626  0.8750 -2.9163  1.2581
  365MOL    C8044488   4.349   4.639   6.413  0.3255  0.5966 -0.2285
  365MOL    C8144489   4.200   4.641   6.376 -0.6480 -1.0293  0.2368
  365MOL   Cl8244490   4.201   4.714   6.209 -0.1829  0.1431  0.5425
  365MOL    H8344491   4.403   4.586   6.335 -0.6878  0.7141 -1.0303
  365MOL    H8444492   4.393   4.739   6.417  0.3131  0.6313 -0.9035
  365MOL    H8544493   4.154   4.545   6.352 -2.6792 -0.0352  0.0108
  365MOL    C8644494   4.121   4.728   6.465  0.5955 -0.4149 -0.1703
  365MOL    C8744495   3.974   4.733   6.439 -0.1364  0.0977 -0.1726
  365MOL   Cl8844496   3.923   4.901   6.491 -0.1859 -0.1977 -0.1556
  365MOL    H8944497   4.169   4.825   6.456 -1.1319  0.2171 -3.0266
  365MOL    H9044498   4.135   4.698   6.569  1.4772  1.0925  0.1591
  365MOL    H9144499   3.958   4.724   6.331  2.0013  0.9586 -0.5916
  365MOL    C9244500   3.894   4.623   6.518 -0.0123  0.2318  0.3047
  365MOL    C9344501   3.750   4.601   6.463  0.1401  0.1494 -0.6391
  365MOL   Cl9444502   3.661   4.510   6.598 -0.0560 -0.1120 -0.0300
  365MOL    H9544503   3.884   4.661   6.619  1.9232  1.0927  0.1952
  365MOL    H9644504   3.947   4.528   6.532  1.3476  0.5733 -2.1363
  365MOL    H9744505   3.696   4.695   6.446  1.1456  0.4584 -2.2670
  365MOL    C9844506   3.746   4.509   6.335 -0.0386 -1.1032  0.2084
  365MOL    C9944507   3.616   4.480   6.254  0.6651 -0.4053 -0.9863
  365MOL  Cl10044508   3.508   4.626   6.276 -0.4574  0.2941  0.3696
  365MOL   H10144509   3.792   4.417   6.370  0.6459 -0.2872  1.4808
  365MOL   H10244510   3.821   4.546   6.266  0.1426 -2.4560 -0.3456
  365MOL   H10344511   3.640   4.461   6.149  0.5870 -1.2673 -0.8514
  365MOL   C10444512   3.541   4.364   6.314 -0.2704  0.2206  0.0967
  365MOL   C10544513   3.516   4.246   6.216 -0.4182  0.4224 -1.0428
  365MOL  Cl10644514   3.667   4.202   6.125  0.0028 -0.1742  0.1337
  365MOL   H10744515   3.445   4.383   6.362 -0.4288  1.0544 -0.5499
  365MOL   H10844516   3.609   4.317   6.385  0.0622  0.8481  0.1958
  365MOL   H10944517   3.490   4.152   6.265 -4.6095  2.2791  0.5740
  365MOL   C11044518   3.402   4.285   6.118 -0.4093 -0.1657  0.4866
  365MOL   C11144519   3.366   4.183   6.012  0.1346 -0.1532  0.7626
  365MOL  Cl11244520   3.482   4.200   5.869  0.3821 -0.6040 -0.2877
  365MOL   H11344521   3.433   4.380   6.074  2.2202 -1.3357 -0.2281
  365MOL   H11444522   3.320   4.313   6.185  0.3536 -0.2230  1.4499
  365MOL   H11544523   3.379   4.083   6.054  1.4552 -0.4205 -0.2544
  365MOL   C11644524   3.220   4.191   5.960  0.4038 -0.4457 -0.3192
  365MOL   C11744525   3.181   4.089   5.851  0.0881  0.0072  0.2684
  365MOL  Cl11844526   3.003   4.106   5.820  0.0670  0.1078  0.3017
  365MOL   H11944527   3.182   4.285   5.919 -1.1114  0.0830  2.1477
  365MOL   H12044528   3.151   4.193   6.045 -0.4678  2.8200 -1.0298
  365MOL   H12144529   3.239   4.110   5.762  0.5311 -1.4539  0.1865
  365MOL   H12244530   3.204   3.988   5.886 -0.1188 -0.1985 -0.1848
  366MOL     C144531   0.210   8.116   1.052  0.0280 -0.4779 -0.3351
  366MOL     C244532   0.054   8.134   1.026  0.0041 -0.6732  0.1196
  366MOL    Cl344533   0.016   8.291   1.104 -0.0939  0.3120 -0.0622
  366MOL     H444534   0.230   8.130   1.158  0.6179  0.8200 -0.6167
  366MOL     H544535   0.240   8.017   1.016  2.6040  0.3563 -0.5831
  366MOL     H644536   0.033   8.138   0.919  0.3639 -0.3750  0.0602
  366MOL     H744537   0.277   8.180   0.994 -1.3016  1.3888  0.1729
  366MOL     C844538   8.493   8.025   1.096  0.2147  0.1831  0.2402
  366MOL     C944539   8.474   7.900   1.009  0.0561 -0.1760 -0.1247
  366MOL   Cl1044540   8.403   7.935   0.845 -0.2550 -0.1181 -0.0525
  366MOL    H1144541   8.396   8.073   1.110 -0.2724 -0.4310 -0.9209
  366MOL    H1244542   0.006   7.997   1.193 -1.0524  0.4701  0.8353
  366MOL    H1344543   0.043   7.847   0.994  1.7297  2.4641  0.7766
  366MOL    C1444544   8.383   7.795   1.068 -0.2618 -0.3694  0.5467
  366MOL    C1544545   8.410   7.742   1.207  0.4419 -0.0772 -0.2126
  366MOL   Cl1644546   0.052   7.685   1.220  0.2702 -0.1262 -0.1056
  366MOL    H1744547   8.384   7.705   1.006 -1.3598 -0.6562  0.9381
  366MOL    H1844548   8.282   7.833   1.056  0.6983  3.3539  3.2785
  366MOL    H1944549   8.405   7.828   1.273  1.6746 -1.3707  1.6080
  366MOL    C2044550   8.327   7.618   1.253  0.6529  0.7104  0.0800
  366MOL    C2144551   8.172   7.630   1.265 -0.4846 -0.2302 -0.2930
  366MOL   Cl2244552   8.113   7.606   1.103  0.0279  0.0537 -0.6967
  366MOL    H2344553   8.372   7.584   1.347 -0.2065 -0.4474  0.0800
  366MOL    H2444554   8.347   7.529   1.195  0.4896  0.3821  0.5247
  366MOL    H2544555   8.139   7.545   1.325 -0.3235 -0.2254 -0.1972
  366MOL    C2644556   8.120   7.770   1.317  0.1241 -0.4361  0.2413
  366MOL    C2744557   8.010   7.769   1.436 -0.4940  0.7963  0.7495
  366MOL   Cl2844558   7.875   7.661   1.394  0.0145  0.1543 -0.4752
  366MOL    H2944559   8.066   7.815   1.234 -1.5286 -1.5180  0.7044
  366MOL    H3044560   8.195   7.842   1.349  0.6895 -0.3211 -1.3276
  366MOL    H3144561   8.061   7.743   1.529  0.9885 -1.2543 -0.5817
  366MOL    C3244562   7.949   7.909   1.461 -0.5332  0.2872  0.4570
  366MOL    C3344563   8.040   8.010   1.537 -0.0827 -0.4241 -0.5800
  366MOL   Cl3444564   8.042   7.958   1.712  0.0360  0.5035 -0.4424
  366MOL    H3544565   7.856   7.903   1.517 -0.1253 -1.1728  0.9932
  366MOL    H3644566   7.919   7.959   1.368  0.7315  2.8774  1.4032
  366MOL    H3744567   8.143   7.993   1.506  0.1777 -1.0335  0.6273
  366MOL    C3844568   7.993   8.152   1.519 -0.1050  0.1973 -0.4176
  366MOL    C3944569   8.073   8.260   1.587 -0.5218  0.6996 -0.7996
  366MOL   Cl4044570   8.002   8.422   1.543 -0.1573 -0.4796  0.0953
  366MOL    H4144571   7.891   8.153   1.556  0.0320 -0.7530  0.0054
  366MOL    H4244572   7.993   8.167   1.411  3.4560  1.6982 -0.2843
  366MOL    H4344573   8.050   8.246   1.693 -0.5321 -1.5385 -1.0727
  366MOL    C4444574   8.230   8.264   1.569 -0.2186  0.1193  0.3286
  366MOL    C4544575   8.274   8.291   1.426  0.4471  0.4077  0.1802
  366MOL   Cl4644576   8.333   8.134   1.365 -0.1504  0.2271  0.1386
  366MOL    H4744577   8.272   8.174   1.615 -0.5385 -0.4872 -0.5522
  366MOL    H4844578   8.259   8.348   1.632 -0.8863 -0.2738  1.1668
  366MOL    H4944579   8.191   8.319   1.361  1.6640 -0.8690 -1.9904
  366MOL    C5044580   8.388   8.398   1.418 -0.1029  0.2997 -0.6162
  366MOL    C5144581   8.342   0.020   1.412 -0.2699  0.1380 -0.5800
  366MOL   Cl5244582   8.253   0.060   1.268 -0.2040 -0.0240 -0.2244
  366MOL    H5344583   8.455   8.384   1.333  1.7100  0.9241  0.6742
  366MOL    H5444584   8.450   8.387   1.507  0.1973 -1.7165 -1.0461
  366MOL    H5544585   8.267   0.042   1.488  0.3843 -0.3479  0.2059
  366MOL    C5644586   8.452   0.120   1.425 -0.8561 -0.6008  0.2827
  366MOL    C5744587   8.412   0.253   1.493  0.1655  0.7288 -0.6055
  366MOL   Cl5844588   0.007   0.384   1.468 -0.3435  0.0373 -0.3164
  366MOL    H5944589   8.496   0.125   1.325 -2.9570 -1.7446 -0.7259
  366MOL    H6044590   8.524   0.073   1.491 -0.2500  0.1169  0.1484
  366MOL    H6144591   8.317   0.296   1.461  0.7578  1.3742 -1.5358
  366MOL    C6244592   8.397   0.236   1.649 -0.1219  0.2494  0.3282
  366MOL    C6344593   8.371   0.360   1.733  0.2823 -0.6880  0.0468
  366MOL   Cl6444594   8.393   0.329   1.909 -0.3966 -0.2837 -0.2935
  366MOL    H6544595   8.490   0.191   1.684 -1.3444 -3.1075 -0.6079
  366MOL    H6644596   8.323   0.158   1.669  0.6977 -1.0024 -1.4045
  366MOL    H6744597   8.440   0.440   1.708 -0.8872 -0.0098 -1.0472
  366MOL    C6844598   8.239   0.429   1.715 -0.4191 -0.3301  0.0372
  366MOL    C6944599   8.114   0.347   1.754  0.1452 -0.0144 -0.2511
  366MOL   Cl7044600   8.089   0.229   1.625 -0.4885  0.0834  0.1547
  366MOL    H7144601   8.234   0.454   1.609 -0.7070 -1.9110 -0.3240
  366MOL    H7244602   8.252   0.523   1.769  3.2452 -0.4037 -0.6505
  366MOL    H7344603   8.147   0.292   1.842  3.3588  2.3811  0.1418
  366MOL    C7444604   7.995   0.438   1.779 -0.2525  0.1751  0.6747
  366MOL    C7544605   7.866   0.355   1.812  0.4301 -0.1926 -0.2785
  366MOL   Cl7644606   7.731   0.470   1.814  0.2517 -0.3857 -0.0333
  366MOL    H7744607   7.968   0.502   1.695  0.9377 -0.0327  0.1258
  366MOL    H7844608   8.017   0.492   1.872 -0.1263 -0.3743  0.9627
  366MOL    H7944609   7.837   0.294   1.727 -2.4639  0.2142  0.3760
  366MOL    C8044610   7.882   0.276   1.949  0.1764 -0.4468 -0.0730
  366MOL    C8144611   7.784   0.162   1.969  0.5327 -0.0389  0.2760
  366MOL   Cl8244612   7.783   0.136   2.145 -0.7198 -0.5083 -0.4387
  366MOL    H8344613   7.869   0.366   2.009  0.1995 -0.6520  0.2463
  366MOL    H8444614   7.984   0.240   1.968  0.4946  0.3712 -0.2313
  366MOL    H8544615   7.687   0.203   1.942  0.8548  1.4875  1.3463
  366MOL    C8644616   7.832   0.035   1.908  0.2111 -0.2728  0.1458
  366MOL    C8744617   7.731   8.445   1.930 -0.6041 -0.2391  0.2910
  366MOL   Cl8844618   7.780   8.314   1.820  0.3355  0.1867 -0.1971
  366MOL    H8944619   7.930   0.006   1.944  0.2923 -1.6686 -1.1323
  366MOL    H9044620   7.841   0.053   1.801 -2.1939  0.9801  0.1182
  366MOL    H9144621   7.745   8.410   2.032  1.8379  1.2627  0.5069
  366MOL    C9244622   7.586   8.494   1.900  0.5140  0.4701 -0.1453
  366MOL    C9344623   7.487   8.378   1.900 -0.1416  0.5728 -0.1656
  366MOL   Cl9444624   7.323   8.429   1.862  0.0069 -0.1236  0.2989
  366MOL    H9544625   7.592   0.007   1.798 -1.7405 -1.3355 -0.9903
  366MOL    H9644626   7.550   0.038   1.976  0.7500 -0.2100  0.5835
  366MOL    H9744627   7.500   8.313   1.814 -2.9952  1.7474 -1.5554
  366MOL    C9844628   7.475   8.298   2.031 -0.4800 -0.7468 -0.3195
  366MOL    C9944629   7.452   8.369   2.167 -0.1391  0.6244 -0.5568
  366MOL  Cl10044630   7.573   8.301   2.276  0.2256  0.0420  0.0770
  366MOL   H10144631   7.565   8.237   2.042 -0.3760 -0.5825 -0.2541
  366MOL   H10244632   7.411   8.211   2.023 -2.2095  0.0924  3.2948
  366MOL   H10344633   7.484   8.473   2.154 -0.3928  0.6557 -0.9160
  366MOL   C10444634   7.325   8.345   2.240 -0.3753  0.2671 -0.1000
  366MOL   C10544635   7.197   8.414   2.192 -1.0645 -0.1297  0.1144
  366MOL  Cl10644636   7.213   0.069   2.211  0.2217  0.0016 -0.3876
  366MOL   H10744637   7.348   8.395   2.334 -1.6204 -1.6529  1.2854
  366MOL   H10844638   7.302   8.239   2.256  0.1679 -0.0417 -1.3429
  366MOL   H10944639   7.181   8.406   2.084  0.1496 -2.0950  0.0447
  366MOL   C11044640   7.073   8.371   2.275 -0.3687  0.2581  0.5021
  366MOL   C11144641   6.941   8.391   2.207  0.2440  0.5272 -0.2508
  366MOL  Cl11244642   6.947   8.307   2.050  0.4094 -0.0857 -0.4715
  366MOL   H11344643   7.079   8.419   2.373  0.0583  0.9461  0.1448
  366MOL   H11444644   7.077   8.263   2.288  0.8276  0.3069  0.6501
  366MOL   H11544645   6.867   8.338   2.266  1.4596 -0.1594  0.6846
  366MOL   C11644646   6.888   0.009   2.173 -0.1265  0.6043  0.6328
  366MOL   C11744647   6.738   0.009   2.120  0.7639  0.4900 -0.9649
  366MOL  Cl11844648   6.634   8.466   2.251  0.2330 -0.1386 -0.2747
  366MOL   H11944649   6.946   0.055   2.092 -3.3536 -0.1403 -2.2193
  366MOL   H12044650   6.899   0.071   2.262  0.5956  1.5575 -0.1000
  366MOL   H12144651   6.704   0.112   2.103 -0.5314  0.1952 -0.2546
  366MOL   H12244652   6.727   8.473   2.031 -0.4584  0.1212 -0.5751
  367MOL     C144653   5.271   4.136   5.211 -0.0554 -0.2172 -0.3269
  367MOL     C244654   5.404   4.067   5.168  0.1904  0.2445 -0.0438
  367MOL    Cl344655   5.459   4.139   5.016 -0.5562  0.0203  0.2102
  367MOL     H444656   5.274   4.245   5.218  0.4336 -0.1935 -0.8768
  367MOL     H544657   5.203   4.114   5.129 -3.0569 -1.0570  2.2741
  367MOL     H644658   5.475   4.092   5.247  1.9346  1.4427 -1.9293
  367MOL     H744659   5.224   4.097   5.301 -0.4918 -1.5276 -1.1139
  367MOL     C844660   5.396   3.910   5.154 -0.5710 -0.5158 -0.2531
  367MOL     C944661   5.354   3.832   5.277 -0.0918  0.5764 -0.2629
  367MOL   Cl1044662   5.476   3.863   5.403  0.2512  0.2939 -0.1066
  367MOL    H1144663   5.493   3.881   5.114  0.1376  1.4370 -0.0568
  367MOL    H1244664   5.323   3.888   5.077  0.2645 -0.5448 -1.0452
  367MOL    H1344665   5.266   3.879   5.320 -0.0295 -0.7922  1.4087
  367MOL    C1444666   5.329   3.677   5.236  0.0382  0.3398  0.4808
  367MOL    C1544667   5.196   3.655   5.161 -0.3200  0.2229  0.2163
  367MOL   Cl1644668   5.049   3.668   5.274 -0.0263  0.4770  0.2204
  367MOL    H1744669   5.327   3.618   5.328  0.3845 -0.3229  0.0576
  367MOL    H1844670   5.406   3.634   5.173  0.4632 -0.3558  1.4626
  367MOL    H1944671   5.176   3.728   5.082  0.1846  1.2730  1.0315
  367MOL    C2044672   5.191   3.525   5.091  0.6817 -0.5189  0.1270
  367MOL    C2144673   5.061   3.471   5.015 -0.2174 -0.2046  0.2643
  367MOL   Cl2244674   5.107   3.305   4.951  0.2226 -0.1129 -0.1684
  367MOL    H2344675   5.207   3.453   5.171  2.7592  0.7771  0.9184
  367MOL    H2444676   5.275   3.512   5.023 -0.0187 -0.4660 -0.7566
  367MOL    H2544677   4.979   3.451   5.084  0.6658  1.0666  1.6829
  367MOL    C2644678   5.024   3.553   4.890  0.2731  0.4430  0.4329
  367MOL    C2744679   4.913   3.661   4.919  0.2933 -0.0758  0.1793
  367MOL   Cl2844680   4.764   3.590   4.982  0.1776 -0.2518  0.1433
  367MOL    H2944681   4.989   3.477   4.820 -2.5799  2.2990 -0.2607
  367MOL    H3044682   5.116   3.584   4.841  2.6155 -0.0803  4.2774
  367MOL    H3144683   4.942   3.739   4.988  0.5496  0.1026 -0.1258
  367MOL    C3244684   4.869   3.741   4.795 -0.0248 -0.3829  0.4373
  367MOL    C3344685   4.980   3.798   4.718  1.0054 -0.6852 -0.6176
  367MOL   Cl3444686   5.118   3.848   4.818  0.3194  0.2510 -0.5069
  367MOL    H3544687   4.806   3.822   4.833 -0.2277 -0.7706  0.9395
  367MOL    H3644688   4.812   3.675   4.730  0.7632  1.1808 -1.8998
  367MOL    H3744689   5.027   3.729   4.648  2.0748 -0.0272 -0.5561
  367MOL    C3844690   4.930   3.913   4.637 -0.3395 -0.1426  0.1012
  367MOL    C3944691   4.823   3.879   4.529 -0.7988 -0.2155  1.4078
  367MOL   Cl4044692   4.868   3.751   4.418 -0.1268 -0.1800 -0.2262
  367MOL    H4144693   5.021   3.947   4.586 -0.2202 -1.4418 -0.5893
  367MOL    H4244694   4.895   3.989   4.707 -1.5155 -1.1660  0.6433
  367MOL    H4344695   4.733   3.847   4.583 -1.2658  1.2646  1.5293
  367MOL    C4444696   4.771   3.996   4.442 -0.0352 -0.2200  0.0763
  367MOL    C4544697   4.640   3.983   4.367  0.5210 -0.0966 -0.4669
  367MOL   Cl4644698   4.629   4.128   4.267  0.3127 -0.3830 -0.0721
  367MOL    H4744699   4.846   4.028   4.369 -0.6401 -1.3073 -1.0462
  367MOL    H4844700   4.759   4.081   4.509 -1.6245  0.0127 -0.4629
  367MOL    H4944701   4.639   3.895   4.302  0.6249 -0.0775 -0.4954
  367MOL    C5044702   4.526   3.981   4.471  0.8355  0.5931 -0.4226
  367MOL    C5144703   4.380   3.963   4.420 -0.1600  0.2046  0.1909
  367MOL   Cl5244704   4.285   3.996   4.567 -0.2958  0.4688  0.0073
  367MOL    H5344705   4.530   4.073   4.529 -0.9397  1.5248 -1.7572
  367MOL    H5444706   4.534   3.895   4.538 -1.4956  0.6341 -0.0587
  367MOL    H5544707   4.357   4.044   4.351 -2.4042  0.2780  0.9818
  367MOL    C5644708   4.350   3.821   4.377 -0.4599  0.2766  0.1231
  367MOL    C5744709   4.205   3.794   4.337  0.0038  0.7731  0.0369
  367MOL   Cl5844710   4.108   3.731   4.473 -0.2551  0.1846  0.2187
  367MOL    H5944711   4.386   3.735   4.434  0.7497 -0.9517 -2.4309
  367MOL    H6044712   4.415   3.814   4.291 -0.9256 -1.3295 -0.1050
  367MOL    H6144713   4.160   3.888   4.306 -0.5513  0.4689 -0.0765
  367MOL    C6244714   4.194   3.693   4.220 -0.6567 -0.3041 -0.4793
  367MOL    C6344715   4.063   3.685   4.146 -0.4605  0.5392  0.1532
  367MOL   Cl6444716   4.074   3.530   4.058 -0.0942  0.2000 -0.1439
  367MOL    H6544717   4.220   3.593   4.254 -2.2110 -0.8041 -0.7127
  367MOL    H6644718   4.272   3.719   4.148 -0.1489  0.8861  0.4820
  367MOL    H6744719   3.973   3.689   4.208 -0.1633 -0.9448  0.6982
  367MOL    C6844720   4.047   3.799   4.047 -0.5460 -0.0058 -0.0964
  367MOL    C6944721   3.939   3.774   3.938 -0.4466 -0.2342  0.4835
  367MOL   Cl7044722   3.974   3.894   3.817  0.1270  0.1348 -0.3915
  367MOL    H7144723   4.145   3.817   4.004 -0.9878  1.5521 -0.4974
  367MOL    H7244724   4.024   3.888   4.106  0.5446 -0.7636  1.4855
  367MOL    H7344725   3.942   3.674   3.895  0.8456 -0.2289  0.5470
  367MOL    C7444726   3.800   3.803   3.990  0.0716  0.1131 -0.0725
  367MOL    C7544727   3.692   3.833   3.882  0.2345 -0.6224 -0.2353
  367MOL   Cl7644728   3.544   3.871   3.972 -0.4607 -0.1394  0.4628
  367MOL    H7744729   3.800   3.895   4.049  0.9000  0.8952 -1.2838
  367MOL    H7844730   3.769   3.727   4.063 -0.0529  1.0368  0.8582
  367MOL    H7944731   3.722   3.921   3.826 -0.6541 -1.2891 -1.7903
  367MOL    C8044732   3.672   3.709   3.791  0.5164 -0.0893  0.0052
  367MOL    C8144733   3.553   3.732   3.687  0.4041  0.4901  0.1010
  367MOL   Cl8244734   3.538   3.586   3.581  0.0545 -0.0377 -0.0479
  367MOL    H8344735   3.658   3.620   3.852  0.5733 -1.0102 -1.3090
  367MOL    H8444736   3.761   3.693   3.730  2.3214 -2.3335  3.0453
  367MOL    H8544737   3.462   3.736   3.748 -0.4822 -0.0114 -1.1672
  367MOL    C8644738   3.573   3.864   3.617  0.0079 -0.0191  0.2238
  367MOL    C8744739   3.498   3.885   3.480 -0.5610 -0.0024  0.1221
  367MOL   Cl8844740   3.568   4.031   3.401  0.0603  0.1965  0.0346
  367MOL    H8944741   3.680   3.859   3.593 -0.0342 -0.9334  0.2086
  367MOL    H9044742   3.553   3.956   3.672 -0.8469  1.2400 -2.1512
  367MOL    H9144743   3.511   3.801   3.411  1.4029  1.1120 -0.8974
  367MOL    C9244744   3.343   3.897   3.489  0.3967 -0.1465 -0.3267
  367MOL    C9344745   3.289   4.011   3.577  0.8050  0.1510  0.3762
  367MOL   Cl9444746   3.266   3.946   3.739 -0.0105  0.0236  0.2725
  367MOL    H9544747   3.306   3.799   3.519 -1.0010  0.2807 -0.6180
  367MOL    H9644748   3.316   3.911   3.384 -2.0822  0.5799  0.3780
  367MOL    H9744749   3.377   4.075   3.588 -0.4698  1.8684  0.8677
  367MOL    C9844750   3.156   4.070   3.524  1.2134  0.3178  0.0502
  367MOL    C9944751   3.108   4.192   3.598  0.4357 -0.3765  0.2166
  367MOL  Cl10044752   2.959   4.248   3.513  0.4357  0.3580  0.2169
  367MOL   H10144753   3.072   4.001   3.529  0.9444  0.4805 -1.9424
  367MOL   H10244754   3.176   4.099   3.421  0.3883 -0.4858 -0.3462
  367MOL   H10344755   3.071   4.164   3.697 -0.5380 -1.5100 -0.4473
  367MOL   C10444756   3.212   4.311   3.603 -0.2035  0.2829 -0.2179
  367MOL   C10544757   3.149   4.450   3.643  0.2718  0.1986  0.3043
  367MOL  Cl10644758   3.272   4.580   3.657  0.1612 -0.1048 -0.4544
  367MOL   H10744759   3.246   4.325   3.500  0.4645 -1.3497 -0.2262
  367MOL   H10844760   3.290   4.283   3.674  0.9442 -0.8290 -1.8825
  367MOL   H10944761   3.090   4.475   3.555 -0.6237  1.6251  1.3050
  367MOL   C11044762   3.071   4.454   3.780  0.0301 -0.4977 -0.2801
  367MOL   C11144763   2.978   4.579   3.793  0.7603 -0.2907 -0.2361
  367MOL  Cl11244764   2.924   4.599   3.960  0.0497  0.0527  0.2885
  367MOL   H11344765   3.148   4.452   3.858  0.1959  2.6627 -0.3108
  367MOL   H11444766   3.013   4.362   3.791  0.3815 -1.0268 -2.6903
  367MOL   H11544767   3.027   4.665   3.749  0.3481 -0.4829 -1.0873
  367MOL   C11644768   2.847   4.555   3.709  0.0246 -0.1286  0.3555
  367MOL   C11744769   2.762   4.686   3.715  0.0107 -1.1626  0.2373
  367MOL  Cl11844770   2.638   4.686   3.584 -0.1369 -0.2657  0.0170
  367MOL   H11944771   2.795   4.464   3.738 -0.6498 -0.3655 -1.4979
  367MOL   H12044772   2.878   4.531   3.607 -0.5034 -2.5670  0.7511
  367MOL   H12144773   2.709   4.700   3.809  2.2377 -3.1875  1.8509
  367MOL   H12244774   2.824   4.772   3.692 -0.2150 -0.3915  2.4118
  368MOL     C144775   0.788   7.301   6.636  0.4175 -0.1764 -0.0947
  368MOL     C244776   0.644   7.353   6.677 -0.3485  0.0601 -0.1339
  368MOL    Cl344777   0.524   7.230   6.637 -0.6161  0.0264  0.0260
  368MOL     H444778   0.790   7.271   6.531  0.8894 -0.0008 -0.1372
  368MOL     H544779   0.868   7.371   6.655  0.4060 -0.1404 -0.1862
  368MOL     H644780   0.636   7.364   6.785  3.5993  0.1126  0.2156
  368MOL     H744781   0.816   7.214   6.696  3.0957  0.0987 -0.9113
  368MOL     C844782   0.606   7.493   6.615 -0.1122  0.0020  0.6605
  368MOL     C944783   0.637   7.615   6.714 -0.4292  0.7051 -0.1789
  368MOL   Cl1044784   0.603   7.766   6.619 -0.0603  0.0041 -0.1772
  368MOL    H1144785   0.498   7.503   6.603  0.1374  0.9669 -0.8997
  368MOL    H1244786   0.646   7.507   6.515 -3.0110 -1.0256 -0.7166
  368MOL    H1344787   0.570   7.615   6.800 -2.0340 -0.4851 -1.3982
  368MOL    C1444788   0.783   7.619   6.759  0.1333  0.1534 -0.4255
  368MOL    C1544789   0.824   7.746   6.825  0.3635  0.3744  0.0735
  368MOL   Cl1644790   1.001   7.712   6.856  0.2083 -0.1451  0.3164
  368MOL    H1744791   0.847   7.610   6.671  1.2508  1.6302  0.2099
  368MOL    H1844792   0.802   7.539   6.831 -0.6202  0.7409  0.4287
  368MOL    H1944793   0.808   7.836   6.765 -0.7029 -0.7251 -1.3260
  368MOL    C2044794   0.762   7.756   6.963 -0.5520  0.2061  0.6671
  368MOL    C2144795   0.778   7.892   7.030 -0.0813 -0.3264  0.0323
  368MOL   Cl2244796   0.693   7.885   7.184  0.2930 -0.3909 -0.2807
  368MOL    H2344797   0.795   7.674   7.027 -2.0330 -2.4247 -1.8405
  368MOL    H2444798   0.656   7.732   6.963 -1.0019  2.0675  2.3519
  368MOL    H2544799   0.883   7.905   7.060 -0.2578 -1.1586  1.0388
  368MOL    C2644800   0.727   8.018   6.951 -0.2386  0.0111  0.3349
  368MOL    C2744801   0.749   8.156   7.019  0.3114 -0.0151 -0.0335
  368MOL   Cl2844802   0.629   8.273   6.952  0.2311 -0.0129 -0.5881
  368MOL    H2944803   0.621   7.999   6.936 -0.4153 -0.0352  1.5892
  368MOL    H3044804   0.763   8.018   6.848 -0.5340 -1.2079  0.2145
  368MOL    H3144805   0.728   8.149   7.126 -1.4087 -0.1458 -0.3601
  368MOL    C3244806   0.896   8.218   7.018 -1.3681 -0.8202 -0.1532
  368MOL    C3344807   0.961   8.251   6.880  0.0935  0.2536 -0.4356
  368MOL   Cl3444808   1.026   8.108   6.806 -0.2140  0.4285 -0.3799
  368MOL    H3544809   0.953   8.144   7.073  0.9499 -1.2727 -3.0608
  368MOL    H3644810   0.899   8.313   7.072 -2.4403 -0.5184 -0.6060
  368MOL    H3744811   0.879   8.275   6.812  1.6795 -1.5252 -3.0696
  368MOL    C3844812   1.079   8.348   6.905 -0.0210 -0.5092  0.6194
  368MOL    C3944813   1.147   8.397   6.779  0.5498  0.0496  0.8531
  368MOL   Cl4044814   1.285   8.473   6.830 -0.2533 -0.0150 -0.0545
  368MOL    H4144815   1.145   8.277   6.955  0.1301 -0.3551  0.6352
  368MOL    H4244816   1.058   8.432   6.970  0.1792  1.0183 -1.2602
  368MOL    H4344817   1.179   8.311   6.721 -0.4212 -0.3447  0.8986
  368MOL    C4444818   1.066   8.501   6.695 -0.6350  0.9749 -0.3221
  368MOL    C4544819   1.129   0.028   6.565  0.0662  0.1618  1.0054
  368MOL   Cl4644820   1.205   8.432   6.465 -0.0063 -0.1735 -0.3080
  368MOL    H4744821   1.019   0.050   6.761 -1.0609  0.7843 -0.4096
  368MOL    H4844822   0.982   8.440   6.663 -1.6291  1.8218  0.5975
  368MOL    H4944823   1.044   0.069   6.510 -0.5622  1.6943  3.0597
  368MOL    C5044824   1.238   0.131   6.582 -0.3106 -0.4347 -0.0741
  368MOL    C5144825   1.179   0.265   6.633  0.3343  0.9328  0.2353
  368MOL   Cl5244826   1.040   0.310   6.536  0.2099  0.1522  0.3339
  368MOL    H5344827   1.289   0.143   6.486 -2.4651 -0.9677 -1.3323
  368MOL    H5444828   1.322   0.103   6.646  0.6241  2.3117 -0.0233
  368MOL    H5544829   1.137   0.259   6.734 -1.5943 -0.9824 -0.6375
  368MOL    C5644830   1.279   0.383   6.616  0.1175  0.4965 -0.1890
  368MOL    C5744831   1.392   0.387   6.723 -0.4481  0.2854 -0.1579
  368MOL   Cl5844832   1.311   0.404   6.887 -0.1396  0.1090 -0.3191
  368MOL    H5944833   1.211   0.465   6.641 -1.3610 -0.7272 -0.1059
  368MOL    H6044834   1.318   0.394   6.515  1.3844 -2.1347 -0.0432
  368MOL    H6144835   1.456   0.299   6.714 -0.8955  0.2017 -3.3466
  368MOL    C6244836   1.491   0.504   6.711  0.4324 -0.1204  0.4447
  368MOL    C6344837   1.567   0.523   6.573 -0.0394  0.2443  0.1348
  368MOL   Cl6444838   1.684   0.387   6.551  0.4002 -0.0363  0.2893
  368MOL    H6544839   1.564   0.489   6.791  0.0974 -0.5886  0.6619
  368MOL    H6644840   1.435   0.597   6.727  1.5061  1.0240 -2.1799
  368MOL    H6744841   1.498   0.520   6.488  0.0464  0.6100  0.0489
  368MOL    C6844842   1.648   0.653   6.559  0.0440 -0.2241 -0.1287
  368MOL    C6944843   1.720   0.672   6.423  0.1948  0.2656 -0.7567
  368MOL   Cl7044844   1.843   0.792   6.453 -0.4906  0.6549  0.2298
  368MOL    H7144845   1.726   0.655   6.635 -0.6897 -0.7797  0.6409
  368MOL    H7244846   1.584   0.735   6.590 -1.0591 -0.0857 -2.6396
  368MOL    H7344847   1.774   0.580   6.400 -2.4627 -2.5256  3.3335
  368MOL    C7444848   1.643   0.720   6.301  0.0142  0.3659  0.0101
  368MOL    C7544849   1.566   0.863   6.307  0.1950  0.0248  0.3420
  368MOL   Cl7644850   1.409   0.815   6.382  0.3925  0.4183  0.2358
  368MOL    H7744851   1.571   0.642   6.276  0.2445  0.2580 -0.3263
  368MOL    H7844852   1.720   0.729   6.224 -1.5115 -0.1975 -1.6289
  368MOL    H7944853   1.602   0.931   6.384 -1.4590  1.1638  0.1464
  368MOL    C8044854   1.542   0.929   6.168 -0.3153  0.1309 -0.0101
  368MOL    C8144855   1.502   1.084   6.176  0.5586 -0.5620  0.0752
  368MOL   Cl8244856   1.640   1.162   6.257  0.0559  0.2527 -0.2961
  368MOL    H8344857   1.461   0.874   6.120  0.2171 -0.1931 -0.5389
  368MOL    H8444858   1.624   0.921   6.097 -0.3099 -1.9300  0.1988
  368MOL    H8544859   1.498   1.125   6.075 -0.6183  1.0004  0.7328
  368MOL    C8644860   1.372   1.122   6.247  0.1471 -0.0588 -0.1048
  368MOL    C8744861   1.238   1.083   6.185 -0.0193  0.3463 -0.2027
  368MOL   Cl8844862   1.242   1.151   6.015 -0.1756 -0.4293  0.1199
  368MOL    H8944863   1.368   1.228   6.272  0.5286  0.3903 -1.8602
  368MOL    H9044864   1.370   1.086   6.350 -0.3400  1.4277  0.4107
  368MOL    H9144865   1.244   0.974   6.175  2.4506  0.3400  1.1390
  368MOL    C9244866   1.113   1.127   6.269 -0.2669  0.1327  0.2026
  368MOL    C9344867   1.076   1.045   6.398  0.1686 -0.3454  0.1723
  368MOL   Cl9444868   1.196   1.073   6.531  0.2156  0.2624  0.1411
  368MOL    H9544869   1.033   1.112   6.195  1.0605  0.5325 -1.3454
  368MOL    H9644870   1.114   1.232   6.298  0.2694 -0.8364  4.0004
  368MOL    H9744871   0.980   1.082   6.434  0.9528  1.0606  0.8666
  368MOL    C9844872   1.055   0.895   6.369  0.6773  0.2347 -0.3460
  368MOL    C9944873   0.987   0.818   6.483 -0.6823 -0.2091 -0.3025
  368MOL  Cl10044874   1.075   0.665   6.501  0.0588 -0.0335  0.1112
  368MOL   H10144875   1.149   0.843   6.356  0.0674 -0.7400 -0.9568
  368MOL   H10244876   1.014   0.876   6.269  0.8074 -1.2100 -0.1207
  368MOL   H10344877   0.996   0.867   6.580 -2.1006 -1.3023  0.4092
  368MOL   C10444878   0.840   0.778   6.457 -0.6137 -0.6273  0.6448
  368MOL   C10544879   0.754   0.901   6.482  0.8732  0.3938 -0.3565
  368MOL  Cl10644880   0.765   0.969   6.649 -0.0304  0.5361  0.2541
  368MOL   H10744881   0.802   0.700   6.524 -1.0080  1.5862  3.1291
  368MOL   H10844882   0.840   0.740   6.355  1.3677  1.6636 -0.2484
  368MOL   H10944883   0.783   0.972   6.405 -1.1429  0.0947 -1.4369
  368MOL   C11044884   0.603   0.855   6.474  0.5624 -0.6017  0.0102
  368MOL   C11144885   0.553   0.827   6.325 -0.1048 -0.2693  0.6146
  368MOL  Cl11244886   0.655   0.917   6.207  0.4184  0.3334 -0.1427
  368MOL   H11344887   0.539   0.929   6.521  1.1654  0.1383 -0.3177
  368MOL   H11444888   0.602   0.766   6.536 -0.2540 -1.0858 -0.6956
  368MOL   H11544889   0.580   0.724   6.302 -0.9053 -0.3489  0.0477
  368MOL   C11644890   0.405   0.851   6.295 -0.2778 -0.5598  0.5883
  368MOL   C11744891   0.356   0.787   6.161  0.1362 -0.1679 -0.5828
  368MOL  Cl11844892   0.190   0.836   6.130 -0.1949 -0.3816  0.1640
  368MOL   H11944893   0.391   0.959   6.291 -3.1125 -0.7564  3.0169
  368MOL   H12044894   0.344   0.810   6.376  1.1136 -1.6424  1.0982
  368MOL   H12144895   0.431   0.794   6.082 -1.1049 -0.4153 -1.7982
  368MOL   H12244896   0.359   0.679   6.172  0.1586 -0.0231  1.0384
  369MOL     C144897   8.420   1.855   5.289 -0.5512 -0.0798  0.0068
  369MOL     C244898   8.371   1.984   5.242 -1.2006  0.4926  0.0977
  369MOL    Cl344899   8.508   2.029   5.136  0.2887  0.3032  0.2234
  369MOL     H444900   8.514   1.864   5.344 -1.2984  2.1068  0.9933
  369MOL     H544901   8.347   1.797   5.346  0.6976 -2.4820 -0.7481
  369MOL     H644902   8.279   1.976   5.183 -0.3754  1.6249 -1.3989
  369MOL     H744903   8.435   1.788   5.204 -0.6531 -0.3025  0.1661
  369MOL     C844904   8.357   2.085   5.358 -0.1209 -0.0262  0.3437
  369MOL     C944905   8.228   2.063   5.441 -0.1428 -0.1379  0.0729
  369MOL   Cl1044906   8.084   2.118   5.351 -0.3128  0.2373  0.1607
  369MOL    H1144907   8.363   2.183   5.310  3.3601  0.2419  1.2361
  369MOL    H1244908   8.437   2.080   5.431 -0.0894 -0.4025  0.2808
  369MOL    H1344909   8.222   1.956   5.461 -2.3501 -0.4734 -2.1567
  369MOL    C1444910   8.241   2.153   5.572 -0.1659  0.8270  0.0474
  369MOL    C1544911   8.124   2.130   5.664 -0.3177  0.9920 -0.2245
  369MOL   Cl1644912   8.097   2.257   5.789 -0.0653 -0.2258  0.2438
  369MOL    H1744913   8.247   2.260   5.549 -2.1827  1.3859  1.9555
  369MOL    H1844914   8.333   2.127   5.624  1.0295  3.5849 -0.5791
  369MOL    H1944915   8.030   2.124   5.610 -1.8786 -0.1457  2.4789
  369MOL    C2044916   8.143   1.991   5.737  0.1651  0.0436 -0.9034
  369MOL    C2144917   8.023   1.947   5.823  0.6962  0.3722 -0.3621
  369MOL   Cl2244918   8.073   1.833   5.960 -0.3678  0.0287  0.2801
  369MOL    H2344919   8.224   2.002   5.810 -0.5730 -1.3405  0.1556
  369MOL    H2444920   8.158   1.913   5.662 -2.7451 -2.3472  0.8560
  369MOL    H2544921   7.993   2.039   5.873  1.1547  0.4047 -0.1452
  369MOL    C2644922   7.913   1.873   5.743  1.2151 -0.2255  0.3487
  369MOL    C2744923   7.776   1.933   5.781  0.0305 -0.1059 -0.2576
  369MOL   Cl2844924   7.771   2.108   5.719 -0.1427 -0.1425 -0.0775
  369MOL    H2944925   7.903   1.767   5.765 -0.1362 -0.5319 -1.6621
  369MOL    H3044926   7.928   1.883   5.636  0.4527 -0.0883  0.2496
  369MOL    H3144927   7.709   1.886   5.708 -0.0625 -1.1852  0.5193
  369MOL    C3244928   7.746   1.921   5.936  0.2889 -0.6874 -0.3500
  369MOL    C3344929   7.604   1.971   5.961  0.3785 -0.2795 -0.4562
  369MOL   Cl3444930   7.603   2.070   6.105 -0.1901 -0.2273 -0.2035
  369MOL    H3544931   7.814   1.979   5.999  0.5940 -2.1299  0.6762
  369MOL    H3644932   7.757   1.816   5.963  1.6798 -0.5172 -0.2167
  369MOL    H3744933   7.569   2.044   5.888 -1.6476  1.1232  1.8305
  369MOL    C3844934   7.505   1.851   5.976  0.1162 -0.4171  0.2379
  369MOL    C3944935   7.495   1.751   5.854  0.2276  0.5269  0.3533
  369MOL   Cl4044936   7.455   1.839   5.704 -0.1892 -0.0332  0.1719
  369MOL    H4144937   7.406   1.889   6.000  0.8774  0.8637  1.4033
  369MOL    H4244938   7.550   1.793   6.056  1.5284 -1.1389 -1.0410
  369MOL    H4344939   7.592   1.708   5.827  0.1406  2.4462 -3.4951
  369MOL    C4444940   7.406   1.632   5.877 -0.2775 -0.1015  0.0136
  369MOL    C4544941   7.453   1.551   6.001 -0.9414  0.2265  0.2637
  369MOL   Cl4644942   7.452   1.380   5.948  0.0644  0.3816  0.1684
  369MOL    H4744943   7.383   1.586   5.781 -1.7222  0.2638  0.1804
  369MOL    H4844944   7.314   1.683   5.906  0.5480  2.0311 -0.9486
  369MOL    H4944945   7.559   1.577   6.003 -0.9280  0.3552 -1.3416
  369MOL    C5044946   7.372   1.567   6.131  0.4754  0.1421 -0.3656
  369MOL    C5144947   7.422   1.505   6.262  0.1913 -0.5576  0.8169
  369MOL   Cl5244948   7.586   1.572   6.297 -0.2005  0.2005 -0.1806
  369MOL    H5344949   7.275   1.524   6.106  0.7789 -1.2492  0.8262
  369MOL    H5444950   7.344   1.672   6.144 -2.2432 -0.8819  2.7773
  369MOL    H5544951   7.367   1.546   6.346 -1.9222 -0.3199 -0.6382
  369MOL    C5644952   7.419   1.354   6.280 -0.6444 -0.1712 -0.0380
  369MOL    C5744953   7.282   1.282   6.288  0.5850  0.2948  0.3924
  369MOL   Cl5844954   7.221   1.314   6.452  0.2659 -0.4135  0.0001
  369MOL    H5944955   7.472   1.332   6.373 -2.3095 -0.7196  0.8164
  369MOL    H6044956   7.481   1.303   6.206  0.6301 -0.2726  1.0760
  369MOL    H6144957   7.207   1.323   6.220  0.3083 -3.2091 -1.5177
  369MOL    C6244958   7.302   1.132   6.268 -0.3874 -0.1550  0.5197
  369MOL    C6344959   7.297   1.076   6.123 -0.0154  0.7625 -0.2332
  369MOL   Cl6444960   7.117   1.086   6.077  0.1613  0.1599 -0.3137
  369MOL    H6544961   7.237   1.085   6.342 -2.3208  0.8232 -0.5332
  369MOL    H6644962   7.407   1.108   6.288 -0.3409 -1.9524 -1.5860
  369MOL    H6744963   7.355   1.136   6.053 -0.5337 -0.4545 -1.7050
  369MOL    C6844964   7.330   0.929   6.108  0.4887 -0.3075 -0.7984
  369MOL    C6944965   7.313   0.861   5.972 -0.0514 -0.4944 -0.3446
  369MOL   Cl7044966   7.146   0.785   5.960 -0.0127  0.0178 -0.1261
  369MOL    H7144967   7.257   0.884   6.177  0.9937  0.9354  0.5596
  369MOL    H7244968   7.428   0.898   6.142  0.1107 -0.4461  0.1890
  369MOL    H7344969   7.302   0.930   5.888 -2.3338  0.1321  0.4295
  369MOL    C7444970   7.426   0.755   5.949  0.4683  0.3194 -0.2119
  369MOL    C7544971   7.575   0.802   5.923  0.3498 -0.0038 -0.4927
  369MOL   Cl7644972   7.566   0.915   5.784 -0.0249  0.0850 -0.2208
  369MOL    H7744973   7.401   0.690   5.865  1.4412 -0.8682  0.3952
  369MOL    H7844974   7.425   0.682   6.031  1.7088 -1.0120 -1.3661
  369MOL    H7944975   7.617   0.854   6.009  1.3440  1.0287 -1.5884
  369MOL    C8044976   7.676   0.687   5.903  0.2520 -0.0461  0.1544
  369MOL    C8144977   7.709   0.612   6.034 -0.0273 -0.5140  0.0263
  369MOL   Cl8244978   7.833   0.704   6.121  0.1186  0.0975 -0.3245
  369MOL    H8344979   7.765   0.734   5.860 -0.0498  0.4011  0.0109
  369MOL    H8444980   7.639   0.625   5.822  0.0857 -0.1483  0.3066
  369MOL    H8544981   7.614   0.603   6.087 -1.9267 -2.1347 -3.4354
  369MOL    C8644982   7.763   0.466   6.006  0.1899  0.1107 -0.1043
  369MOL    C8744983   7.663   0.365   5.944 -0.2271 -0.5768  0.2365
  369MOL   Cl8844984   7.533   0.333   6.061 -0.3523 -0.4788 -0.0457
  369MOL    H8944985   7.783   0.424   6.105  1.0589  0.5279 -0.0979
  369MOL    H9044986   7.852   0.477   5.944  1.4783 -1.2025  1.4592
  369MOL    H9144987   7.626   0.406   5.850 -0.9191  0.2402  0.8665
  369MOL    C9244988   7.718   0.223   5.923  0.7451  0.0984 -0.5574
  369MOL    C9344989   7.821   0.204   5.813 -0.3978  0.0176 -0.0827
  369MOL   Cl9444990   7.729   0.197   5.662  0.1877  0.2601  0.0912
  369MOL    H9544991   7.637   0.151   5.909  1.5750 -1.0256  0.2303
  369MOL    H9644992   7.764   0.187   6.015 -1.8786  0.1117  0.8150
  369MOL    H9744993   7.894   0.285   5.811 -0.5921  0.1862 -0.7192
  369MOL    C9844994   7.897   0.069   5.838 -0.5763 -0.0064  0.2854
  369MOL    C9944995   7.994   0.062   5.955 -0.3907 -0.5912  0.2031
  369MOL  Cl10044996   8.116   0.205   5.948  0.3165  0.5063 -0.0534
  369MOL   H10144997   7.954   0.048   5.747 -0.5987 -1.4484  0.5926
  369MOL   H10244998   7.826   8.514   5.857  1.9511 -2.0956  1.2759
  369MOL   H10344999   7.954   0.080   6.055 -0.0244  3.2603 -0.2864
  369MOL   C10445000   8.079   8.466   5.949 -0.3491  0.8060 -0.8187
  369MOL   C10545001   8.161   8.437   6.074  0.4653 -0.0840  0.5372
  369MOL  Cl10645002   8.271   8.302   6.027  0.3226 -0.0799  0.2316
  369MOL   H10745003   8.144   8.464   5.861 -0.6717 -4.1474 -1.0610
  369MOL   H10845004   8.014   8.379   5.942  0.8385 -0.1868  0.2381
  369MOL   H10945005   8.221   0.000   6.095 -0.5052 -0.1727  3.8225
  369MOL   C11045006   8.079   8.403   6.204 -0.2795 -1.1720 -0.5965
  369MOL   C11145007   8.150   8.430   6.331 -0.7256 -0.7433  0.4626
  369MOL  Cl11245008   8.046   8.374   6.470 -0.6647 -0.1735  0.0534
  369MOL   H11345009   8.065   8.295   6.194  1.0948 -1.3231 -1.0783
  369MOL   H11445010   7.981   8.451   6.204  1.0260  1.6004 -0.3585
  369MOL   H11545011   8.234   8.362   6.334  0.2818  0.4019 -1.1556
  369MOL   C11645012   8.200   0.047   6.367 -0.5724  0.0707 -0.2265
  369MOL   C11745013   8.288   0.049   6.490  0.1430  0.4570 -0.8133
  369MOL  Cl11845014   8.343   0.217   6.524 -0.0827  0.2649 -0.0718
  369MOL   H11945015   8.111   0.108   6.379  0.4201  1.9978 -2.2954
  369MOL   H12045016   8.241   0.097   6.279 -1.1409  1.5621  0.3504
  369MOL   H12145017   8.231   0.010   6.574  1.9496  1.9545  1.1607
  369MOL   H12245018   8.378   8.512   6.491  0.2761  0.6427 -1.1504
  370MOL     C145019   7.068   2.663   6.001  0.0490  1.0640 -0.5024
  370MOL     C245020   6.918   2.662   6.012  0.2895  0.5802 -0.0740
  370MOL    Cl345021   6.875   2.802   6.114  0.4537 -0.1177 -0.2713
  370MOL     H445022   7.122   2.677   6.094  1.0371 -1.4500 -0.6346
  370MOL     H545023   7.116   2.578   5.951  1.6785  0.4198  2.0703
  370MOL     H645024   6.868   2.676   5.916  0.0692 -2.0223 -0.3737
  370MOL     H745025   7.100   2.753   5.949  1.4765  1.7720  1.5622
  370MOL     C845026   6.849   2.538   6.071 -0.1216 -0.4484 -0.0603
  370MOL     C945027   6.872   2.402   6.005  0.6607  0.9676  0.0416
  370MOL   Cl1045028   6.837   2.421   5.830 -0.2043 -0.0475 -0.1216
  370MOL    H1145029   6.740   2.546   6.071 -0.1885 -1.0994  1.8547
  370MOL    H1245030   6.876   2.540   6.176  0.3902  2.3756 -0.2138
  370MOL    H1345031   6.973   2.361   6.011  0.1593 -0.4335 -0.7351
  370MOL    C1445032   6.778   2.296   6.066  0.7763  0.5302  0.1557
  370MOL    C1545033   6.801   2.151   6.018 -0.3292 -0.4432 -0.5910
  370MOL   Cl1645034   6.666   2.055   6.090 -0.2716 -0.3162 -0.2440
  370MOL    H1745035   6.676   2.329   6.042  1.1095  1.0949 -0.5139
  370MOL    H1845036   6.782   2.302   6.174  1.4391 -1.8895  0.2993
  370MOL    H1945037   6.784   2.153   5.910 -0.6550 -1.2127 -0.5579
  370MOL    C2045038   6.937   2.087   6.054 -0.0837 -0.6424  0.3988
  370MOL    C2145039   6.939   1.935   6.030  0.2731 -0.4564 -0.5267
  370MOL   Cl2245040   7.102   1.881   6.087 -0.2030 -0.2508 -0.0067
  370MOL    H2345041   6.955   2.099   6.160  0.1746 -1.8633  0.5034
  370MOL    H2445042   7.018   2.136   5.999  0.4158 -1.1864  0.6473
  370MOL    H2545043   6.869   1.891   6.100 -1.6174  3.1181 -0.0749
  370MOL    C2645044   6.905   1.880   5.892  0.1465 -0.5749 -0.6004
  370MOL    C2745045   6.940   1.957   5.760 -0.0828  0.4647 -0.6724
  370MOL   Cl2845046   6.865   1.904   5.606 -0.0175 -0.0090 -0.0705
  370MOL    H2945047   6.796   1.872   5.885 -0.2035  1.8201  1.4194
  370MOL    H3045048   6.934   1.775   5.890  0.1286 -0.6081  0.7762
  370MOL    H3145049   6.906   2.059   5.772  0.7139  0.6834 -0.2096
  370MOL    C3245050   7.100   1.965   5.741 -0.0605  0.2381 -0.3533
  370MOL    C3345051   7.164   2.071   5.648 -0.0194  0.1972  0.4197
  370MOL   Cl3445052   7.090   2.230   5.670 -0.1566  0.0434  0.3105
  370MOL    H3545053   7.135   1.864   5.720 -0.1783  0.0124  0.5053
  370MOL    H3645054   7.129   1.988   5.844  0.9012  2.2853 -1.0480
  370MOL    H3745055   7.267   2.079   5.682  0.5673 -1.5625 -0.8893
  370MOL    C3845056   7.161   2.034   5.496  0.0565 -0.1148  0.0276
  370MOL    C3945057   7.240   2.113   5.388 -0.4842  0.1993 -0.0759
  370MOL   Cl4045058   7.234   2.025   5.227 -0.1562 -0.1379 -0.0835
  370MOL    H4145059   7.057   2.026   5.466 -0.1086 -1.3771  0.9231
  370MOL    H4245060   7.197   1.931   5.492  0.2843  0.0204 -2.5852
  370MOL    H4345061   7.187   2.207   5.371 -1.8560 -0.4853  0.3249
  370MOL    C4445062   7.381   2.146   5.431 -0.0774  0.8104 -0.1125
  370MOL    C4545063   7.457   2.263   5.351 -0.0774 -0.0703  0.5840
  370MOL   Cl4645064   7.366   2.418   5.352  0.1927 -0.1162  0.1217
  370MOL    H4745065   7.446   2.059   5.419 -1.2614  0.1362 -1.7021
  370MOL    H4845066   7.378   2.178   5.535 -4.1544 -1.2457  0.4659
  370MOL    H4945067   7.549   2.276   5.408 -0.5058 -1.2177  1.5573
  370MOL    C5045068   7.496   2.223   5.199  1.0745  0.1636 -1.1357
  370MOL    C5145069   7.585   2.096   5.184 -0.8341  1.4597 -1.1005
  370MOL   Cl5245070   7.745   2.136   5.263 -0.2175  0.0399 -0.0080
  370MOL    H5345071   7.546   2.306   5.149  1.1657  1.5992  1.2269
  370MOL    H5445072   7.403   2.199   5.148 -0.3164 -1.2646  1.9244
  370MOL    H5545073   7.546   2.005   5.230  0.2913  0.9268 -1.1833
  370MOL    C5645074   7.608   2.059   5.037 -0.4541  0.0400 -0.4082
  370MOL    C5745075   7.689   1.935   5.006  0.6361 -0.4764  0.0726
  370MOL   Cl5845076   7.731   1.939   4.836  0.0066  0.1670  0.1545
  370MOL    H5945077   7.658   2.142   4.987  1.8835 -2.1919 -1.9421
  370MOL    H6045078   7.513   2.044   4.988 -0.1678  1.5376 -1.4318
  370MOL    H6145079   7.782   1.959   5.058 -1.0708  1.4251  2.4032
  370MOL    C6245080   7.639   1.804   5.056  0.4506  0.6640  0.0945
  370MOL    C6345081   7.751   1.693   5.064  0.4138  0.6743 -0.0852
  370MOL   Cl6445082   7.683   1.535   5.107 -0.2874 -0.1150  0.1938
  370MOL    H6545083   7.557   1.767   4.993  1.6074 -2.7442  0.4798
  370MOL    H6645084   7.580   1.814   5.147  1.4406  2.5521  0.5479
  370MOL    H6745085   7.812   1.685   4.974  0.3858  0.1901 -0.0596
  370MOL    C6845086   7.862   1.726   5.166  0.0484  0.1334  1.0526
  370MOL    C6945087   7.982   1.626   5.170  0.2470 -0.3120  0.8358
  370MOL   Cl7045088   8.103   1.707   5.271 -0.4724  0.0746  0.2513
  370MOL    H7145089   7.820   1.723   5.267 -0.7023 -1.8187  0.7164
  370MOL    H7245090   7.900   1.827   5.155  1.8387 -0.6349  0.0327
  370MOL    H7345091   7.952   1.533   5.218 -0.3293  0.4083  1.9080
  370MOL    C7445092   8.061   1.592   5.038  0.1352  0.0265 -0.0641
  370MOL    C7545093   8.136   1.709   4.966  0.1191  0.8215 -0.6496
  370MOL   Cl7645094   8.022   1.823   4.895  0.3442  0.1227 -0.3631
  370MOL    H7745095   7.989   1.553   4.966 -0.1638 -1.1047  0.8429
  370MOL    H7845096   8.123   1.503   5.046 -0.8620 -0.7894 -1.2909
  370MOL    H7945097   8.206   1.762   5.029 -0.5111  0.9606 -0.0688
  370MOL    C8045098   8.224   1.642   4.852 -0.1503 -0.4865 -0.2654
  370MOL    C8145099   8.342   1.726   4.798  0.0544  0.6027  0.9599
  370MOL   Cl8245100   8.386   1.654   4.643 -0.0236  0.0003 -0.2974
  370MOL    H8345101   8.170   1.625   4.759  0.6976  0.1757 -0.8927
  370MOL    H8445102   8.257   1.544   4.886  1.3549  0.0264 -0.1983
  370MOL    H8545103   8.310   1.825   4.767  0.8501 -0.0647 -2.2092
  370MOL    C8645104   8.469   1.734   4.884 -0.1110  0.3116 -0.2650
  370MOL    C8745105   0.017   1.612   4.935  0.4716 -0.8183 -0.2596
  370MOL   Cl8845106   8.462   1.555   5.079 -0.3916 -0.1100  0.0179
  370MOL    H8945107   8.453   1.802   4.968  0.0474 -0.5573  0.4738
  370MOL    H9045108   0.017   1.785   4.822 -0.0075  1.2378  0.5993
  370MOL    H9145109   0.014   1.532   4.861 -3.5560 -1.0897  0.0719
  370MOL    C9245110   0.163   1.639   4.964  0.5749 -0.2352 -0.0287
  370MOL    C9345111   0.259   1.636   4.847  0.3802 -0.6256 -0.4799
  370MOL   Cl9445112   0.294   1.466   4.810 -0.0079 -0.1445 -0.3836
  370MOL    H9545113   0.197   1.567   5.038  0.8524  0.0528  0.1249
  370MOL    H9645114   0.163   1.735   5.016  1.3588 -0.1476 -0.1857
  370MOL    H9745115   0.200   1.667   4.761  0.4535  2.1591  0.4211
  370MOL    C9845116   0.393   1.703   4.868  0.5287  0.6424  0.0077
  370MOL    C9945117   0.376   1.855   4.894  0.2420  0.0440 -0.5858
  370MOL  Cl10045118   0.279   1.930   4.767  0.0684  0.0834  0.5627
  370MOL   H10145119   0.464   1.695   4.786 -1.0315 -2.7682 -1.1190
  370MOL   H10245120   0.438   1.662   4.958  0.6142  1.5748  0.3854
  370MOL   H10345121   0.317   1.862   4.985  1.6003 -0.4996  0.3452
  370MOL   C10445122   0.515   1.911   4.918 -0.5604  0.9151 -1.0197
  370MOL   C10545123   0.529   2.025   5.019  0.1399 -0.4313 -0.2923
  370MOL  Cl10645124   0.423   2.166   4.968 -0.3359  0.2817 -0.0428
  370MOL   H10745125   0.561   1.930   4.821 -0.7691  1.5825 -0.9903
  370MOL   H10845126   0.576   1.836   4.969 -0.4933  0.8124 -1.2508
  370MOL   H10945127   0.489   1.993   5.115 -3.0826 -1.7158 -1.9739
  370MOL   C11045128   0.673   2.080   5.031 -0.1595  0.0401 -0.1530
  370MOL   C11145129   0.761   1.990   5.116  0.1858  0.3143 -0.0845
  370MOL  Cl11245130   0.719   2.017   5.285 -0.0217  0.2709  0.2226
  370MOL   H11345131   0.668   2.170   5.092  0.2864 -0.2871  0.3731
  370MOL   H11445132   0.722   2.119   4.942 -0.8155 -0.0353 -0.5478
  370MOL   H11545133   0.732   1.886   5.100  0.1705  0.3654 -0.3942
  370MOL   C11645134   0.920   2.005   5.102  0.2698  0.2763  0.6278
  370MOL   C11745135   0.978   2.008   4.958  0.1139 -0.0471  1.2048
  370MOL  Cl11845136   0.900   1.891   4.858  0.1550 -0.5200  0.1613
  370MOL   H11945137   0.961   1.914   5.146 -1.6357 -1.0105 -0.1425
  370MOL   H12045138   0.955   2.088   5.164 -1.4191 -0.5456  2.7690
  370MOL   H12145139   0.974   2.100   4.900  1.6032 -2.0494 -2.1759
  370MOL   H12245140   1.078   1.969   4.945  0.4732  0.4324  2.4626
  371MOL     C145141   7.205   7.474   4.154 -0.2246 -0.5871  0.5968
  371MOL     C245142   7.154   7.594   4.085  0.5067  0.2842 -0.3216
  371MOL    Cl345143   7.121   7.715   4.213 -0.2406  0.3625  0.1218
  371MOL     H445144   7.305   7.498   4.192 -1.1850 -0.4391  3.1098
  371MOL     H545145   7.156   7.437   4.244 -1.8831 -0.3940 -0.2215
  371MOL     H645146   7.214   7.643   4.008  1.7740 -0.9107 -0.1136
  371MOL     H745147   7.219   7.391   4.085 -0.5317 -0.4551  0.3783
  371MOL     C845148   7.016   7.564   4.026  0.3387  0.3987 -0.5685
  371MOL     C945149   6.999   7.464   3.912 -0.0813  0.2858  0.1571
  371MOL   Cl1045150   7.104   7.504   3.779 -0.2915  0.2878 -0.1169
  371MOL    H1145151   6.987   7.663   3.993  1.4818  0.8584 -0.1997
  371MOL    H1245152   6.940   7.538   4.100  0.8240  1.1525  0.2068
  371MOL    H1345153   7.039   7.370   3.949  0.6029  0.9262  1.0952
  371MOL    C1445154   6.857   7.453   3.848  0.6659  0.3490 -0.3984
  371MOL    C1545155   6.776   7.585   3.849  0.2983 -0.4658 -0.1519
  371MOL   Cl1645156   6.605   7.540   3.809  0.0168 -0.1752 -0.0404
  371MOL    H1745157   6.801   7.398   3.924 -0.7449  1.7024 -0.4545
  371MOL    H1845158   6.850   7.384   3.764  1.4761 -0.0422 -0.1615
  371MOL    H1945159   6.766   7.616   3.953 -0.4732  0.4566 -0.4896
  371MOL    C2045160   6.840   7.688   3.756  0.0727  0.2772 -0.5126
  371MOL    C2145161   6.789   7.835   3.774  0.3906 -0.3087  0.3121
  371MOL   Cl2245162   6.839   7.886   3.933  0.0655  0.4008 -0.2715
  371MOL    H2345163   6.816   7.653   3.655  0.1438 -0.2836 -0.3357
  371MOL    H2445164   6.948   7.693   3.754  0.1392 -0.9148  0.0081
  371MOL    H2545165   6.850   7.893   3.704  0.4758 -0.0005  0.6403
  371MOL    C2645166   6.635   7.863   3.752 -0.0211 -0.7326 -0.0904
  371MOL    C2745167   6.575   7.842   3.611  0.0816 -0.0156  0.0027
  371MOL   Cl2845168   6.682   7.938   3.499  0.5087 -0.0233 -0.2497
  371MOL    H2945169   6.627   7.971   3.754  3.8977 -0.3456 -1.1115
  371MOL    H3045170   6.571   7.829   3.833  2.0555  0.4495  2.0775
  371MOL    H3145171   6.597   7.737   3.592  3.8899  0.9040 -1.1720
  371MOL    C3245172   6.425   7.885   3.613  0.6659 -0.1146  0.5756
  371MOL    C3345173   6.331   7.821   3.505  0.7667  0.0471 -0.5141
  371MOL   Cl3445174   6.401   7.833   3.338 -0.1472 -0.0178 -0.4872
  371MOL    H3545175   6.433   7.992   3.600 -0.0880 -0.0921  0.2770
  371MOL    H3645176   6.384   7.863   3.711 -0.3270  0.2986  0.2580
  371MOL    H3745177   6.341   7.715   3.529 -2.4822  0.2423  2.0872
  371MOL    C3845178   6.188   7.887   3.513  0.1578 -0.1736  0.1603
  371MOL    C3945179   6.062   7.813   3.455  0.2337  0.1708  0.2196
  371MOL   Cl4045180   6.015   7.656   3.547  0.0581  0.0445 -0.4041
  371MOL    H4145181   6.185   7.986   3.467 -0.0828  0.9778  2.5428
  371MOL    H4245182   6.166   7.906   3.618 -1.2865  1.8955 -0.4761
  371MOL    H4345183   5.981   7.885   3.461 -1.5015 -1.6867 -0.6621
  371MOL    C4445184   6.082   7.771   3.308  0.2524 -0.7388  0.4906
  371MOL    C4545185   5.953   7.738   3.226  0.1873 -0.6151  0.0558
  371MOL   Cl4645186   5.916   7.567   3.240  0.2236  0.4364 -0.0716
  371MOL    H4745187   6.141   7.680   3.316 -0.6430 -1.6711 -2.6618
  371MOL    H4845188   6.154   7.839   3.262 -0.5948  0.4356  0.8702
  371MOL    H4945189   5.872   7.793   3.275 -0.3370  0.6108 -2.0975
  371MOL    C5045190   5.967   7.776   3.072  0.4453  0.2549 -0.0179
  371MOL    C5145191   5.999   7.919   3.025  0.1055  0.8145 -0.6114
  371MOL   Cl5245192   5.843   8.011   3.040 -0.1290 -0.2112  0.5430
  371MOL    H5345193   5.879   7.735   3.023 -0.3642 -0.1820  1.7978
  371MOL    H5445194   6.051   7.710   3.048 -0.5480 -1.1748  0.3605
  371MOL    H5545195   6.079   7.970   3.078 -0.8112 -0.0217  1.6042
  371MOL    C5645196   6.035   7.915   2.874 -0.2928 -0.3114 -0.1315
  371MOL    C5745197   6.172   7.857   2.847  0.3180 -0.6251 -0.2381
  371MOL   Cl5845198   6.306   7.947   2.927  0.1791  0.4437 -0.2335
  371MOL    H5945199   6.042   8.018   2.839 -1.4420 -0.3721 -0.5690
  371MOL    H6045200   5.952   7.871   2.818  0.3319 -0.5535 -0.8693
  371MOL    H6145201   6.182   7.755   2.885 -2.1575 -0.8621 -0.1658
  371MOL    C6245202   6.203   7.854   2.694 -0.2938  0.0691  0.5798
  371MOL    C6345203   6.344   7.797   2.660 -0.5425  0.8500  0.2346
  371MOL   Cl6445204   6.359   7.792   2.485 -0.3933  0.2033  0.0073
  371MOL    H6545205   6.174   7.951   2.654  0.4712  0.1436  0.1893
  371MOL    H6645206   6.120   7.799   2.649  0.1889 -2.5803  2.7276
  371MOL    H6745207   6.423   7.862   2.696 -0.8977 -0.2945  3.2556
  371MOL    C6845208   6.371   7.655   2.718  0.2856  0.4198 -0.2394
  371MOL    C6945209   6.489   7.580   2.658 -0.3494  0.2309 -0.4341
  371MOL   Cl7045210   6.491   7.417   2.723 -0.0950  0.2365 -0.1543
  371MOL    H7145211   6.274   7.611   2.697  0.2100 -0.1694  1.2389
  371MOL    H7245212   6.379   7.657   2.827  0.2225 -0.2095 -0.2205
  371MOL    H7345213   6.470   7.564   2.552 -3.2940  0.2105  0.0424
  371MOL    C7445214   6.629   7.644   2.673  0.3894 -0.1625  0.4596
  371MOL    C7545215   6.751   7.583   2.601  0.7417 -0.4896  0.5975
  371MOL   Cl7645216   6.885   7.631   2.705 -0.2357 -0.0459 -0.1674
  371MOL    H7745217   6.640   7.653   2.781  0.7943  1.2575  0.3124
  371MOL    H7845218   6.613   7.748   2.645  2.0959  0.2287  0.8586
  371MOL    H7945219   6.748   7.474   2.596  1.0259 -0.5811  2.1862
  371MOL    C8045220   6.775   7.633   2.455  0.5982 -0.0034 -0.1657
  371MOL    C8145221   6.666   7.604   2.346  0.3198 -0.8340 -0.3610
  371MOL   Cl8245222   6.639   7.427   2.339  0.5762 -0.1595 -0.3458
  371MOL    H8345223   6.872   7.600   2.416  0.8042 -0.2799  0.5603
  371MOL    H8445224   6.783   7.741   2.458  0.1502 -0.0042  1.9098
  371MOL    H8545225   6.570   7.644   2.380  1.4480  1.4203  0.2435
  371MOL    C8645226   6.703   7.651   2.205 -0.2088  0.1756  0.4621
  371MOL    C8745227   6.596   7.620   2.083 -0.2997 -0.1093 -0.5429
  371MOL   Cl8845228   6.681   7.674   1.933 -0.0137  0.6112  0.0884
  371MOL    H8945229   6.796   7.601   2.176 -0.2583 -0.5850  1.5880
  371MOL    H9045230   6.731   7.756   2.203  1.3015 -0.2138 -1.1139
  371MOL    H9145231   6.576   7.513   2.082 -0.6675 -0.0730  1.0879
  371MOL    C9245232   6.471   7.709   2.106  0.0398 -0.1821  0.9531
  371MOL    C9345233   6.355   7.679   2.001 -0.3835 -0.0734 -0.4813
  371MOL   Cl9445234   6.268   7.831   1.978  0.0183 -0.0253 -0.1240
  371MOL    H9545235   6.494   7.816   2.111  0.5090 -0.2984  1.3532
  371MOL    H9645236   6.436   7.684   2.206  0.9002  0.4865  1.4257
  371MOL    H9745237   6.388   7.646   1.902 -0.1835  0.0803 -0.4668
  371MOL    C9845238   6.269   7.566   2.052 -0.2084  0.0296  0.8017
  371MOL    C9945239   6.191   7.494   1.935  0.6819  0.4156 -0.2298
  371MOL  Cl10045240   6.311   7.432   1.823  0.1720  0.3491 -0.1411
  371MOL   H10145241   6.199   7.596   2.130 -0.0473 -0.2132  1.0441
  371MOL   H10245242   6.324   7.481   2.093  0.4957 -0.2949 -0.7806
  371MOL   H10345243   6.153   7.401   1.979  0.2993  0.7068  0.0604
  371MOL   C10445244   6.088   7.577   1.847 -0.3374 -0.2708 -0.8229
  371MOL   C10545245   5.967   7.619   1.926  0.6530 -0.5933 -0.0500
  371MOL  Cl10645246   5.891   7.464   1.978 -0.2695 -0.2314 -0.0177
  371MOL   H10745247   6.058   7.529   1.754 -0.1729 -2.1706  0.0868
  371MOL   H10845248   6.145   7.664   1.814 -0.0353  0.4948  1.6319
  371MOL   H10945249   5.991   7.671   2.020  0.6337 -1.0522  0.2088
  371MOL   C11045250   5.865   7.699   1.840  0.3614  0.1798  0.0645
  371MOL   C11145251   5.913   7.848   1.814 -0.0856  0.2775 -0.5538
  371MOL  Cl11245252   5.927   7.936   1.977  0.1354  0.0671  0.4551
  371MOL   H11345253   5.764   7.708   1.882  0.2379  1.1455 -0.4110
  371MOL   H11445254   5.858   7.647   1.745  1.7518  2.7251 -1.4752
  371MOL   H11545255   6.010   7.848   1.765 -0.9507 -1.7164 -2.3293
  371MOL   C11645256   5.814   7.928   1.731 -0.7055 -0.9912  0.4609
  371MOL   C11745257   5.817   7.891   1.583 -0.3622  0.4320  0.1252
  371MOL  Cl11845258   5.681   7.939   1.485  0.5146 -0.0246 -0.3774
  371MOL   H11945259   5.839   8.034   1.734  1.0098 -1.3582 -0.4228
  371MOL   H12045260   5.717   7.930   1.781 -0.4747 -0.1650  0.8785
  371MOL   H12145261   5.902   7.930   1.526 -3.6237  2.1016 -3.8172
  371MOL   H12245262   5.822   7.783   1.568  0.8293  0.5704 -0.5935
  372MOL     C145263   0.385   6.950   2.793 -0.0657  0.0753 -0.2831
  372MOL     C245264   0.365   6.833   2.878  0.0843 -0.3071 -0.1803
  372MOL    Cl345265   0.441   6.691   2.804 -0.1469  0.4438  0.1396
  372MOL     H445266   0.328   6.927   2.702  1.0062  1.2496 -1.2729
  372MOL     H545267   0.332   7.041   2.821  1.9356  2.3069 -3.3698
  372MOL     H645268   0.432   6.845   2.962 -2.0251  0.1157  1.4841
  372MOL     H745269   0.488   6.981   2.774  0.0254 -1.4161 -2.4224
  372MOL     C845270   0.220   6.803   2.924  0.0931 -0.1616  0.5226
  372MOL     C945271   0.171   6.894   3.029  0.0300 -1.7057  0.7640
  372MOL   Cl1045272   0.273   6.904   3.170 -0.0214  0.0860  0.4234
  372MOL    H1145273   0.218   6.711   2.982  0.2233 -0.7634 -0.4078
  372MOL    H1245274   0.157   6.779   2.838  0.0917  1.3032  0.0945
  372MOL    H1345275   0.166   6.995   2.989  0.3917 -1.8797  0.2860
  372MOL    C1445276   0.034   6.854   3.082  0.0842 -1.0453 -0.1343
  372MOL    C1545277   8.451   6.832   2.967 -0.2350  0.3947 -0.2637
  372MOL   Cl1645278   8.422   6.977   2.858  0.0821  0.1247  0.2629
  372MOL    H1745279   0.003   6.932   3.152 -1.6773 -2.5284  0.8038
  372MOL    H1845280   0.045   6.755   3.128 -1.5039 -1.2174 -0.0935
  372MOL    H1945281   8.482   6.751   2.900 -1.5267 -0.2694 -0.0916
  372MOL    C2045282   8.312   6.805   3.023  0.1659 -0.6325 -0.0306
  372MOL    C2145283   8.290   6.667   3.088 -0.1520  0.1582 -0.5675
  372MOL   Cl2245284   8.303   6.534   2.967 -0.0838 -0.0390 -0.1311
  372MOL    H2345285   8.241   6.812   2.941  1.3568  1.0875 -0.9376
  372MOL    H2445286   8.289   6.883   3.096  0.7772 -2.7210  2.4641
  372MOL    H2545287   8.375   6.653   3.154 -0.5614 -0.5015 -0.1701
  372MOL    C2645288   8.154   6.647   3.159 -0.2146 -0.2720 -0.7707
  372MOL    C2745289   8.125   6.749   3.268  0.2682  0.1160  0.0501
  372MOL   Cl2845290   8.264   6.795   3.379 -0.2037  0.0381  0.0006
  372MOL    H2945291   8.166   6.547   3.199  2.0123 -0.0352 -0.7668
  372MOL    H3045292   8.069   6.656   3.091 -3.3274  0.6443  3.1165
  372MOL    H3145293   8.100   6.845   3.221  1.5801  1.7898  2.6469
  372MOL    C3245294   8.004   6.717   3.354  0.0894  0.4986  0.4813
  372MOL    C3345295   7.995   6.600   3.450  0.2973  0.1058  0.2411
  372MOL   Cl3445296   7.836   6.552   3.456  0.1053 -0.2063 -0.1435
  372MOL    H3545297   7.925   6.697   3.281 -0.0744 -0.7796  0.9999
  372MOL    H3645298   7.969   6.804   3.411 -0.0803 -0.2339  1.5180
  372MOL    H3745299   8.047   6.516   3.404  0.9722  0.1321  0.9501
  372MOL    C3845300   8.032   6.630   3.587 -0.3698  0.0715  0.3316
  372MOL    C3945301   8.050   6.516   3.690  0.0762 -0.1779 -0.1480
  372MOL   Cl4045302   8.074   6.589   3.848  0.0659 -0.0932  0.0968
  372MOL    H4145303   7.981   6.717   3.627 -1.3196 -0.3658  0.0745
  372MOL    H4245304   8.133   6.672   3.586 -0.3886  0.2010  2.3087
  372MOL    H4345305   7.964   6.451   3.703  0.1580 -0.0191  1.3579
  372MOL    C4445306   8.172   6.415   3.673  0.4255  0.7769 -0.4504
  372MOL    C4545307   8.190   6.298   3.768  0.2408  0.0379  0.1718
  372MOL   Cl4645308   8.348   6.235   3.721  0.0670 -0.0482  0.2789
  372MOL    H4745309   8.260   6.478   3.683 -1.0155  2.5040  1.7119
  372MOL    H4845310   8.169   6.391   3.567  1.0598 -2.2851  0.1624
  372MOL    H4945311   8.204   6.331   3.871 -0.8460  1.2560 -0.0626
  372MOL    C5045312   8.079   6.195   3.752  0.2770  0.4609 -0.2814
  372MOL    C5145313   8.095   6.059   3.831  0.3808 -0.4288  0.2264
  372MOL   Cl5245314   8.179   5.948   3.716  0.0277  0.3403 -0.2201
  372MOL    H5345315   8.061   6.172   3.647 -0.3252 -0.6933  0.0680
  372MOL    H5445316   7.993   6.244   3.797 -1.9031 -0.3081 -3.4619
  372MOL    H5545317   8.163   6.077   3.914  1.6276  1.9439 -1.2437
  372MOL    C5645318   7.970   5.985   3.890 -0.7625  0.2294 -0.2112
  372MOL    C5745319   7.987   5.909   4.024  0.2773  0.1562 -0.2765
  372MOL   Cl5845320   8.121   5.793   4.000  0.0824  0.0890 -0.0856
  372MOL    H5945321   7.923   5.910   3.826  1.5394 -1.0695 -0.4495
  372MOL    H6045322   7.894   6.062   3.891 -1.2852 -0.3022  0.5999
  372MOL    H6145323   8.027   5.982   4.094  0.2680 -2.1097  2.1791
  372MOL    C6245324   7.872   5.830   4.087  0.2328 -0.1873 -0.0105
  372MOL    C6345325   7.740   5.905   4.095  0.0331  1.1310 -0.1934
  372MOL   Cl6445326   7.748   6.070   4.159  0.2776 -0.3387  0.0205
  372MOL    H6545327   7.906   5.804   4.187 -0.5344  2.3513  0.9482
  372MOL    H6645328   7.850   5.738   4.033 -2.4539  0.7255 -0.5906
  372MOL    H6745329   7.712   5.906   3.990  2.9904  0.9140 -1.0250
  372MOL    C6845330   7.635   5.830   4.170  0.3913 -0.0369 -0.0159
  372MOL    C6945331   7.489   5.886   4.138  0.1937 -0.5782 -0.3205
  372MOL   Cl7045332   7.446   5.995   4.270 -0.0278 -0.0769  0.1184
  372MOL    H7145333   7.659   5.821   4.276  1.1436  1.8369 -0.0152
  372MOL    H7245334   7.631   5.727   4.134 -1.6068  0.7949 -2.3284
  372MOL    H7345335   7.495   5.938   4.042  0.8971 -2.5344 -1.3673
  372MOL    C7445336   7.378   5.777   4.132 -0.0093  0.5239 -0.7689
  372MOL    C7545337   7.367   5.673   4.017 -0.6766  0.1742  0.1742
  372MOL   Cl7645338   7.355   5.766   3.870 -0.0377 -0.0997 -0.3499
  372MOL    H7745339   7.283   5.828   4.145  1.0657  2.5389 -0.6436
  372MOL    H7845340   7.400   5.722   4.224  0.3334  1.4574 -0.2794
  372MOL    H7945341   7.454   5.607   4.018  0.2898  1.3609 -1.7759
  372MOL    C8045342   7.248   5.579   4.021 -0.0815 -0.6158 -0.0971
  372MOL    C8145343   7.246   5.490   4.140  0.0324 -0.8371 -0.8774
  372MOL   Cl8245344   7.371   5.359   4.125  0.0974  0.4300  0.1567
  372MOL    H8345345   7.235   5.522   3.929 -2.2721 -0.9855  0.4301
  372MOL    H8445346   7.155   5.635   4.025 -0.4282 -1.2129  0.3723
  372MOL    H8545347   7.271   5.550   4.228  2.4185 -1.6178 -0.9728
  372MOL    C8645348   7.109   5.418   4.167 -0.2363 -0.0436 -0.1573
  372MOL    C8745349   7.068   5.391   4.311  1.0289 -0.2478 -0.0333
  372MOL   Cl8845350   7.180   5.276   4.392  0.0271  0.1735 -0.4995
  372MOL    H8945351   7.100   5.325   4.112 -0.2038  0.6660 -1.3859
  372MOL    H9045352   7.039   5.489   4.122  0.4735  1.5752  1.2255
  372MOL    H9145353   7.075   5.478   4.377  1.9362 -0.8019  0.6132
  372MOL    C9245354   6.930   5.329   4.314  0.2646 -0.2148  0.2270
  372MOL    C9345355   6.854   5.357   4.445 -0.8547 -0.1281  0.3795
  372MOL   Cl9445356   6.937   5.252   4.572  0.1491  0.0212  0.0273
  372MOL    H9545357   6.938   5.222   4.294 -1.4708 -1.1329  4.0863
  372MOL    H9645358   6.859   5.376   4.246  1.8333  0.9512 -0.6366
  372MOL    H9745359   6.865   5.463   4.469  1.1646 -0.3541  0.5181
  372MOL    C9845360   6.711   5.313   4.435  0.2274 -0.6391  0.3114
  372MOL    C9945361   6.603   5.392   4.508 -0.1933  0.5271  0.1935
  372MOL  Cl10045362   6.612   5.568   4.476 -0.1420  0.0366 -0.0898
  372MOL   H10145363   6.710   5.206   4.453 -3.0860 -0.2480  3.0815
  372MOL   H10245364   6.684   5.326   4.330  0.5012 -1.1501  0.1748
  372MOL   H10345365   6.503   5.366   4.474 -0.5681 -3.3221  3.8669
  372MOL   C10445366   6.582   5.379   4.663 -0.1613 -0.1396 -0.6926
  372MOL   C10545367   6.543   5.240   4.709 -0.9159  0.0562  0.5122
  372MOL  Cl10645368   6.400   5.174   4.630  0.2177  0.1289  0.1045
  372MOL   H10745369   6.509   5.453   4.696  0.8404 -0.3936  2.2464
  372MOL   H10845370   6.671   5.420   4.710 -0.9917  0.3567  0.4864
  372MOL   H10945371   6.628   5.179   4.678 -0.5499  0.8309 -0.0244
  372MOL   C11045372   6.530   5.229   4.860 -0.4102 -0.3658 -0.5579
  372MOL   C11145373   6.668   5.232   4.940 -0.0944  0.2610  0.4909
  372MOL  Cl11245374   6.769   5.088   4.893 -0.3715  0.1641 -0.2125
  372MOL   H11345375   6.473   5.141   4.890  0.3872 -1.6213 -2.6521
  372MOL   H11445376   6.460   5.303   4.897  0.2273 -0.3881  0.7442
  372MOL   H11545377   6.732   5.317   4.918  0.8360 -0.8614 -1.2035
  372MOL   C11645378   6.644   5.214   5.085 -0.2871  0.1539  0.5521
  372MOL   C11745379   6.766   5.254   5.167  0.3147 -0.0455 -0.3855
  372MOL  Cl11845380   6.722   5.238   5.339 -0.1314 -0.1651  0.5035
  372MOL   H11945381   6.616   5.109   5.097 -0.2695  0.0541 -0.2720
  372MOL   H12045382   6.559   5.264   5.131  0.9171  2.8439 -0.0773
  372MOL   H12145383   6.856   5.196   5.149  1.6067  1.5246  0.9548
  372MOL   H12245384   6.780   5.362   5.160  3.0785 -0.2152  1.7722
  373MOL     C145385   6.747   4.540   0.710 -0.5020 -0.0647 -0.0579
  373MOL     C245386   6.691   4.502   0.567 -0.1630 -0.4429 -0.0791
  373MOL    Cl345387   6.696   4.329   0.572  0.0901  0.1873  0.0063
  373MOL     H445388   6.673   4.528   0.789  0.1564  0.5519  0.6523
  373MOL     H545389   6.840   4.489   0.736 -1.1144 -1.2668 -0.1626
  373MOL     H645390   6.589   4.533   0.547  0.2828  0.1576 -1.4086
  373MOL     H745391   6.776   4.645   0.709 -1.2952  0.1455 -0.7342
  373MOL     C845392   6.793   4.547   0.453 -0.0409  0.2249  0.3956
  373MOL     C945393   6.789   4.698   0.414 -0.0198 -0.0742  0.3087
  373MOL   Cl1045394   6.629   4.754   0.356  0.2387  0.5772 -0.0016
  373MOL    H1145395   6.772   4.484   0.366  0.0350 -1.8953  1.8490
  373MOL    H1245396   6.892   4.521   0.489 -0.2732  0.0743  0.9368
  373MOL    H1345397   6.808   4.762   0.500  1.8927 -2.3486  1.6658
  373MOL    C1445398   6.884   4.726   0.303  1.1310  0.0392  0.3065
  373MOL    C1545399   6.868   4.649   0.164  0.2851 -0.1266  0.4991
  373MOL   Cl1645400   6.956   4.501   0.168 -0.0677 -0.0822 -0.1800
  373MOL    H1745401   6.987   4.722   0.338  1.0588 -2.6336  0.3278
  373MOL    H1845402   6.881   4.833   0.284  0.2236  0.3166  1.9191
  373MOL    H1945403   6.766   4.615   0.148  0.7065 -1.2529  0.1488
  373MOL    C2045404   6.901   4.733   0.035  0.4612  0.3492  0.8339
  373MOL    C2145405   6.815   4.852   8.516  0.0584 -0.4990 -0.2265
  373MOL   Cl2245406   6.641   4.802   8.507  0.1021  0.0532  0.0193
  373MOL    H2345407   6.894   4.668   8.474 -0.4718 -0.1191  1.2466
  373MOL    H2445408   7.007   4.756   0.036  0.7974 -1.1065 -0.1040
  373MOL    H2545409   6.814   4.940   0.055  1.0320  0.3148 -1.3179
  373MOL    C2645410   6.845   4.917   8.379  0.4869  0.9121 -0.3849
  373MOL    C2745411   6.947   5.036   8.380  0.0944  0.0762  0.4494
  373MOL   Cl2845412   6.914   5.127   8.227  0.0466 -0.2401  0.1874
  373MOL    H2945413   6.751   4.958   8.344  0.4252 -0.3756 -1.7876
  373MOL    H3045414   6.872   4.837   8.310  0.8389  0.2491  0.5010
  373MOL    H3145415   6.921   5.102   8.463 -3.4606  0.7212 -1.0975
  373MOL    C3245416   7.102   5.000   8.389  0.3463 -0.1901  0.3780
  373MOL    C3345417   7.201   5.117   8.396 -0.0074 -1.1836  0.6614
  373MOL   Cl3445418   7.357   5.057   8.342 -0.1500  0.4077  0.1183
  373MOL    H3545419   7.125   4.947   8.297  0.5540  0.0486  0.2923
  373MOL    H3645420   7.125   4.933   8.472  0.2365 -0.3582  0.2720
  373MOL    H3745421   7.175   5.201   8.332  0.4826 -0.7624  1.0159
  373MOL    C3845422   7.229   5.179   0.006  0.2770  0.1754  0.0651
  373MOL    C3945423   7.270   5.084   0.118  1.0126  0.1912  0.5006
  373MOL   Cl4045424   7.114   5.029   0.180  0.0618  0.0742 -0.3419
  373MOL    H4145425   7.145   5.239   0.042  1.3191  1.9582 -0.3868
  373MOL    H4245426   7.301   5.260   8.519 -1.2215  1.8163  1.5818
  373MOL    H4345427   7.318   4.995   0.078  0.0882 -1.0892  2.1674
  373MOL    C4445428   7.347   5.161   0.224 -0.4943  0.5516 -0.0227
  373MOL    C4545429   7.490   5.193   0.185  1.3333 -0.1074 -0.0058
  373MOL   Cl4645430   7.584   5.044   0.198 -0.0742  0.0093  0.1936
  373MOL    H4745431   7.352   5.093   0.309 -2.8034  0.3701  0.0028
  373MOL    H4845432   7.289   5.249   0.252  3.0544  2.7348  0.8542
  373MOL    H4945433   7.489   5.228   0.082  1.7249  0.5154  0.2061
  373MOL    C5045434   7.533   5.304   0.282  0.2586  0.4616  0.3087
  373MOL    C5145435   7.659   5.375   0.242 -0.8846  1.0012  0.1117
  373MOL   Cl5245436   7.688   5.504   0.369 -0.1150 -0.2585 -0.4536
  373MOL    H5345437   7.530   5.277   0.387 -0.3911 -1.3264 -0.1524
  373MOL    H5445438   7.460   5.385   0.279  0.9285  1.0496 -0.5198
  373MOL    H5545439   7.739   5.302   0.248 -1.5878  0.1982 -0.1721
  373MOL    C5645440   7.664   5.443   0.106  0.4558 -0.4022  0.2543
  373MOL    C5745441   7.552   5.551   0.077 -0.2747  0.2461 -0.5117
  373MOL   Cl5845442   7.389   5.494   0.044  0.1192 -0.2103  0.0771
  373MOL    H5945443   7.666   5.374   0.022  1.7507 -0.4761  0.3258
  373MOL    H6045444   7.760   5.493   0.094  0.9540 -0.6747  2.8596
  373MOL    H6145445   7.538   5.610   0.167  0.2415 -1.4691  0.7017
  373MOL    C6245446   7.594   5.660   8.513  0.5837 -0.3935  0.7719
  373MOL    C6345447   7.641   5.615   8.368  0.4456 -0.0784  0.2600
  373MOL   Cl6445448   7.819   5.637   8.357  0.0042 -0.4014  0.3348
  373MOL    H6545449   7.665   5.731   0.030  0.7534 -0.3266  0.3760
  373MOL    H6645450   7.502   5.715   8.495 -1.1902 -2.5616  2.8248
  373MOL    H6745451   7.625   5.507   8.360  3.3669 -0.6231  1.0750
  373MOL    C6845452   7.576   5.684   8.249  0.1212 -0.1269  0.2349
  373MOL    C6945453   7.440   5.628   8.200  0.2107 -0.3380  0.2695
  373MOL   Cl7045454   7.475   5.482   8.103 -0.0648  0.6691  0.4073
  373MOL    H7145455   7.639   5.683   8.160  1.4167  3.0867  1.0110
  373MOL    H7245456   7.559   5.791   8.263 -4.4992 -0.6070 -0.8345
  373MOL    H7345457   7.384   5.600   8.289  0.9971 -2.7152  0.0683
  373MOL    C7445458   7.351   5.720   8.113 -0.4765  0.2969 -0.3511
  373MOL    C7545459   7.225   5.658   8.061  0.3013 -0.1110 -0.5687
  373MOL   Cl7645460   7.151   5.792   7.972  0.4132  0.0898 -0.0952
  373MOL    H7745461   7.407   5.773   8.036 -1.2537  2.4566  0.5263
  373MOL    H7845462   7.330   5.799   8.185  0.2735 -1.2526  1.6006
  373MOL    H7945463   7.252   5.577   7.994 -0.4108 -0.5857 -0.2895
  373MOL    C8045464   7.125   5.595   8.153  0.1626 -0.3158 -0.2076
  373MOL    C8145465   7.012   5.510   8.089 -0.2198  0.4466 -1.7278
  373MOL   Cl8245466   6.900   5.462   8.216  0.0133 -0.1362  0.0625
  373MOL    H8345467   7.083   5.673   8.217 -0.4501 -0.2667 -0.6614
  373MOL    H8445468   7.174   5.530   8.224 -2.0673 -0.0244  1.6483
  373MOL    H8545469   6.949   5.577   8.032 -0.0217 -0.3239 -2.8683
  373MOL    C8645470   7.066   5.390   8.007 -0.8223  0.2915  0.4151
  373MOL    C8745471   7.054   5.412   7.856 -0.1115 -0.0266  0.3793
  373MOL   Cl8845472   6.884   5.385   7.800  0.3939 -0.3985 -0.2486
  373MOL    H8945473   6.999   5.305   8.021 -0.2851 -0.6658 -2.4146
  373MOL    H9045474   7.166   5.361   8.038 -1.4534  0.5777  2.7709
  373MOL    H9145475   7.083   5.514   7.831 -0.0817 -0.1366 -0.0380
  373MOL    C9245476   7.141   5.317   7.773  0.0495  0.1794 -0.0158
  373MOL    C9345477   7.301   5.342   7.790 -0.2733  0.0985  0.0354
  373MOL   Cl9445478   7.353   5.487   7.712 -0.4113 -0.0420  0.1478
  373MOL    H9545479   7.113   5.337   7.670 -0.2598 -0.0064  0.0331
  373MOL    H9645480   7.107   5.223   7.815  3.5779 -0.9066  0.6185
  373MOL    H9745481   7.328   5.355   7.895  4.3320  2.2880 -1.2879
  373MOL    C9845482   7.388   5.232   7.720 -0.3345  0.0053  0.6938
  373MOL    C9945483   7.436   5.129   7.826 -0.2196  0.0217  0.6848
  373MOL  Cl10045484   7.591   5.191   7.889 -0.0061  0.4208  0.3301
  373MOL   H10145485   7.474   5.283   7.676 -0.6160 -0.0987  0.0271
  373MOL   H10245486   7.333   5.186   7.638  2.4611 -1.0379 -0.6680
  373MOL   H10345487   7.378   5.132   7.918 -0.7678 -0.9417  0.3732
  373MOL   C10445488   7.458   4.991   7.756 -0.5009  0.6248 -0.2249
  373MOL   C10545489   7.510   4.879   7.839 -0.1038  0.2363 -0.5195
  373MOL  Cl10645490   7.509   4.732   7.741  0.3576  0.0226 -0.0846
  373MOL   H10745491   7.521   5.003   7.668 -0.6768 -2.1334 -0.7815
  373MOL   H10845492   7.359   4.964   7.719 -0.4127 -1.4430  0.9463
  373MOL   H10945493   7.615   4.909   7.842 -0.7028  2.2459  0.8076
  373MOL   C11045494   7.435   4.862   7.973  0.7355  0.1213 -0.0008
  373MOL   C11145495   7.289   4.817   7.971  0.2634 -0.4815  0.5314
  373MOL  Cl11245496   7.186   4.957   7.956 -0.1579 -0.3889  0.1767
  373MOL   H11345497   7.439   4.956   8.029 -1.2506 -0.6862  1.5592
  373MOL   H11445498   7.491   4.793   8.035  0.5245 -1.4943 -1.5646
  373MOL   H11545499   7.273   4.748   7.888 -0.8237 -0.1534  0.4605
  373MOL   C11645500   7.250   4.739   8.100  0.7779  0.6972  0.2172
  373MOL   C11745501   7.101   4.699   8.114  0.3856 -0.2545 -0.2861
  373MOL  Cl11845502   7.076   4.640   8.280  0.1301  0.2249  0.0795
  373MOL   H11945503   7.286   4.813   8.172  1.1497  0.6616  0.0652
  373MOL   H12045504   7.296   4.642   8.118  0.2343  0.3122 -0.4516
  373MOL   H12145505   7.042   4.791   8.103  0.2429 -0.1993  0.8471
  373MOL   H12245506   7.088   4.626   8.035 -3.0671  1.9074 -1.8928
  374MOL     C145507   0.237   4.058   6.862 -0.0605  0.4192 -0.0166
  374MOL     C245508   0.190   3.947   6.953  0.0997 -0.6215 -0.2412
  374MOL    Cl345509   0.312   3.818   6.927 -0.0365 -0.2080 -0.1684
  374MOL     H445510   0.313   4.125   6.903 -0.7219  1.2391 -0.1299
  374MOL     H545511   0.269   4.012   6.768 -0.9370 -1.2542  0.4996
  374MOL     H645512   0.205   3.975   7.057 -0.7361  1.6237 -0.6956
  374MOL     H745513   0.152   4.119   6.833 -2.0465 -1.9238  0.7323
  374MOL     C845514   0.046   3.892   6.932 -0.1158  0.9516  0.1698
  374MOL     C945515   8.459   3.995   6.958 -0.0501  0.2914 -0.5043
  374MOL   Cl1045516   8.453   4.043   7.125  0.2144 -0.1764 -0.2556
  374MOL    H1145517   0.043   3.800   6.991 -1.2558  0.2902 -0.8888
  374MOL    H1245518   0.039   3.863   6.827 -1.5133  1.0776  0.2223
  374MOL    H1345519   8.485   4.083   6.899 -1.4143  0.7057 -0.5102
  374MOL    C1445520   8.319   3.940   6.916  0.5430  0.0909  0.2249
  374MOL    C1545521   8.204   4.044   6.944  0.0527  0.2981 -0.7564
  374MOL   Cl1645522   8.067   3.974   6.857  0.2314 -0.0851  0.1392
  374MOL    H1745523   8.292   3.853   6.975  0.2155 -0.3213 -0.5339
  374MOL    H1845524   8.325   3.906   6.812  0.9407 -0.4997  0.4404
  374MOL    H1945525   8.184   4.039   7.051  1.0441 -0.3243 -0.5927
  374MOL    C2045526   8.220   4.196   6.904  0.3762  0.1371 -0.1314
  374MOL    C2145527   8.082   4.283   6.921  0.1325  0.3775 -0.0545
  374MOL   Cl2245528   8.114   4.447   6.859 -0.0456  0.0537 -0.3542
  374MOL    H2345529   8.247   4.196   6.798  0.4196 -1.8328 -0.1373
  374MOL    H2445530   8.300   4.238   6.966 -1.8104  1.7468  1.6678
  374MOL    H2545531   8.008   4.240   6.853  0.5709 -1.1068  0.3937
  374MOL    C2645532   8.044   4.290   7.075 -0.1752  0.0780  0.1888
  374MOL    C2745533   7.928   4.377   7.115  0.2735  0.4751 -0.5721
  374MOL   Cl2845534   7.965   4.467   7.271 -0.2207  0.4652  0.0891
  374MOL    H2945535   8.123   4.337   7.134  1.4381 -0.8501 -1.1654
  374MOL    H3045536   8.034   4.191   7.121  1.5887 -1.1416 -1.9594
  374MOL    H3145537   7.902   4.458   7.046 -3.4920  0.1165  0.2808
  374MOL    C3245538   7.792   4.306   7.149  0.1378 -0.6610  0.1587
  374MOL    C3345539   7.711   4.251   7.020  0.6389  0.7178 -0.1575
  374MOL   Cl3445540   7.692   4.378   6.901  0.6355  0.4803 -0.1249
  374MOL    H3545541   7.724   4.384   7.183  1.1474  0.7821 -1.0770
  374MOL    H3645542   7.801   4.227   7.224  1.3273 -0.4321  0.2619
  374MOL    H3745543   7.772   4.173   6.975  0.9743 -0.0256  1.5287
  374MOL    C3845544   7.575   4.198   7.055 -0.2225  0.1349 -0.5917
  374MOL    C3945545   7.493   4.134   6.943  0.5524  0.4679  1.0448
  374MOL   Cl4045546   7.339   4.086   7.010  0.4188  0.0016  0.0434
  374MOL    H4145547   7.531   4.294   7.079  0.6637  0.0755  1.3716
  374MOL    H4245548   7.576   4.142   7.149  0.3995  0.4933 -0.3795
  374MOL    H4345549   7.461   4.212   6.873  1.3333 -0.6096 -0.5434
  374MOL    C4445550   7.561   4.019   6.861 -0.4196 -0.5249  0.1373
  374MOL    C4545551   7.567   3.887   6.933 -0.8042  0.0764  0.3437
  374MOL   Cl4645552   7.686   3.887   7.069 -0.2662 -0.0417 -0.0411
  374MOL    H4745553   7.659   4.043   6.818 -1.6991  3.2373 -0.9705
  374MOL    H4845554   7.502   4.006   6.770 -0.9953 -1.9246  0.6944
  374MOL    H4945555   7.469   3.871   6.979 -0.9748 -2.2441 -0.7228
  374MOL    C5045556   7.593   3.769   6.832 -0.2117  0.0929  0.4500
  374MOL    C5145557   7.737   3.724   6.792  0.6603 -0.7986  0.2508
  374MOL   Cl5245558   7.798   3.853   6.690  0.3021 -0.0898  0.4854
  374MOL    H5345559   7.542   3.786   6.738  3.5611 -1.5302 -2.0292
  374MOL    H5445560   7.547   3.689   6.890  1.3055 -2.1493 -1.3641
  374MOL    H5545561   7.803   3.719   6.879  1.9252 -1.8720 -0.7428
  374MOL    C5645562   7.732   3.588   6.724  0.0947 -0.4695  0.6407
  374MOL    C5745563   7.870   3.528   6.685 -0.0912  0.0316 -0.5621
  374MOL   Cl5845564   7.858   3.399   6.569  0.0334 -0.1162 -0.2691
  374MOL    H5945565   7.665   3.596   6.638 -1.7649 -0.3329  2.0906
  374MOL    H6045566   7.679   3.530   6.799 -1.3612 -1.7724 -1.3341
  374MOL    H6145567   7.921   3.614   6.642 -1.3194  0.4290 -1.2445
  374MOL    C6245568   7.956   3.473   6.803  0.3696  0.5833 -0.2831
  374MOL    C6345569   8.100   3.440   6.760  0.6400  0.6818  0.5966
  374MOL   Cl6445570   8.178   3.377   6.905 -0.2517 -0.0492 -0.1518
  374MOL    H6545571   7.911   3.380   6.839  1.5499 -0.0047 -0.3197
  374MOL    H6645572   7.972   3.539   6.888  0.3914  0.5951 -0.2965
  374MOL    H6745573   8.107   3.357   6.690  1.6304  0.2619  1.1945
  374MOL    C6845574   8.185   3.551   6.697  0.0577  0.1133 -0.2472
  374MOL    C6945575   8.320   3.509   6.642  0.6556 -0.0131 -0.7004
  374MOL   Cl7045576   8.417   3.657   6.630  0.3572  0.0719  0.1470
  374MOL    H7145577   8.193   3.629   6.772 -1.2947  0.4649 -0.4554
  374MOL    H7245578   8.142   3.608   6.615 -1.0730 -0.9398 -0.3959
  374MOL    H7345579   8.364   3.436   6.710  1.2321 -1.4426 -2.5408
  374MOL    C7445580   8.320   3.448   6.500  0.1109 -0.5091 -0.5100
  374MOL    C7545581   8.451   3.368   6.466  0.3138 -0.8144 -0.6508
  374MOL   Cl7645582   8.446   3.319   6.293  0.0702  0.2759 -0.2651
  374MOL    H7745583   8.319   3.525   6.422 -0.5843  0.1992  0.1886
  374MOL    H7845584   8.229   3.391   6.482  0.1483 -0.7509  0.0549
  374MOL    H7945585   0.009   3.438   6.465  1.1326 -1.7979 -1.6712
  374MOL    C8045586   8.490   3.244   6.551  0.3609  0.0111 -0.4942
  374MOL    C8145587   8.405   3.117   6.535 -0.3008 -0.2713  0.0854
  374MOL   Cl8245588   8.245   3.144   6.600 -0.1760  0.1431  0.1892
  374MOL    H8345589   8.491   3.272   6.657 -2.2836  3.4432 -1.3021
  374MOL    H8445590   0.064   3.214   6.518  0.3591  1.5113 -1.8855
  374MOL    H8545591   8.396   3.108   6.427 -0.5093  0.3832  0.0455
  374MOL    C8645592   8.459   2.987   6.601  0.6289  0.2504  0.4420
  374MOL    C8745593   0.051   2.919   6.535 -0.3355  0.5922  0.0442
  374MOL   Cl8845594   0.015   2.896   6.360 -0.0598  0.0154 -0.0025
  374MOL    H8945595   8.376   2.916   6.601 -0.3727  1.4120  0.0851
  374MOL    H9045596   8.474   2.992   6.709  2.2017 -2.9617  0.4309
  374MOL    H9145597   0.141   2.979   6.540 -0.4591  0.8169 -0.4864
  374MOL    C9245598   0.064   2.767   6.591  0.3737 -0.5824 -0.0994
  374MOL    C9345599   0.129   2.755   6.729 -0.8238  0.2950 -0.8698
  374MOL   Cl9445600   0.303   2.799   6.704 -0.2220  0.7967  0.0180
  374MOL    H9545601   0.119   2.710   6.516 -0.9278 -2.1959  0.1459
  374MOL    H9645602   8.495   2.714   6.605 -0.0797 -0.1908 -1.5166
  374MOL    H9745603   0.089   2.833   6.793 -2.7731 -1.9883  0.7584
  374MOL    C9845604   0.135   2.606   6.786 -0.2382 -0.2884 -0.0247
  374MOL    C9945605   0.173   2.605   6.935  0.7199 -0.7385 -0.0755
  374MOL  Cl10045606   0.332   2.529   6.955  0.2764 -0.4014  0.1823
  374MOL   H10145607   0.215   2.565   6.725 -1.3967 -0.5185 -1.4135
  374MOL   H10245608   0.039   2.559   6.764 -0.8995  0.1890  1.6906
  374MOL   H10345609   0.180   2.697   6.993  1.8426 -0.6771 -0.2872
  374MOL   C10445610   0.068   2.511   7.002  0.1257  0.8232  0.2100
  374MOL   C10545611   8.446   2.574   7.004  0.0309 -0.7164 -0.8550
  374MOL  Cl10645612   8.460   2.703   7.121  0.0696 -0.4703 -0.3593
  374MOL   H10745613   0.089   2.487   7.106  0.4942  0.2945  0.0180
  374MOL   H10845614   0.071   2.411   6.959 -1.2152  0.1820  1.5470
  374MOL   H10945615   8.416   2.619   6.910  0.3729 -1.5880 -1.3934
  374MOL   C11045616   8.330   2.481   7.045  0.6445 -0.0694  0.0907
  374MOL   C11145617   8.310   2.351   6.961  0.3895 -0.5786 -0.3356
  374MOL  Cl11245618   8.285   2.402   6.796 -0.3235 -0.2863  0.1817
  374MOL   H11345619   8.248   2.552   7.055  0.0002 -0.6323 -1.1385
  374MOL   H11445620   8.353   2.442   7.144  1.9532 -1.5422 -0.7648
  374MOL   H11545621   8.398   2.287   6.960  1.3346  0.6635  0.9430
  374MOL   C11645622   8.181   2.271   7.003  0.0479 -0.4972  0.2460
  374MOL   C11745623   8.168   2.132   6.941 -0.2183  0.1407  0.2378
  374MOL  Cl11845624   8.276   2.010   7.011 -0.0155 -0.3585 -0.2473
  374MOL   H11945625   8.088   2.322   6.977  1.5177  2.3201  0.2478
  374MOL   H12045626   8.173   2.269   7.112 -1.9074  2.1613  0.2139
  374MOL   H12145627   8.067   2.092   6.948 -0.1601 -0.2797 -1.1458
  374MOL   H12245628   8.194   2.130   6.835 -0.5103  0.5280  0.1583
  375MOL     C145629   5.299   5.321   2.545  0.2404 -0.2986 -0.1325
  375MOL     C245630   5.257   5.382   2.674  0.2319 -0.0008 -0.2531
  375MOL    Cl345631   5.402   5.475   2.732 -0.0054  0.4853  0.3770
  375MOL     H445632   5.367   5.236   2.543  3.1471  1.9600 -3.5117
  375MOL     H545633   5.205   5.282   2.504 -0.7886  1.7759  0.1918
  375MOL     H645634   5.175   5.454   2.666  0.0444 -0.0709  1.0037
  375MOL     H745635   5.345   5.396   2.481  0.2494  0.5031  0.8082
  375MOL     C845636   5.227   5.266   2.778 -0.3099 -0.3165  0.2625
  375MOL     C945637   5.102   5.180   2.748  0.3338  0.2832 -0.0226
  375MOL   Cl1045638   4.956   5.279   2.777 -0.4509 -0.1866  0.0800
  375MOL    H1145639   5.226   5.304   2.880 -1.9882  1.3607 -0.3636
  375MOL    H1245640   5.313   5.198   2.776  0.3239  0.5101 -1.2733
  375MOL    H1345641   5.102   5.149   2.644 -0.6035 -0.9971  0.3441
  375MOL    C1445642   5.092   5.051   2.830  0.1274  0.3986 -0.1908
  375MOL    C1545643   4.968   4.964   2.814 -1.3122 -1.0365 -0.2514
  375MOL   Cl1645644   4.994   4.818   2.904 -0.2581 -0.0747  0.0095
  375MOL    H1745645   5.102   5.081   2.934 -0.1558 -1.6950  0.4622
  375MOL    H1845646   5.182   4.991   2.814 -2.7126 -4.5653  1.4691
  375MOL    H1945647   4.884   5.011   2.867  0.2174  0.8154  0.5960
  375MOL    C2045648   4.928   4.928   2.672 -0.2372 -0.4383  0.6732
  375MOL    C2145649   4.801   4.852   2.644  0.7875  0.0006 -0.2593
  375MOL   Cl2245650   4.833   4.762   2.494 -0.0926  0.1137  0.5449
  375MOL    H2345651   5.010   4.886   2.613 -1.1416 -1.8713  0.4322
  375MOL    H2445652   4.909   5.022   2.621 -1.7353 -0.6455  0.8533
  375MOL    H2545653   4.777   4.772   2.714  2.6094 -0.4397 -0.0980
  375MOL    C2645654   4.671   4.930   2.630  0.3222 -0.2857  0.1918
  375MOL    C2745655   4.525   4.869   2.644 -0.5515  0.5392  0.5357
  375MOL   Cl2845656   4.508   4.723   2.545 -0.0650 -0.1446 -0.1583
  375MOL    H2945657   4.686   4.986   2.537 -1.4898 -0.3916 -0.1971
  375MOL    H3045658   4.684   5.000   2.712 -1.5866 -2.2075  2.1851
  375MOL    H3145659   4.517   4.833   2.747 -0.3945  0.0231  0.3733
  375MOL    C3245660   4.411   4.970   2.604 -0.3220  0.1795 -0.1077
  375MOL    C3345661   4.266   4.920   2.600  0.2791  0.4768  0.2938
  375MOL   Cl3445662   4.238   4.864   2.437  0.1661  0.3588  0.4443
  375MOL    H3545663   4.439   5.025   2.515 -0.8105  1.1223  0.3070
  375MOL    H3645664   4.414   5.044   2.685 -0.6538  1.2384 -1.0528
  375MOL    H3745665   4.247   4.836   2.667 -0.0710  1.7963  1.8703
  375MOL    C3845666   4.168   5.035   2.620  0.2049  0.3941  0.0024
  375MOL    C3945667   4.021   4.996   2.592 -0.0732  0.8022 -0.2651
  375MOL   Cl4045668   3.914   5.135   2.645 -0.5693  0.3963 -0.2799
  375MOL    H4145669   4.179   5.120   2.553 -0.2745  0.3106 -0.1899
  375MOL    H4245670   4.191   5.064   2.723 -1.5537  2.8414 -0.2393
  375MOL    H4345671   4.001   4.969   2.488  1.7290  0.8657 -0.6392
  375MOL    C4445672   3.984   4.872   2.679 -0.7406  1.0765  0.3880
  375MOL    C4545673   3.840   4.821   2.697  0.0542 -0.5300 -0.0323
  375MOL   Cl4645674   3.845   4.675   2.784  0.4151  0.4152  0.2494
  375MOL    H4745675   4.014   4.900   2.780  1.9411  0.0617 -0.1129
  375MOL    H4845676   4.043   4.784   2.656  3.3105  3.5219  0.9114
  375MOL    H4945677   3.790   4.885   2.770  1.4693  1.7085 -0.9569
  375MOL    C5045678   3.766   4.802   2.568  0.3528 -0.6436  0.5084
  375MOL    C5145679   3.642   4.711   2.576  0.3769  0.4071  0.0476
  375MOL   Cl5245680   3.590   4.682   2.408  0.2869 -0.3528 -0.0303
  375MOL    H5345681   3.840   4.758   2.501  2.2450 -0.4540  2.4510
  375MOL    H5445682   3.745   4.901   2.528  2.1708 -0.5495 -0.2491
  375MOL    H5545683   3.666   4.611   2.613 -3.2926  0.1726  2.0836
  375MOL    C5645684   3.536   4.779   2.667  0.6605  0.0080 -0.0387
  375MOL    C5745685   3.406   4.703   2.686  0.5596 -0.2860 -0.3579
  375MOL   Cl5845686   3.284   4.804   2.767  0.0343 -0.0471 -0.3740
  375MOL    H5945687   3.512   4.878   2.628 -1.6100 -0.1587  0.8967
  375MOL    H6045688   3.573   4.794   2.769  0.6341 -1.6678  0.2321
  375MOL    H6145689   3.355   4.692   2.591 -0.9061 -0.2090  0.4041
  375MOL    C6245690   3.419   4.560   2.732  0.5410  0.5557  0.8108
  375MOL    C6345691   3.428   4.561   2.883 -0.5206  0.6930 -0.0845
  375MOL   Cl6445692   3.570   4.460   2.924 -0.1810  0.3639  0.1370
  375MOL    H6545693   3.502   4.505   2.688 -1.8509 -2.6534  0.0542
  375MOL    H6645694   3.333   4.500   2.701  2.2604 -1.2779 -0.5450
  375MOL    H6745695   3.455   4.659   2.924 -1.0899  1.5599 -1.7447
  375MOL    C6845696   3.305   4.508   2.955  0.6509  0.2029 -0.3024
  375MOL    C6945697   3.326   4.499   3.104  0.5458 -0.2028  0.9046
  375MOL   Cl7045698   3.376   4.336   3.147 -0.2082 -0.1746  0.0335
  375MOL    H7145699   3.282   4.409   2.917 -1.5622 -0.1495  1.7584
  375MOL    H7245700   3.220   4.575   2.935 -0.6608 -0.2689  3.2714
  375MOL    H7345701   3.409   4.562   3.136  0.6555  0.3878 -0.5205
  375MOL    C7445702   3.199   4.539   3.199 -0.7693 -0.0214  0.2738
  375MOL    C7545703   3.129   4.672   3.173  0.3984  0.8331  0.7003
  375MOL   Cl7645704   3.242   4.794   3.121 -0.1739 -0.2720  0.1802
  375MOL    H7745705   3.241   4.554   3.299 -2.0000 -0.8228  0.9290
  375MOL    H7845706   3.130   4.455   3.215 -0.4932 -0.2857  0.0698
  375MOL    H7945707   3.050   4.658   3.100  0.5327  0.5425  0.6107
  375MOL    C8045708   3.055   4.724   3.293  0.5582  0.3934 -0.0554
  375MOL    C8145709   2.987   4.855   3.293 -0.3010  0.2860 -0.8046
  375MOL   Cl8245710   2.941   4.884   3.463 -0.1610 -0.3256  0.3774
  375MOL    H8345711   3.123   4.724   3.378  1.0291  0.0013 -0.4262
  375MOL    H8445712   2.982   4.649   3.319 -2.4269  3.0839 -0.3816
  375MOL    H8545713   3.060   4.930   3.263  1.0739 -0.4587  0.5961
  375MOL    C8645714   2.857   4.856   3.211 -0.2247  0.3034  0.3971
  375MOL    C8745715   2.835   4.977   3.119  0.0491  0.0794  0.5364
  375MOL   Cl8845716   2.945   4.980   2.982  0.5324  0.4641  0.1315
  375MOL    H8945717   2.767   4.844   3.273  0.5447 -1.9639  1.1485
  375MOL    H9045718   2.855   4.763   3.154 -0.4149  1.0223 -0.7670
  375MOL    H9145719   2.738   4.962   3.071 -0.0421 -0.3618  0.8512
  375MOL    C9245720   2.835   5.118   3.188  0.4848 -0.0848 -0.1613
  375MOL    C9345721   2.772   5.240   3.108 -0.2557  0.4982  0.0915
  375MOL   Cl9445722   2.820   5.388   3.191  0.6423  0.2573 -0.2856
  375MOL    H9545723   2.932   5.154   3.221  1.0538 -1.1099 -0.6631
  375MOL    H9645724   2.772   5.094   3.274 -0.7743  1.6543 -0.5896
  375MOL    H9745725   2.827   5.246   3.014  1.8373 -4.4947  0.8295
  375MOL    C9845726   2.622   5.243   3.072  0.2762  0.1977 -0.0187
  375MOL    C9945727   2.590   5.293   2.927  0.5432 -0.3535  0.5044
  375MOL  Cl10045728   2.424   5.366   2.933  0.4643  0.0695 -0.3375
  375MOL   H10145729   2.575   5.304   3.149 -0.7381 -2.8595  1.8905
  375MOL   H10245730   2.587   5.141   3.091 -0.0787  0.7006  2.1503
  375MOL   H10345731   2.652   5.377   2.895 -1.6796  2.6005  3.5659
  375MOL   C10445732   2.602   5.191   2.813  0.5215 -0.2087  0.2432
  375MOL   C10545733   2.611   5.251   2.671  0.2167 -0.6934 -0.0074
  375MOL  Cl10645734   2.454   5.253   2.584 -0.5191  0.4449 -0.1670
  375MOL   H10745735   2.522   5.117   2.813  1.4293 -1.1995  0.8287
  375MOL   H10845736   2.694   5.135   2.832  0.2961 -0.3695  0.8839
  375MOL   H10945737   2.644   5.355   2.685  1.6972 -1.0045 -1.0401
  375MOL   C11045738   2.705   5.171   2.577  0.6016  0.0495  0.1496
  375MOL   C11145739   2.729   5.244   2.443  0.1202 -0.7861 -0.1902
  375MOL  Cl11245740   2.851   5.131   2.370  0.0103 -0.5005  0.0328
  375MOL   H11345741   2.662   5.072   2.563  2.4061 -1.0033  1.8362
  375MOL   H11445742   2.805   5.158   2.620  1.5153 -0.7945 -2.1401
  375MOL   H11545743   2.641   5.249   2.379 -2.2475 -0.2908  3.0233
  375MOL   C11645744   2.788   5.384   2.452 -0.2004  1.0836  0.3124
  375MOL   C11745745   2.819   5.446   2.316  0.4622  0.0876  0.1596
  375MOL  Cl11845746   2.834   5.626   2.342  0.3975  0.1396 -0.0295
  375MOL   H11945747   2.883   5.387   2.506 -0.1261  0.0068  0.2626
  375MOL   H12045748   2.715   5.451   2.497 -1.6353  1.2482 -2.1938
  375MOL   H12145749   2.916   5.414   2.278  0.8427 -0.8791  1.8860
  375MOL   H12245750   2.738   5.427   2.245  0.4704  4.1939 -1.0470
  376MOL     C145751   5.360   4.039   5.927 -0.4564  0.3859 -0.2537
  376MOL     C245752   5.291   4.062   6.066  0.4807 -0.2852 -0.2263
  376MOL    Cl345753   5.407   4.021   6.203 -0.0114 -0.0610  0.0884
  376MOL     H445754   5.273   4.037   5.862 -0.9307 -1.8730  0.4091
  376MOL     H545755   5.428   4.119   5.898  1.9919 -1.5324  0.0066
  376MOL     H645756   5.262   4.165   6.086  2.2838  0.0174  0.9225
  376MOL     H745757   5.413   3.944   5.928 -0.4491  0.3826  1.7232
  376MOL     C845758   5.166   3.968   6.078  0.5026  0.2807 -0.2018
  376MOL     C945759   5.064   4.012   6.194  0.2987  0.3351 -0.0166
  376MOL   Cl1045760   4.979   3.862   6.246  0.2587  0.3960 -0.2747
  376MOL    H1145761   5.206   3.868   6.098  0.7158  0.8253  2.2919
  376MOL    H1245762   5.111   3.955   5.985 -0.0161 -1.5140  0.3212
  376MOL    H1345763   5.108   4.060   6.281  0.4268 -2.4338  1.4982
  376MOL    C1445764   4.952   4.109   6.140 -0.8735  0.0359 -0.0631
  376MOL    C1545765   4.870   4.187   6.244 -0.1221 -0.0185  0.1540
  376MOL   Cl1645766   4.727   4.246   6.155  0.1778 -0.0962 -0.1182
  376MOL    H1745767   4.885   4.048   6.079  1.1576 -0.6563 -1.6817
  376MOL    H1845768   4.998   4.182   6.072 -1.2991  0.4450  0.0890
  376MOL    H1945769   4.844   4.117   6.324 -0.7837 -0.9653 -0.8769
  376MOL    C2045770   4.946   4.308   6.305  0.6666 -0.3366  0.0967
  376MOL    C2145771   4.861   4.405   6.383 -0.2404  0.2120 -0.0166
  376MOL   Cl2245772   4.789   4.522   6.266  0.2189 -0.0866 -0.0622
  376MOL    H2345773   5.000   4.349   6.219 -1.8345 -1.0849 -1.9120
  376MOL    H2445774   5.014   4.263   6.377  0.9932  1.2205  0.7688
  376MOL    H2545775   4.784   4.353   6.439 -0.2309  0.0251 -0.1784
  376MOL    C2645776   4.938   4.484   6.494 -0.4989 -0.6671  0.3163
  376MOL    C2745777   5.067   4.559   6.454  0.2334 -0.0418  0.1603
  376MOL   Cl2845778   5.209   4.453   6.464 -0.2558  0.1467  0.0785
  376MOL    H2945779   4.958   4.420   6.580 -2.3870 -1.2427  0.3514
  376MOL    H3045780   4.870   4.561   6.530 -0.0758  0.9709 -2.2003
  376MOL    H3145781   5.056   4.577   6.347 -0.7321 -2.2243 -0.1395
  376MOL    C3245782   5.093   4.680   6.533 -0.0361  0.4244  0.1388
  376MOL    C3345783   5.229   4.752   6.516  0.8606  0.3887  0.3697
  376MOL   Cl3445784   5.240   4.885   6.638 -0.0067  0.3903  0.1148
  376MOL    H3545785   5.089   4.651   6.637  2.2036  0.5334  0.2816
  376MOL    H3645786   5.010   4.749   6.514  0.2340  0.3461 -1.4150
  376MOL    H3745787   5.294   4.673   6.554 -2.0792 -0.7450  3.4109
  376MOL    C3845788   5.264   4.802   6.384 -0.0456  0.3036  0.1474
  376MOL    C3945789   5.411   4.844   6.358  0.1795  0.2611 -0.7965
  376MOL   Cl4045790   5.420   4.930   6.208 -0.0350 -0.0146 -0.1028
  376MOL    H4145791   5.203   4.884   6.346  0.1447  0.5143  0.2976
  376MOL    H4245792   5.240   4.713   6.326 -0.9404 -0.3830  1.5706
  376MOL    H4345793   5.437   4.916   6.435 -0.4894  0.7832 -1.0531
  376MOL    C4445794   5.513   4.728   6.344  0.4955 -0.5128 -0.9411
  376MOL    C4545795   5.665   4.760   6.347 -0.0800  0.5301  0.3127
  376MOL   Cl4645796   5.759   4.646   6.246  0.0476 -0.3362  0.0133
  376MOL    H4745797   5.497   4.667   6.255 -0.5760 -3.1214  0.9511
  376MOL    H4845798   5.497   4.648   6.416  1.2114 -0.1546 -0.3858
  376MOL    H4945799   5.679   4.859   6.304  0.7798 -0.4377 -1.7166
  376MOL    C5045800   5.725   4.743   6.493  0.5902 -0.6146 -0.1240
  376MOL    C5145801   5.672   4.845   6.600 -0.0953  0.7757 -0.1205
  376MOL   Cl5245802   5.699   5.012   6.552 -0.0773  0.1471 -0.0958
  376MOL    H5345803   5.834   4.742   6.491  0.6160 -1.2687  0.9880
  376MOL    H5445804   5.711   4.638   6.520  0.4883 -0.3696  0.8281
  376MOL    H5545805   5.563   4.844   6.609 -0.1463  3.3384 -0.0274
  376MOL    C5645806   5.732   4.811   6.737 -0.0244 -0.8370  0.2641
  376MOL    C5745807   5.667   4.878   6.861  0.1003 -0.2053 -0.5497
  376MOL   Cl5845808   5.771   4.881   7.006  0.1516 -0.4758  0.0863
  376MOL    H5945809   5.838   4.834   6.729 -0.4871  0.9583 -1.0541
  376MOL    H6045810   5.725   4.704   6.754 -0.1879 -1.1424 -1.6398
  376MOL    H6145811   5.668   4.985   6.838 -0.4116  0.4318  2.1156
  376MOL    C6245812   5.528   4.829   6.896 -0.5345 -0.1024 -0.1410
  376MOL    C6345813   5.443   4.927   6.988 -0.1950  0.1397  0.1632
  376MOL   Cl6445814   5.292   4.831   7.031  0.4265 -0.1153 -0.1706
  376MOL    H6545815   5.536   4.739   6.957 -1.5959  0.7459  1.2757
  376MOL    H6645816   5.472   4.818   6.803 -1.8227  1.1721  0.4613
  376MOL    H6745817   5.493   4.949   7.082  0.0765 -1.3702  0.3891
  376MOL    C6845818   5.395   5.055   6.932  0.2011  0.4221 -0.9204
  376MOL    C6945819   5.285   5.124   7.013  0.7198 -0.0757 -0.5247
  376MOL   Cl7045820   5.252   5.278   6.935 -0.2640  0.2312 -0.0516
  376MOL    H7145821   5.360   5.047   6.829 -1.7765  1.2507 -0.3363
  376MOL    H7245822   5.489   5.112   6.935  0.3174  0.1999  3.1199
  376MOL    H7345823   5.192   5.068   7.027  1.0842 -0.3162  0.9418
  376MOL    C7445824   5.322   5.153   7.163  0.3866 -0.1536  0.2032
  376MOL    C7545825   5.213   5.161   7.270  0.5262 -0.1837  0.3700
  376MOL   Cl7645826   5.124   5.001   7.284 -0.0224  0.3794  0.0220
  376MOL    H7745827   5.369   5.252   7.163 -1.3798  0.7026 -0.8090
  376MOL    H7845828   5.396   5.084   7.203 -1.7793 -2.5755  0.1830
  376MOL    H7945829   5.254   5.165   7.371 -1.4091  0.6396  1.1482
  376MOL    C8045830   5.110   5.284   7.249 -0.4560 -0.1585 -0.0456
  376MOL    C8145831   5.171   5.423   7.265  0.5110 -0.1567  0.0513
  376MOL   Cl8245832   5.211   5.445   7.444  0.0850  0.1936  0.2214
  376MOL    H8345833   5.016   5.283   7.305 -0.7380  1.1469 -0.4898
  376MOL    H8445834   5.073   5.279   7.147 -0.6812  1.6295 -0.0640
  376MOL    H8545835   5.263   5.425   7.207 -0.5765 -0.9246 -1.7654
  376MOL    C8645836   5.073   5.537   7.228 -0.0373 -0.2454  0.3223
  376MOL    C8745837   5.137   5.676   7.191  0.8099  0.0683  0.8620
  376MOL   Cl8845838   5.027   5.800   7.251  0.3002 -0.0832  0.2962
  376MOL    H8945839   4.992   5.554   7.299 -0.9697  3.6513 -1.5253
  376MOL    H9045840   5.032   5.518   7.129 -0.1608  1.6640 -0.0069
  376MOL    H9145841   5.233   5.667   7.243 -0.5104  1.4303  3.6448
  376MOL    C9245842   5.168   5.710   7.040  0.6607 -0.2440  0.0239
  376MOL    C9345843   5.230   5.842   7.003 -0.4544  0.5988  0.7420
  376MOL   Cl9445844   5.248   5.847   6.823 -0.3854 -0.3300 -0.3523
  376MOL    H9545845   5.073   5.703   6.986  0.2511  0.2636  0.6704
  376MOL    H9645846   5.235   5.626   7.024  1.3768 -0.3884  3.5143
  376MOL    H9745847   5.170   5.929   7.029 -0.7312  0.2606  1.2234
  376MOL    C9845848   5.363   5.869   7.068 -0.3279 -0.6992 -0.4533
  376MOL    C9945849   5.373   6.005   7.133 -0.2163 -0.4854  0.2759
  376MOL  Cl10045850   5.351   6.133   7.006  0.0820 -0.2796 -0.5336
  376MOL   H10145851   5.453   5.856   7.008 -0.9752  2.2714 -2.1805
  376MOL   H10245852   5.377   5.795   7.147  1.3268  0.5096  0.4123
  376MOL   H10345853   5.286   6.021   7.196 -1.2385  0.1377 -1.2663
  376MOL   C10445854   5.497   6.040   7.209 -0.0576  1.0691 -0.0971
  376MOL   C10545855   5.524   5.940   7.323 -0.7029  0.1021 -0.2484
  376MOL  Cl10645856   5.383   5.933   7.434  0.0811 -0.3097 -0.3381
  376MOL   H10745857   5.485   6.142   7.247  1.1513  0.4721  1.9587
  376MOL   H10845858   5.586   6.047   7.147  0.0133  2.4283  0.1282
  376MOL   H10945859   5.545   5.837   7.292 -4.3256 -0.9604  0.5933
  376MOL   C11045860   5.646   5.987   7.407 -0.0305  0.4707  0.3597
  376MOL   C11145861   5.738   5.894   7.494  0.1849  0.1029 -0.7562
  376MOL  Cl11245862   5.789   5.759   7.396 -0.5924 -0.1062  0.1650
  376MOL   H11345863   5.604   6.063   7.473  0.3267  1.2013 -0.2433
  376MOL   H11445864   5.710   6.051   7.346 -2.1249  3.2517  0.9771
  376MOL   H11545865   5.822   5.952   7.533 -0.0870 -0.8740  1.3096
  376MOL   C11645866   5.666   5.829   7.619 -0.6860 -0.4189  0.2316
  376MOL   C11745867   5.761   5.750   7.713  0.0527  0.3238 -0.0041
  376MOL  Cl11845868   5.679   5.720   7.870 -0.3922 -0.4063  0.0674
  376MOL   H11945869   5.574   5.780   7.585 -1.2668  1.0855 -0.4042
  376MOL   H12045870   5.626   5.910   7.678 -1.7281 -1.4880  1.0231
  376MOL   H12145871   5.788   5.651   7.678  0.5526 -0.0302  1.3362
  376MOL   H12245872   5.855   5.804   7.730 -0.2543  1.2039 -1.0754
  377MOL     C145873   7.360   6.541   8.457 -0.0150 -0.2375 -0.1816
  377MOL     C245874   7.369   6.410   0.023  0.3598  0.1657 -0.5889
  377MOL    Cl345875   7.225   6.308   8.513  0.2557  0.5483  0.0629
  377MOL     H445876   7.262   6.586   8.463 -0.5177 -1.6164  3.7886
  377MOL     H545877   7.436   6.618   8.473 -0.7016  0.8519 -2.0466
  377MOL     H645878   7.455   6.352   8.516 -0.0579 -0.9926  0.3537
  377MOL     H745879   7.384   6.522   8.353  0.9459  0.4096 -0.0820
  377MOL     C845880   7.380   6.452   0.173 -0.0187  0.4001 -0.1594
  377MOL     C945881   7.515   6.514   0.218  0.1574  0.5678 -0.3283
  377MOL   Cl1045882   7.635   6.382   0.241 -0.5290  0.4821 -0.2840
  377MOL    H1145883   7.360   6.371   0.243 -0.4952  0.4243 -0.2652
  377MOL    H1245884   7.299   6.520   0.198  0.0330  0.5760 -0.4738
  377MOL    H1345885   7.558   6.571   0.136  0.6778  1.1660  0.3493
  377MOL    C1445886   7.514   6.593   0.349  0.7286 -0.0091 -0.6636
  377MOL    C1545887   7.444   6.730   0.326  0.5585  0.3258 -0.3860
  377MOL   Cl1645888   7.542   6.821   0.206 -0.3342 -0.1298 -0.0076
  377MOL    H1745889   7.614   6.616   0.387  0.7800  1.4764 -1.6348
  377MOL    H1845890   7.476   6.530   0.429  1.8533  0.0022 -0.1002
  377MOL    H1945891   7.344   6.718   0.286  0.7529 -0.6454 -0.5982
  377MOL    C2045892   7.442   6.828   0.446 -0.4565  0.1822  0.2884
  377MOL    C2145893   7.368   6.783   0.571 -1.1564 -0.9605 -0.0342
  377MOL   Cl2245894   7.207   6.728   0.510  0.0683 -0.0293  0.0081
  377MOL    H2345895   7.401   6.923   0.412 -1.7655 -0.5344 -0.1889
  377MOL    H2445896   7.547   6.851   0.463 -0.2010 -1.3272  0.9053
  377MOL    H2545897   7.417   6.695   0.613 -0.4144 -1.0868 -1.1516
  377MOL    C2645898   7.347   6.899   0.674  0.1772 -0.3393  0.3649
  377MOL    C2745899   7.480   6.959   0.727  0.5301 -0.3734  0.4774
  377MOL   Cl2845900   7.569   6.823   0.797 -0.2838  0.0770  0.1306
  377MOL    H2945901   7.289   6.855   0.755  0.3995  2.8051  2.3206
  377MOL    H3045902   7.280   6.973   0.631 -0.9423 -2.5568 -1.7626
  377MOL    H3145903   7.539   6.999   0.644  2.9422 -2.8569  0.9165
  377MOL    C3245904   7.462   7.061   0.843 -0.4171  0.0419  0.1554
  377MOL    C3345905   7.387   7.192   0.816 -0.1775  0.5804 -0.2067
  377MOL   Cl3445906   7.476   7.283   0.695 -0.0197  0.0053  0.3417
  377MOL    H3545907   7.560   7.090   0.881  0.0971  0.6945 -1.6518
  377MOL    H3645908   7.422   7.012   0.932 -2.1620 -1.3514 -1.3483
  377MOL    H3745909   7.291   7.164   0.774 -1.1414  1.3322  1.4643
  377MOL    C3845910   7.359   7.282   0.934  0.3202 -0.1201  0.2906
  377MOL    C3945911   7.301   7.428   0.900 -0.3298  0.6171  0.2046
  377MOL   Cl4045912   7.315   7.521   1.053  0.1904 -0.1425 -0.0146
  377MOL    H4145913   7.459   7.296   0.975 -0.0801  3.1727  0.2581
  377MOL    H4245914   7.297   7.225   1.003 -0.2639 -0.8248 -0.8014
  377MOL    H4345915   7.371   7.477   0.833 -1.2834 -1.3710 -2.3542
  377MOL    C4445916   7.156   7.422   0.845  0.1963  0.1500  0.4394
  377MOL    C4545917   7.117   7.538   0.757 -0.1073  0.3067  0.5218
  377MOL   Cl4645918   6.942   7.544   0.735  0.2827 -0.1826  0.0018
  377MOL    H4745919   7.096   7.424   0.935  3.2807  3.9593  2.5865
  377MOL    H4845920   7.141   7.332   0.785  0.5922  0.1302  0.3651
  377MOL    H4945921   7.141   7.628   0.813  1.7782 -1.1072  2.1230
  377MOL    C5045922   7.184   7.531   0.617 -0.4207  0.8247  0.1438
  377MOL    C5145923   7.161   7.652   0.527  0.3031 -0.2918  0.4612
  377MOL   Cl5245924   7.203   7.619   0.352  0.1833 -0.3678  0.3610
  377MOL    H5345925   7.139   7.448   0.562 -1.2871  0.4964  1.3124
  377MOL    H5445926   7.288   7.498   0.625 -0.9860 -0.6577  1.6557
  377MOL    H5545927   7.054   7.669   0.518  0.2250 -1.4958 -1.0702
  377MOL    C5645928   7.230   7.782   0.570  0.1732 -0.1796 -0.6558
  377MOL    C5745929   7.382   7.781   0.571 -0.2945  0.1610 -0.2990
  377MOL   Cl5845930   7.450   7.702   0.711  0.4231  0.2172  0.1187
  377MOL    H5945931   7.187   7.824   0.662 -0.8595  1.5650 -1.8970
  377MOL    H6045932   7.208   7.865   0.503 -2.4283 -0.7991 -0.6310
  377MOL    H6145933   7.414   7.720   0.488  1.1775 -1.7811  1.6351
  377MOL    C6245934   7.445   7.929   0.573 -0.0786 -0.2142  0.1735
  377MOL    C6345935   7.467   8.009   0.447  0.3331 -0.2106 -0.0287
  377MOL   Cl6445936   7.568   7.903   0.352  0.6775  0.4030  0.3158
  377MOL    H6545937   7.546   7.932   0.616 -0.8233  0.0802  1.9549
  377MOL    H6645938   7.401   7.979   0.659  0.8775  0.5519  0.2291
  377MOL    H6745939   7.375   8.020   0.390 -0.4297  0.4433  1.2944
  377MOL    C6845940   7.537   8.146   0.463  0.5457 -0.3112 -0.2669
  377MOL    C6945941   7.547   8.250   0.346  0.9391  0.3975  0.6643
  377MOL   Cl7045942   7.672   8.203   0.232  0.0202 -0.1025  0.1262
  377MOL    H7145943   7.641   8.135   0.494  0.6981  1.0330 -0.2744
  377MOL    H7245944   7.495   8.196   0.551 -0.0497  0.3752 -0.9303
  377MOL    H7345945   7.456   8.266   0.289  1.3698 -1.1394 -0.4719
  377MOL    C7445946   7.585   8.391   0.409 -0.0501  0.1572 -0.2231
  377MOL    C7545947   7.608   8.504   0.305  0.1404 -0.2095 -0.1281
  377MOL   Cl7645948   7.465   0.003   0.206 -0.0349  0.1975 -0.1366
  377MOL    H7745949   7.671   8.374   0.474 -1.8680 -0.8799  1.9597
  377MOL    H7845950   7.498   8.422   0.467 -0.5968 -1.8620  0.0823
  377MOL    H7945951   7.615   0.072   0.361 -0.5237  0.6732 -1.5014
  377MOL    C8045952   7.741   8.511   0.222 -0.0564  0.0258 -0.2917
  377MOL    C8145953   7.873   8.518   0.292 -0.0982 -0.1963  0.2708
  377MOL   Cl8245954   7.879   0.115   0.416 -0.1261  0.3119  0.0883
  377MOL    H8345955   7.741   0.073   0.155  0.4856  0.6549  0.5212
  377MOL    H8445956   7.744   8.432   0.147 -3.5549 -0.7462  0.2895
  377MOL    H8545957   7.876   8.425   0.349 -0.6544 -0.0094  0.6056
  377MOL    C8645958   7.999   0.000   0.204  0.8436  0.3839  0.1946
  377MOL    C8745959   8.132   8.499   0.273 -0.6774  0.5819  0.1620
  377MOL   Cl8845960   8.261   0.017   0.157 -0.2210  0.0063  0.2152
  377MOL    H8945961   8.004   0.095   0.149 -1.1139  1.2770  1.5050
  377MOL    H9045962   7.990   8.453   0.123  0.3428 -2.8288  3.0398
  377MOL    H9145963   8.134   0.045   0.355  2.2894  1.4974 -0.6611
  377MOL    C9245964   8.160   8.355   0.329 -0.4927  0.0031 -0.5413
  377MOL    C9345965   8.160   8.243   0.217  0.4717  0.6727  0.3748
  377MOL   Cl9445966   7.989   8.184   0.198  0.1712  0.3021 -0.0806
  377MOL    H9545967   8.102   8.330   0.418 -0.6178  0.6871 -0.4298
  377MOL    H9645968   8.262   8.362   0.369 -0.8414  1.4638  0.0972
  377MOL    H9745969   8.188   8.287   0.122 -1.2054 -0.4477 -0.6606
  377MOL    C9845970   8.255   8.118   0.254 -0.6928 -0.3093 -0.2605
  377MOL    C9945971   8.233   8.024   0.369  0.9133 -0.0444  0.4468
  377MOL  Cl10045972   8.318   8.082   0.513 -0.2897  0.3426 -0.0594
  377MOL   H10145973   8.357   8.155   0.261 -0.4746 -1.2565  2.0433
  377MOL   H10245974   8.257   8.058   0.164 -0.1083 -1.6630  0.6447
  377MOL   H10345975   8.127   8.009   0.388  0.6281  0.5380 -0.5809
  377MOL   C10445976   8.283   7.879   0.338 -0.4744  0.3950  0.0833
  377MOL   C10545977   8.197   7.797   0.231 -0.6989 -1.0884 -0.1465
  377MOL  Cl10645978   8.058   7.723   0.311 -0.0898 -0.3184  0.5777
  377MOL   H10745979   8.313   7.819   0.424  0.7828 -1.0965 -1.3562
  377MOL   H10845980   8.383   7.894   0.298 -0.5772 -0.2473 -0.4302
  377MOL   H10945981   8.156   7.858   0.152 -1.1482  0.9989  1.6506
  377MOL   C11045982   8.268   7.674   0.166  0.4164  0.3141 -0.6191
  377MOL   C11145983   8.402   7.704   0.092 -0.6563  0.7514 -0.0417
  377MOL  Cl11245984   8.382   7.857   0.002 -0.2326  0.0844  0.0244
  377MOL   H11345985   8.195   7.631   0.097 -1.2964  1.7436  0.2739
  377MOL   H11445986   8.283   7.598   0.242 -3.2774  1.0969  0.9721
  377MOL   H11545987   8.475   7.711   0.173 -0.0718  0.5526 -0.5536
  377MOL   C11645988   8.450   7.596   8.520  0.1612  0.4222 -0.0327
  377MOL   C11745989   0.049   7.647   8.439 -0.3325  0.7371  0.1869
  377MOL  Cl11845990   0.168   7.728   0.015  0.0954  0.0167 -0.0258
  377MOL   H11945991   8.381   7.558   8.445  1.6855 -2.0551 -0.2339
  377MOL   H12045992   8.476   7.505   0.049  1.5104 -0.7301 -2.5057
  377MOL   H12145993   0.101   7.572   8.380  0.6891  1.4015  0.2265
  377MOL   H12245994   0.020   7.719   8.362  2.9953 -0.1906 -2.0235
  378MOL     C145995   3.814   2.338   3.061  0.0364  0.7785 -0.4989
  378MOL     C245996   3.916   2.441   3.011  1.0357  0.3711 -0.5319
  378MOL    Cl345997   3.911   2.433   2.827 -0.3031  0.1257 -0.1110
  378MOL     H445998   3.824   2.240   3.016 -0.8231  0.6077 -0.3300
  378MOL     H545999   3.817   2.330   3.170 -0.2089  0.4009 -0.5181
  378MOL     H646000   3.893   2.544   3.039  1.1468  0.5897 -1.2324
  378MOL     H746001   3.709   2.363   3.044 -0.2315  1.0416  1.4086
  378MOL     C846002   4.057   2.404   3.050  0.0357  0.6336  0.1159
  378MOL     C946003   4.087   2.445   3.196  0.3245  0.4847  0.2790
  378MOL   Cl1046004   4.044   2.612   3.229 -0.0822 -0.4015 -0.2916
  378MOL    H1146005   4.135   2.450   2.990 -0.1000 -2.2977 -2.4161
  378MOL    H1246006   4.063   2.295   3.048 -0.8401  0.5776  0.3205
  378MOL    H1346007   4.030   2.384   3.266  0.7471 -2.9295 -2.1948
  378MOL    C1446008   4.235   2.418   3.220  0.2022 -0.1652  0.7392
  378MOL    C1546009   4.274   2.439   3.376 -0.1037  0.2107  0.1870
  378MOL   Cl1646010   4.455   2.424   3.388 -0.1479 -0.3376 -0.0532
  378MOL    H1746011   4.298   2.486   3.162  0.1645  1.0766  2.1205
  378MOL    H1846012   4.261   2.324   3.171  1.8393  0.1256  1.0449
  378MOL    H1946013   4.257   2.545   3.396 -1.3198 -0.2994  1.9888
  378MOL    C2046014   4.197   2.349   3.468  0.1329  0.0101  0.0789
  378MOL    C2146015   4.229   2.374   3.612  0.1050 -0.9819 -0.1684
  378MOL   Cl2246016   4.120   2.259   3.706 -0.0661  0.0143  0.0869
  378MOL    H2346017   4.226   2.248   3.439  1.0651 -0.3381  2.0980
  378MOL    H2446018   4.091   2.364   3.449  0.5754  1.3406 -1.4387
  378MOL    H2546019   4.334   2.347   3.623  0.4653  0.4033 -0.0322
  378MOL    C2646020   4.193   2.513   3.655  0.0796  0.3196 -0.6372
  378MOL    C2746021   4.242   2.546   3.800  0.0571  0.4437  0.2272
  378MOL   Cl2846022   4.190   2.719   3.813 -0.0736  0.0807 -0.4562
  378MOL    H2946023   4.088   2.533   3.633 -0.0763  0.6970  0.3909
  378MOL    H3046024   4.247   2.588   3.597 -0.6681  1.5143  0.1682
  378MOL    H3146025   4.190   2.487   3.876  2.1887 -0.2205  1.1996
  378MOL    C3246026   4.395   2.525   3.824 -0.2844 -0.3409 -0.4629
  378MOL    C3346027   4.443   2.605   3.954  0.7424 -0.3907  0.2683
  378MOL   Cl3446028   4.623   2.606   3.934  0.1248 -0.1569 -0.1142
  378MOL    H3546029   4.444   2.559   3.733 -1.5886 -1.2817 -1.5311
  378MOL    H3646030   4.418   2.418   3.829  2.3421  0.2518  1.4446
  378MOL    H3746031   4.410   2.708   3.963 -1.8280 -1.1075 -0.6676
  378MOL    C3846032   4.420   2.535   4.087 -0.2357  0.2190  0.3602
  378MOL    C3946033   4.472   2.607   4.215 -0.0063 -0.1149 -0.1398
  378MOL   Cl4046034   4.494   2.485   4.345  0.1712  0.0653 -0.0722
  378MOL    H4146035   4.466   2.437   4.094  0.4473  0.3707 -1.6623
  378MOL    H4246036   4.314   2.521   4.109  0.0589 -2.1085  0.3777
  378MOL    H4346037   4.566   2.659   4.197 -0.6300  1.5294  1.2818
  378MOL    C4446038   4.366   2.702   4.282  0.0824  0.3186  0.1898
  378MOL    C4546039   4.345   2.828   4.214 -0.7285  0.2467  0.0735
  378MOL   Cl4646040   4.484   2.924   4.225 -0.6664 -0.3958 -0.3548
  378MOL    H4746041   4.403   2.727   4.381 -0.1317 -3.0004  1.1699
  378MOL    H4846042   4.271   2.649   4.292 -0.1908  0.7347 -0.1483
  378MOL    H4946043   4.321   2.829   4.108  0.1996  1.5108 -0.1338
  378MOL    C5046044   4.232   2.910   4.280 -0.4352 -0.0185 -0.2072
  378MOL    C5146045   4.146   3.020   4.208  0.4244 -0.7316  0.0421
  378MOL   Cl5246046   4.070   2.945   4.065  0.1644  0.0349 -0.0967
  378MOL    H5346047   4.265   2.938   4.380  2.1769  0.5066 -1.1911
  378MOL    H5446048   4.165   2.827   4.302 -1.7941  1.0029 -0.3844
  378MOL    H5546049   4.078   3.057   4.284 -0.0808 -0.7491 -0.3933
  378MOL    C5646050   4.225   3.138   4.168  0.1836 -0.2533 -0.6910
  378MOL    C5746051   4.289   3.215   4.281  0.1282  0.0265  0.4383
  378MOL   Cl5846052   4.166   3.285   4.378  0.2405  0.3278  0.2145
  378MOL    H5946053   4.174   3.209   4.103  0.4136  1.1338  0.6141
  378MOL    H6046054   4.308   3.093   4.112  1.3304 -1.0278  1.5810
  378MOL    H6146055   4.332   3.144   4.352 -1.4403  1.4263  2.8598
  378MOL    C6246056   4.377   3.316   4.224 -0.4538  0.8021  0.8785
  378MOL    C6346057   4.453   3.391   4.335  0.2282 -0.8558  0.1851
  378MOL   Cl6446058   4.521   3.540   4.264  0.3738 -0.1439 -0.0128
  378MOL    H6546059   4.305   3.381   4.174  0.3241  1.1136  0.1448
  378MOL    H6646060   4.444   3.272   4.150 -0.1798  0.4240  1.3483
  378MOL    H6746061   4.389   3.428   4.415 -0.1950  2.0017 -1.3837
  378MOL    C6846062   4.568   3.311   4.401  0.4896 -0.0700  0.1858
  378MOL    C6946063   4.646   3.385   4.506  0.3434  0.2277 -0.0077
  378MOL   Cl7046064   4.808   3.299   4.503 -0.2434 -0.0230 -0.1102
  378MOL    H7146065   4.621   3.260   4.321 -0.7620  0.1143 -0.7910
  378MOL    H7246066   4.523   3.229   4.457 -0.3892 -1.0794 -1.9345
  378MOL    H7346067   4.673   3.483   4.466  1.6715 -0.5345 -1.0329
  378MOL    C7446068   4.592   3.375   4.649 -0.4366 -0.1321 -0.7542
  378MOL    C7546069   4.461   3.455   4.690  0.5744 -0.0726 -0.0965
  378MOL   Cl7646070   4.509   3.626   4.698  0.2997 -0.2468 -0.0370
  378MOL    H7746071   4.665   3.413   4.720 -1.8352  0.3318  0.4586
  378MOL    H7846072   4.570   3.272   4.679  0.4434  0.6076  2.5418
  378MOL    H7946073   4.386   3.457   4.611 -0.1680 -0.3131  0.5943
  378MOL    C8046074   4.394   3.405   4.827  0.3098 -0.4602 -0.9819
  378MOL    C8146075   4.271   3.310   4.808 -0.1581  0.3118  0.5185
  378MOL   Cl8246076   4.323   3.163   4.717  0.1406 -0.2136  0.0110
  378MOL    H8346077   4.365   3.488   4.891  1.0963 -0.0174 -1.1879
  378MOL    H8446078   4.473   3.353   4.881 -0.2546 -0.7054 -0.3993
  378MOL    H8546079   4.243   3.276   4.908 -2.3712  2.3289  0.6318
  378MOL    C8646080   4.138   3.372   4.756  0.2632 -0.0729 -0.1806
  378MOL    C8746081   4.076   3.480   4.851  0.6326  0.2583  0.5525
  378MOL   Cl8846082   4.017   3.393   4.997  0.3158  0.4636  0.1264
  378MOL    H8946083   4.068   3.290   4.737  0.7432 -1.1275  2.4698
  378MOL    H9046084   4.161   3.412   4.657 -0.5922  0.2602 -0.2512
  378MOL    H9146085   4.159   3.539   4.889 -0.1895  1.4047  0.5829
  378MOL    C9246086   3.961   3.555   4.784  0.0468 -0.5660 -0.5876
  378MOL    C9346087   3.890   3.667   4.854  0.2480  0.1792 -0.2196
  378MOL   Cl9446088   3.750   3.726   4.760 -0.2477  0.3951  0.3603
  378MOL    H9546089   3.878   3.491   4.752  0.5064 -0.6230 -1.6918
  378MOL    H9646090   3.993   3.593   4.687 -0.7268  0.7682 -0.3320
  378MOL    H9746091   3.844   3.623   4.943  0.4737 -1.0183 -0.6901
  378MOL    C9846092   3.975   3.789   4.892 -0.3022  0.3644  0.3594
  378MOL    C9946093   4.043   3.784   5.028  0.0705  0.2305 -0.2362
  378MOL  Cl10046094   3.909   3.775   5.152  0.4223 -0.4483  0.0872
  378MOL   H10146095   3.902   3.870   4.884 -3.3765 -2.3150  0.3271
  378MOL   H10246096   4.045   3.801   4.809  0.7578  0.0703  1.2131
  378MOL   H10346097   4.101   3.693   5.044  1.1829  1.2141  1.5635
  378MOL   C10446098   4.135   3.904   5.052  0.5251  0.1939 -0.3533
  378MOL   C10546099   4.254   3.913   4.962 -0.3863 -0.0234  0.0576
  378MOL  Cl10646100   4.346   3.755   4.967 -0.2723 -0.3328 -0.0512
  378MOL   H10746101   4.171   3.898   5.154  0.9028 -1.1420 -0.5453
  378MOL   H10846102   4.081   3.999   5.048  0.0054  0.0621  2.5271
  378MOL   H10946103   4.221   3.918   4.858 -1.2414  0.5326  0.3468
  378MOL   C11046104   4.350   4.027   5.003 -0.0203 -0.0712  0.5039
  378MOL   C11146105   4.426   4.093   4.882 -0.1485 -0.6380 -0.1652
  378MOL  Cl11246106   4.549   3.985   4.814  0.2998 -0.0814  0.4934
  378MOL   H11346107   4.422   3.996   5.078 -0.2954  0.1796  0.8687
  378MOL   H11446108   4.295   4.109   5.049  0.7963  0.5864  0.3219
  378MOL   H11546109   4.357   4.119   4.802  0.2854 -2.2987 -1.0889
  378MOL   C11646110   4.505   4.207   4.930  0.5624  0.3392 -0.0542
  378MOL   C11746111   4.432   4.328   4.995  0.0265  0.2971 -0.1802
  378MOL  Cl11846112   4.283   4.385   4.913 -0.1556 -0.1848  0.5656
  378MOL   H11946113   4.541   4.262   4.843 -0.3828  0.7458 -0.1976
  378MOL   H12046114   4.592   4.179   4.989  1.7137  3.2288 -0.2691
  378MOL   H12146115   4.397   4.297   5.093 -0.7320 -1.2806 -0.9283
  378MOL   H12246116   4.501   4.412   5.005  2.3982 -1.5605 -0.4456
  379MOL     C146117   6.962   0.213   0.107  0.1934 -0.0432  0.2021
  379MOL     C246118   7.062   0.322   0.132  0.0149  0.1058  0.0353
  379MOL    Cl346119   6.989   0.468   0.201 -0.1945  0.1554 -0.0296
  379MOL     H446120   6.913   0.182   0.199  1.8178 -1.3112  0.6479
  379MOL     H546121   6.884   0.252   0.042  1.4808 -0.9144 -1.8935
  379MOL     H646122   7.133   0.289   0.208 -0.7811 -1.6518  0.0263
  379MOL     H746123   7.001   0.124   0.058 -1.1502  0.2806 -1.5042
  379MOL     C846124   7.140   0.357   0.008  0.4746 -0.4988 -0.3352
  379MOL     C946125   7.263   0.451   0.027  0.5155  0.4245 -0.3475
  379MOL   Cl1046126   7.312   0.526   8.403 -0.5565 -0.3369  0.0812
  379MOL    H1146127   7.073   0.413   8.468  0.7457 -2.4003 -2.3046
  379MOL    H1246128   7.168   0.274   8.468  2.5488  0.5022 -0.7866
  379MOL    H1346129   7.227   0.530   0.093  1.3747  1.2379 -0.8435
  379MOL    C1446130   7.380   0.373   0.080  0.5988  0.7388  0.5772
  379MOL    C1546131   7.509   0.448   0.118  0.0833  0.7808  0.3117
  379MOL   Cl1646132   7.617   0.315   0.150  0.2890 -0.5478  0.0307
  379MOL    H1746133   7.420   0.310   0.001  2.1863  0.4659  1.5703
  379MOL    H1846134   7.350   0.295   0.151 -0.6861  1.5520  0.9434
  379MOL    H1946135   7.549   0.482   0.022 -0.1935  1.1134  0.3098
  379MOL    C2046136   7.486   0.550   0.234 -0.3617  0.1472 -0.0648
  379MOL    C2146137   7.616   0.618   0.290  0.0034  0.2971  0.5319
  379MOL   Cl2246138   7.575   0.726   0.423 -0.3762 -0.0715  0.2595
  379MOL    H2346139   7.434   0.502   0.316  1.8335 -3.6005 -0.7416
  379MOL    H2446140   7.422   0.629   0.194 -2.4012 -1.1177  0.5944
  379MOL    H2546141   7.682   0.546   0.339 -0.2509  0.6659  1.4241
  379MOL    C2646142   7.683   0.700   0.179 -0.4603  0.0135  0.2952
  379MOL    C2746143   7.827   0.740   0.218 -0.0269 -0.4567 -0.1137
  379MOL   Cl2846144   7.850   0.901   0.149  0.1611 -0.3614 -0.2750
  379MOL    H2946145   7.622   0.791   0.177 -0.4878  0.0285  1.6567
  379MOL    H3046146   7.684   0.667   0.075  0.0295  1.6623 -0.2262
  379MOL    H3146147   7.830   0.754   0.326 -0.1490 -1.2207 -0.0098
  379MOL    C3246148   7.941   0.647   0.166  0.4581 -0.2433 -0.0316
  379MOL    C3346149   7.935   0.488   0.204 -0.2272  0.3928 -0.0173
  379MOL   Cl3446150   7.932   0.463   0.375  0.2835 -0.3708  0.1052
  379MOL    H3546151   8.034   0.688   0.204  0.9709 -1.6450  0.2408
  379MOL    H3646152   7.948   0.650   0.057 -1.3099  3.1555 -0.1265
  379MOL    H3746153   7.845   0.437   0.169 -1.3995 -0.1025  3.4498
  379MOL    C3846154   8.076   0.425   0.167 -0.1077 -0.1887 -0.0874
  379MOL    C3946155   8.102   0.413   0.019  0.9030 -0.0842  0.2311
  379MOL   Cl4046156   7.962   0.348   8.462 -0.2968  0.0155 -0.1318
  379MOL    H4146157   8.074   0.323   0.205 -0.8359 -1.4310 -3.3080
  379MOL    H4246158   8.158   0.466   0.226 -1.6201  0.1877  1.8573
  379MOL    H4346159   8.123   0.513   8.506 -0.6075 -0.1284 -0.7469
  379MOL    C4446160   8.230   0.328   0.001  0.7396  0.2499 -0.2626
  379MOL    C4546161   8.314   0.371   8.401 -0.3031  0.7604 -0.5866
  379MOL   Cl4646162   8.222   0.350   8.250  0.4200  0.3072  0.0837
  379MOL    H4746163   8.202   0.224   8.512 -3.3214  1.5305 -2.2969
  379MOL    H4846164   8.297   0.344   0.086  1.5726  0.5818 -0.9804
  379MOL    H4946165   8.349   0.473   8.410  2.2529 -0.2898  1.9939
  379MOL    C5046166   8.431   0.270   8.374  0.2680  0.3749 -0.8085
  379MOL    C5146167   0.013   0.237   8.482 -0.3123 -0.0172  0.1728
  379MOL   Cl5246168   0.110   0.386   8.495 -0.1876 -0.0376  0.7914
  379MOL    H5346169   8.482   0.308   8.285  1.5089  0.4146 -0.0897
  379MOL    H5446170   8.394   0.171   8.347 -0.3717  0.2527  0.4926
  379MOL    H5546171   8.496   0.207   0.052  0.2960  1.1785  0.8289
  379MOL    C5646172   0.107   0.126   8.434  0.2147  0.2281  0.4522
  379MOL    C5746173   0.224   0.095   0.010  0.9769  0.4696 -0.3514
  379MOL   Cl5846174   0.330   8.504   8.451 -0.0582  0.0121 -0.4202
  379MOL    H5946175   0.148   0.163   8.340 -1.5400  0.9135 -0.0770
  379MOL    H6046176   0.043   0.041   8.408  0.6209 -0.1403  0.6718
  379MOL    H6146177   0.286   0.184   0.024  2.0607 -0.4336  0.6265
  379MOL    C6246178   0.173   0.046   0.144 -0.2497  0.0067 -0.5025
  379MOL    C6346179   0.076   8.455   0.146 -0.1283 -0.4731 -0.3354
  379MOL   Cl6446180   0.026   8.471   0.317  0.1380 -0.2049 -0.1463
  379MOL    H6546181   0.128   0.137   0.182 -3.2833 -1.5554 -0.2620
  379MOL    H6646182   0.268   0.033   0.196 -1.7833  0.4230  2.4849
  379MOL    H6746183   8.509   8.472   0.091 -0.7616 -0.0491  0.8306
  379MOL    C6846184   0.143   8.322   0.122 -0.5220 -0.1036  0.4255
  379MOL    C6946185   0.122   8.249   8.518  0.3230 -0.6197  0.2435
  379MOL   Cl7046186   8.476   8.234   8.478 -0.0922  0.2231  0.3294
  379MOL    H7146187   0.099   8.252   0.192 -1.2924  1.4075  1.4830
  379MOL    H7246188   0.252   8.320   0.128 -0.5581 -0.0845  1.1440
  379MOL    H7346189   0.164   8.305   8.434 -1.4289 -0.0684 -0.2730
  379MOL    C7446190   0.186   8.114   8.500 -0.5116 -0.6958  0.5987
  379MOL    C7546191   0.338   8.117   8.491 -0.7068 -0.0883 -0.2487
  379MOL   Cl7646192   0.398   8.175   8.333 -0.2847  0.1791  0.1467
  379MOL    H7746193   0.153   8.071   8.406 -0.9433  0.3427  0.2670
  379MOL    H7846194   0.157   8.036   0.046 -0.1330  0.1129  1.6570
  379MOL    H7946195   0.366   8.186   0.045 -1.4901 -1.2304  1.0606
  379MOL    C8046196   0.412   7.983   8.524 -1.1040 -0.1057  0.1528
  379MOL    C8146197   0.564   7.995   8.514  0.4294  0.6159  0.1101
  379MOL   Cl8246198   0.630   7.826   8.514 -0.0044  0.2410 -0.3632
  379MOL    H8346199   0.371   7.911   8.452 -1.0553  0.0114  0.0067
  379MOL    H8446200   0.382   7.938   0.093 -1.4884 -1.9906 -0.8377
  379MOL    H8546201   0.594   8.045   8.422 -2.3336  1.4049 -0.4080
  379MOL    C8646202   0.633   8.077   0.098  0.4818 -0.3995 -0.0019
  379MOL    C8746203   0.595   8.037   0.243  0.0933 -0.7731  0.2626
  379MOL   Cl8846204   0.462   8.145   0.292  0.3550 -0.6448 -0.1193
  379MOL    H8946205   0.617   8.183   0.083 -2.7011 -1.1378 -2.2672
  379MOL    H9046206   0.736   8.060   0.069  0.6450  0.4484  0.0680
  379MOL    H9146207   0.560   7.934   0.257  0.1803 -1.0724 -1.5602
  379MOL    C9246208   0.707   8.068   0.345 -0.2849  0.1894 -0.5258
  379MOL    C9346209   0.834   7.978   0.340 -0.2838  0.3262  0.3823
  379MOL   Cl9446210   0.774   7.811   0.373 -0.1547  0.2872 -0.2710
  379MOL    H9546211   0.664   8.066   0.444  1.0760 -1.9609  0.0583
  379MOL    H9646212   0.742   8.170   0.324  1.6833 -0.2458  0.5576
  379MOL    H9746213   0.875   7.991   0.240  0.9128 -0.1358  0.8023
  379MOL    C9846214   0.935   8.017   0.453  0.2362 -1.4563  0.1434
  379MOL    C9946215   1.016   8.150   0.445  0.5159  0.1688 -0.0827
  379MOL  Cl10046216   1.144   8.126   0.319 -0.2671 -0.5797  0.0256
  379MOL   H10146217   1.009   7.939   0.470  1.4632 -0.7089 -1.6049
  379MOL   H10246218   0.881   8.014   0.548  1.1748 -0.6569  0.7181
  379MOL   H10346219   0.951   8.230   0.408  0.1097 -0.0580  0.1298
  379MOL   C10446220   1.072   8.184   0.589 -0.1825 -0.5955  0.1916
  379MOL   C10546221   1.137   8.323   0.598  0.4231 -0.3419 -0.2792
  379MOL  Cl10646222   1.236   8.329   0.747 -0.4887 -0.0721  0.2333
  379MOL   H10746223   1.147   8.111   0.619  0.9408  0.3231 -0.3452
  379MOL   H10846224   0.998   8.178   0.669  1.7582 -1.2224  1.9793
  379MOL   H10946225   1.204   8.337   0.513  2.8100 -1.5828  1.3795
  379MOL   C11046226   1.031   8.434   0.616  0.2648  0.0360  0.4981
  379MOL   C11146227   1.083   0.049   0.597 -0.2418 -0.6121  0.6854
  379MOL  Cl11246228   0.950   0.157   0.650 -0.1581 -0.2749  0.0561
  379MOL   H11346229   1.004   8.421   0.721  0.1977 -0.8184  0.3815
  379MOL   H11446230   0.943   8.412   0.555 -0.9595  1.5369  1.6653
  379MOL   H11546231   1.173   0.071   0.654  0.8537 -2.3252 -0.3445
  379MOL   C11646232   1.105   0.091   0.444  0.1023 -0.0302  0.2496
  379MOL   C11746233   1.174   0.224   0.423  0.2935  0.2709  0.8647
  379MOL  Cl11846234   1.193   0.236   0.249 -0.2605  0.0311 -0.2609
  379MOL   H11946235   1.014   0.069   0.388  1.3446 -0.7510 -1.5308
  379MOL   H12046236   1.176   0.017   0.406 -0.9677  0.1150 -2.1351
  379MOL   H12146237   1.106   0.306   0.443 -0.4939 -0.3665  0.8121
  379MOL   H12246238   1.278   0.236   0.454  0.3429 -0.8361  1.1471
  380MOL     C146239   4.567   2.733   6.151 -1.1903  0.1192 -0.0869
  380MOL     C246240   4.586   2.612   6.239 -0.0931 -0.2875  0.5184
  380MOL    Cl346241   4.470   2.634   6.373  0.4276  0.2085 -0.3599
  380MOL     H446242   4.465   2.760   6.124 -1.2233 -2.5047 -2.8658
  380MOL     H546243   4.594   2.831   6.189 -1.5434  0.2927 -0.2823
  380MOL     H646244   4.562   2.519   6.187 -0.0159 -0.7522  1.2973
  380MOL     H746245   4.613   2.722   6.053  0.3615 -0.3261  0.6757
  380MOL     C846246   4.728   2.610   6.299 -0.1783 -0.2095 -0.4118
  380MOL     C946247   4.840   2.584   6.200 -0.1643  0.0908  0.3333
  380MOL   Cl1046248   4.817   2.432   6.110 -0.0331  0.2435  0.3524
  380MOL    H1146249   4.729   2.535   6.378 -1.6188  0.7442  0.5113
  380MOL    H1246250   4.755   2.700   6.353  1.0264 -0.1946 -1.0305
  380MOL    H1346251   4.838   2.666   6.128 -1.5076 -0.3475 -0.1328
  380MOL    C1446252   4.981   2.569   6.262 -0.0394 -0.1348 -0.3007
  380MOL    C1546253   5.051   2.694   6.312 -0.3568 -0.1512  0.3476
  380MOL   Cl1646254   5.056   2.819   6.187  0.0787 -0.0522 -0.1389
  380MOL    H1746255   5.046   2.532   6.183  1.1471  0.6062  0.3095
  380MOL    H1846256   4.977   2.485   6.332 -0.2231  1.2936  1.4607
  380MOL    H1946257   4.989   2.740   6.389 -0.0511 -0.2014  0.6264
  380MOL    C2046258   5.200   2.669   6.354 -0.6196  0.2526  0.3572
  380MOL    C2146259   5.240   2.546   6.436 -0.0384  0.5684 -0.3565
  380MOL   Cl2246260   5.196   2.579   6.611  0.2951 -0.3113  0.2728
  380MOL    H2346261   5.248   2.761   6.389 -1.2433  0.7847 -0.1787
  380MOL    H2446262   5.240   2.641   6.257  0.5366  2.4500  0.1706
  380MOL    H2546263   5.183   2.458   6.411 -1.2674  0.8174  1.4390
  380MOL    C2646264   5.391   2.528   6.431 -0.1281 -0.1039 -0.0785
  380MOL    C2746265   5.445   2.485   6.296  0.0828  0.6778  0.7127
  380MOL   Cl2846266   5.382   2.316   6.252  0.0485  0.1629  0.1545
  380MOL    H2946267   5.417   2.450   6.503  0.9140  0.9247  0.6782
  380MOL    H3046268   5.438   2.616   6.475 -0.3727  1.0186 -1.9969
  380MOL    H3146269   5.416   2.551   6.215  0.1760  0.3002  0.3750
  380MOL    C3246270   5.602   2.486   6.300  0.0032  0.3971 -0.5456
  380MOL    C3346271   5.680   2.617   6.284 -0.6109  0.7171  0.4050
  380MOL   Cl3446272   5.626   2.694   6.130  0.3982 -0.0251 -0.1082
  380MOL    H3546273   5.636   2.428   6.214 -1.0642 -0.1676 -0.5984
  380MOL    H3646274   5.636   2.434   6.389 -0.3442  0.3272 -0.4547
  380MOL    H3746275   5.657   2.683   6.368 -1.7035  1.2755 -0.3155
  380MOL    C3846276   5.832   2.589   6.284 -0.4281 -0.3840  0.1796
  380MOL    C3946277   5.933   2.704   6.255  0.4148 -0.0262 -0.0175
  380MOL   Cl4046278   6.095   2.628   6.233  0.5692 -0.0427  0.0430
  380MOL    H4146279   5.844   2.526   6.195 -1.3270  0.3369 -0.4644
  380MOL    H4246280   5.875   2.529   6.364  1.0829  1.4920  0.8134
  380MOL    H4346281   5.916   2.762   6.165 -0.0011  2.2482  1.4942
  380MOL    C4446282   5.960   2.812   6.366 -0.4488 -0.1489 -0.5142
  380MOL    C4546283   5.863   2.931   6.376  0.1292 -0.2842  0.5460
  380MOL   Cl4646284   5.848   3.004   6.211 -0.2033  0.2346  0.2938
  380MOL    H4746285   6.054   2.863   6.348 -0.7957  0.3098 -1.0672
  380MOL    H4846286   5.973   2.774   6.467  1.9405  0.4947 -0.5492
  380MOL    H4946287   5.763   2.894   6.395 -0.5095 -0.1054 -2.2121
  380MOL    C5046288   5.905   3.039   6.481 -0.3377 -0.2571 -0.2153
  380MOL    C5146289   5.861   3.001   6.623  0.3687  0.5336  0.0004
  380MOL   Cl5246290   5.694   3.060   6.630 -0.1766  0.4005  0.3681
  380MOL    H5346291   5.877   3.139   6.448 -0.3533 -0.0857  0.3123
  380MOL    H5446292   6.013   3.043   6.470 -0.5132 -0.8894 -2.2997
  380MOL    H5546293   5.848   2.893   6.631 -0.0938  0.4592 -1.6482
  380MOL    C5646294   5.942   3.062   6.741  0.0754 -0.8720 -0.1377
  380MOL    C5746295   6.084   3.014   6.748 -0.1987 -0.6492  0.1311
  380MOL   Cl5846296   6.086   2.831   6.737 -0.5517  0.1711  0.0114
  380MOL    H5946297   5.886   3.033   6.830 -1.1785 -0.3440 -0.7510
  380MOL    H6046298   5.938   3.170   6.733 -0.8933 -0.9204 -0.2919
  380MOL    H6146299   6.143   3.059   6.668 -0.0594  0.2612  0.7385
  380MOL    C6246300   6.147   3.055   6.889 -0.0427  0.0949 -0.3657
  380MOL    C6346301   6.288   2.994   6.917 -0.7494  0.9757 -0.4770
  380MOL   Cl6446302   6.340   3.059   7.075 -0.4640  0.3040  0.0079
  380MOL    H6546303   6.082   3.022   6.970 -1.4200 -1.8681 -2.2059
  380MOL    H6646304   6.150   3.164   6.898  1.0352  0.0085  0.3138
  380MOL    H6746305   6.262   2.889   6.922  0.9122  0.5861  0.5852
  380MOL    C6846306   6.394   3.017   6.816  0.1366 -0.1201  0.6472
  380MOL    C6946307   6.538   2.968   6.858 -0.2541  0.2480  0.4266
  380MOL   Cl7046308   6.636   3.033   6.726 -0.0756 -0.2781 -0.4479
  380MOL    H7146309   6.401   3.123   6.792 -0.5105 -0.3096 -0.4082
  380MOL    H7246310   6.379   2.958   6.726  1.2417 -0.3387  0.5882
  380MOL    H7346311   6.578   3.016   6.947 -2.7766  0.1984  1.6213
  380MOL    C7446312   6.558   2.820   6.876 -0.1717  0.2022 -0.6638
  380MOL    C7546313   6.516   2.761   7.011  0.2667  0.8305 -0.5517
  380MOL   Cl7646314   6.642   2.808   7.125  0.1345 -0.0843 -0.1162
  380MOL    H7746315   6.659   2.799   6.839 -0.2603  1.8950 -1.8975
  380MOL    H7846316   6.502   2.771   6.796  0.7627  0.8942 -1.7716
  380MOL    H7946317   6.418   2.794   7.046  0.3572  1.4166 -0.8412
  380MOL    C8046318   6.524   2.608   6.999  0.4232 -0.0478 -0.5046
  380MOL    C8146319   6.405   2.552   6.915 -0.6299  0.1788  0.1247
  380MOL   Cl8246320   6.246   2.549   7.003  0.1135  0.2046 -0.4806
  380MOL    H8346321   6.528   2.553   7.094 -0.0202 -2.1519 -1.6730
  380MOL    H8446322   6.614   2.574   6.947  1.1423 -0.6745  1.0956
  380MOL    H8546323   6.389   2.616   6.828 -2.6672 -0.0321  0.3117
  380MOL    C8646324   6.435   2.411   6.870 -0.0763  0.2926  0.2226
  380MOL    C8746325   6.317   2.340   6.796  0.4386  0.5659  0.6630
  380MOL   Cl8846326   6.382   2.183   6.725 -0.0747  0.1970 -0.4513
  380MOL    H8946327   6.457   2.350   6.958  0.1982  1.6964  1.1350
  380MOL    H9046328   6.525   2.424   6.811 -0.7660  3.1981 -0.2410
  380MOL    H9146329   6.253   2.315   6.881  0.5392  0.3974  0.6883
  380MOL    C9246330   6.241   2.415   6.686  0.4007 -0.2136 -0.6051
  380MOL    C9346331   6.109   2.355   6.637  0.7280 -0.1920  0.0840
  380MOL   Cl9446332   6.001   2.331   6.783  0.0564 -0.1120 -0.3772
  380MOL    H9546333   6.308   2.430   6.602  1.1940 -0.7266 -0.0783
  380MOL    H9646334   6.233   2.519   6.717  1.2505 -0.6285  1.0870
  380MOL    H9746335   6.066   2.421   6.561 -1.1498 -0.7199  0.6661
  380MOL    C9846336   6.115   2.208   6.567  0.4104  0.3454 -0.6115
  380MOL    C9946337   6.197   2.215   6.443 -0.6034  0.1278  0.3024
  380MOL  Cl10046338   6.123   2.312   6.318  0.0402 -0.2855 -0.2530
  380MOL   H10146339   6.016   2.168   6.547  0.9948 -1.7231  0.5155
  380MOL   H10246340   6.147   2.133   6.640  1.1325 -2.4645 -3.6502
  380MOL   H10346341   6.296   2.257   6.462 -0.2688 -0.6783  0.3794
  380MOL   C10446342   6.249   2.076   6.381  0.0893 -0.4668 -0.7714
  380MOL   C10546343   6.137   2.000   6.303  0.8216  0.3836 -0.1056
  380MOL  Cl10646344   6.013   1.940   6.411 -0.0539 -0.0500 -0.0371
  380MOL   H10746345   6.305   2.016   6.453  1.6917  1.8873  0.0077
  380MOL   H10846346   6.324   2.105   6.308 -1.4716  1.3062 -1.7229
  380MOL   H10946347   6.096   2.070   6.230  1.6185 -1.3773 -2.3221
  380MOL   C11046348   6.196   1.880   6.223  0.4155 -0.1546  0.5204
  380MOL   C11146349   6.300   1.902   6.111 -0.2860 -0.4107  0.0970
  380MOL  Cl11246350   6.264   2.045   6.021  0.2193 -0.2615 -0.7422
  380MOL   H11346351   6.118   1.818   6.180  0.7388 -0.7024  0.7109
  380MOL   H11446352   6.234   1.814   6.301 -2.4001 -1.2387  1.0373
  380MOL   H11546353   6.394   1.929   6.159 -0.5205  0.5404  0.0311
  380MOL   C11646354   6.322   1.777   6.025  0.1330 -0.6685  0.3065
  380MOL   C11746355   6.438   1.773   5.926  0.2639 -0.3321  0.2502
  380MOL  Cl11846356   6.590   1.744   6.018 -0.2143 -0.2313 -0.1756
  380MOL   H11946357   6.225   1.754   5.981  0.2471  0.2970 -0.4941
  380MOL   H12046358   6.345   1.695   6.092 -0.2168 -1.2338 -0.2669
  380MOL   H12146359   6.415   1.696   5.852 -1.5008  1.1244 -0.7711
  380MOL   H12246360   6.445   1.869   5.875 -0.3242 -0.4436 -0.0518
  381MOL     C146361   1.056   4.561   6.331 -0.1188  0.1322 -0.1131
  381MOL     C246362   1.090   4.428   6.270 -0.1001 -0.5224  0.2086
  381MOL    Cl346363   0.978   4.316   6.356 -0.1773 -0.2632 -0.2323
  381MOL     H446364   1.100   4.648   6.282  0.5907  0.7177  1.5315
  381MOL     H546365   0.951   4.586   6.311  0.3307  1.2504 -1.1616
  381MOL     H646366   1.053   4.435   6.168 -1.9808  0.0810  0.9096
  381MOL     H746367   1.075   4.548   6.437  0.7443 -0.4826 -0.3462
  381MOL     C846368   1.242   4.398   6.282 -0.4590  0.1858 -0.0873
  381MOL     C946369   1.328   4.485   6.192  0.2479 -0.2872  0.3786
  381MOL   Cl1046370   1.265   4.488   6.028  0.1944 -0.1124  0.1356
  381MOL    H1146371   1.255   4.298   6.241 -0.8701  0.3958 -0.7440
  381MOL    H1246372   1.287   4.420   6.378  0.5118 -2.2773  0.0618
  381MOL    H1346373   1.315   4.589   6.224  0.2897 -0.1296 -0.1189
  381MOL    C1446374   1.473   4.434   6.189 -0.4248  1.0590  0.4457
  381MOL    C1546375   1.552   4.457   6.317  0.1084  0.3959  0.8621
  381MOL   Cl1646376   1.523   4.617   6.390 -0.0968  0.0377  0.3968
  381MOL    H1746377   1.538   4.479   6.114  0.0993 -1.6208 -0.8005
  381MOL    H1846378   1.474   4.328   6.161 -1.1787  2.0615 -3.6560
  381MOL    H1946379   1.522   4.383   6.391  0.6227  0.6317  1.3154
  381MOL    C2046380   1.700   4.443   6.307  0.5977 -0.2709  0.5740
  381MOL    C2146381   1.755   4.322   6.217 -0.9168 -0.5239  0.1712
  381MOL   Cl2246382   1.704   4.165   6.288  0.1797  0.0420 -0.1269
  381MOL    H2346383   1.752   4.439   6.403  0.7546  2.2130  0.6344
  381MOL    H2446384   1.752   4.529   6.264  0.1626  0.0793  0.7488
  381MOL    H2546385   1.724   4.335   6.113 -1.2881  1.0167  0.4494
  381MOL    C2646386   1.912   4.323   6.231 -0.0402  0.1796  0.2279
  381MOL    C2746387   1.988   4.442   6.162  0.1172  0.3365  0.2999
  381MOL   Cl2846388   1.962   4.454   5.985  0.0313  0.0927  0.0920
  381MOL    H2946389   1.943   4.227   6.189 -0.8347  0.0160  0.0168
  381MOL    H3046390   1.929   4.322   6.339  0.4814 -3.1357  0.1580
  381MOL    H3146391   1.954   4.537   6.203  1.4585  1.8168 -1.9203
  381MOL    C3246392   2.141   4.444   6.174 -0.2137  0.1410 -0.4752
  381MOL    C3346393   2.212   4.420   6.316  0.2890  0.2361  0.8215
  381MOL   Cl3446394   2.122   4.520   6.433 -0.1837 -0.5510 -0.2784
  381MOL    H3546395   2.168   4.542   6.136 -3.4978  0.3964 -2.2410
  381MOL    H3646396   2.175   4.373   6.099  1.6810  2.2571 -1.6645
  381MOL    H3746397   2.212   4.313   6.337 -2.5787  0.0839  0.1898
  381MOL    C3846398   2.364   4.452   6.318  0.4403  0.1986  0.3967
  381MOL    C3946399   2.437   4.467   6.442  0.6031 -0.1599 -0.0710
  381MOL   Cl4046400   2.599   4.537   6.389  0.3621 -0.0095 -0.1087
  381MOL    H4146401   2.373   4.553   6.278 -0.9024 -0.5233 -1.8080
  381MOL    H4246402   2.414   4.383   6.249 -0.0016 -0.2723  0.5408
  381MOL    H4346403   2.388   4.540   6.507 -1.4479 -1.3051 -0.2687
  381MOL    C4446404   2.463   4.341   6.524 -0.1521 -0.4029 -0.4123
  381MOL    C4546405   2.356   4.290   6.625  0.3682  0.4691 -0.2145
  381MOL   Cl4646406   2.371   4.390   6.772  0.4797 -0.3983  0.3256
  381MOL    H4746407   2.549   4.367   6.586 -0.2239 -0.2317 -0.3834
  381MOL    H4846408   2.499   4.271   6.450  1.2845  0.0649 -0.1696
  381MOL    H4946409   2.255   4.312   6.589  0.4953 -0.0291 -0.8771
  381MOL    C5046410   2.361   4.141   6.666 -1.1703  0.2388  0.0722
  381MOL    C5146411   2.310   4.042   6.562  0.1806  0.5522 -0.4556
  381MOL   Cl5246412   2.136   4.061   6.540 -0.1573 -0.4917  0.1928
  381MOL    H5346413   2.303   4.126   6.756  0.6516  0.4584  1.3075
  381MOL    H5446414   2.466   4.135   6.694 -1.3725 -0.4969  0.6719
  381MOL    H5546415   2.352   4.060   6.463  1.2269  0.2244 -0.0750
  381MOL    C5646416   2.327   3.898   6.597  0.2169  0.2368  0.1502
  381MOL    C5746417   2.471   3.850   6.579 -0.0060  0.0074  0.1247
  381MOL   Cl5846418   2.491   3.788   6.407  0.0758  0.4373 -0.2363
  381MOL    H5946419   2.266   3.827   6.541 -0.0614  1.0078 -0.5346
  381MOL    H6046420   2.284   3.876   6.694  0.4112  1.0102  0.4117
  381MOL    H6146421   2.543   3.930   6.592  0.0514  0.5841 -3.4003
  381MOL    C6246422   2.511   3.729   6.659 -0.3812  0.2141 -0.3041
  381MOL    C6346423   2.541   3.757   6.812  0.1467  0.1185  0.4599
  381MOL   Cl6446424   2.688   3.854   6.823 -0.2820 -0.0070  0.0280
  381MOL    H6546425   2.598   3.682   6.612 -0.5578 -0.5085  0.0828
  381MOL    H6646426   2.436   3.653   6.640  0.1586 -0.8381  1.6002
  381MOL    H6746427   2.464   3.813   6.866  0.6193 -0.8577  2.2017
  381MOL    C6846428   2.559   3.636   6.895  0.3432 -0.3595  0.3238
  381MOL    C6946429   2.425   3.563   6.931  0.4240  0.2154 -0.1435
  381MOL   Cl7046430   2.337   3.660   7.058  0.6908 -0.3297 -0.1163
  381MOL    H7146431   2.601   3.651   6.994 -0.3091  2.2216  0.2449
  381MOL    H7246432   2.621   3.570   6.834  1.4812 -0.2572  1.3471
  381MOL    H7346433   2.362   3.563   6.842 -1.8329  1.4608  1.4016
  381MOL    C7446434   2.434   3.420   6.986  0.1142  0.5209 -0.1421
  381MOL    C7546435   2.299   3.354   7.041  0.5228  0.2091  0.7910
  381MOL   Cl7646436   2.326   3.182   7.077  0.2116 -0.1952 -0.1402
  381MOL    H7746437   2.507   3.416   7.067 -0.4340  1.4591  0.4173
  381MOL    H7846438   2.475   3.358   6.906  0.8695  2.7587 -1.5296
  381MOL    H7946439   2.268   3.407   7.131 -2.3992  1.4191 -0.8584
  381MOL    C8046440   2.193   3.370   6.935  0.9637  0.3233  0.4668
  381MOL    C8146441   2.056   3.301   6.963  0.5039 -0.5420 -0.2372
  381MOL   Cl8246442   2.042   3.150   6.876 -0.3309 -0.1297 -0.2728
  381MOL    H8346443   2.237   3.346   6.838  2.0034  0.6773  0.8397
  381MOL    H8446444   2.159   3.473   6.937 -1.4367 -0.4230 -0.2122
  381MOL    H8546445   2.040   3.290   7.070  0.9656  0.6295 -0.0349
  381MOL    C8646446   1.939   3.394   6.915 -0.2967  0.4634 -0.4462
  381MOL    C8746447   1.908   3.514   7.007 -0.6205  0.7648 -0.2702
  381MOL   Cl8846448   1.824   3.443   7.146  0.3577  0.1591  0.0012
  381MOL    H8946449   1.842   3.344   6.916 -0.5769  1.0023  1.5725
  381MOL    H9046450   1.956   3.417   6.810 -0.1717 -2.2564 -1.0687
  381MOL    H9146451   1.999   3.553   7.053 -1.2483  1.5143  0.3440
  381MOL    C9246452   1.826   3.622   6.937 -0.5185 -0.0319  0.4429
  381MOL    C9346453   1.882   3.694   6.808 -0.6330  0.0324 -0.4378
  381MOL   Cl9446454   2.047   3.758   6.840 -0.2174  0.3999 -0.2579
  381MOL    H9546455   1.807   3.703   7.007 -3.1868  2.0442 -2.5352
  381MOL    H9646456   1.723   3.591   6.919 -0.9034  2.0581 -1.0717
  381MOL    H9746457   1.887   3.622   6.726 -2.2620 -1.9379  1.1102
  381MOL    C9846458   1.791   3.806   6.761  0.2505 -1.1435 -0.6491
  381MOL    C9946459   1.831   3.863   6.620 -0.6147 -0.4504 -0.2967
  381MOL  Cl10046460   1.748   4.023   6.617  0.4786 -0.0905 -0.0808
  381MOL   H10146461   1.790   3.882   6.840  0.0688 -1.3322 -0.4684
  381MOL   H10246462   1.686   3.778   6.766  0.0217  0.0565  2.1190
  381MOL   H10346463   1.939   3.874   6.622 -0.6361 -0.0751 -0.8499
  381MOL   C10446464   1.776   3.785   6.502 -0.4172 -0.2087 -1.1118
  381MOL   C10546465   1.851   3.816   6.373 -0.3079  0.0197 -1.1899
  381MOL  Cl10646466   1.737   3.792   6.241  0.2200  0.3497  0.0669
  381MOL   H10746467   1.671   3.812   6.491 -0.5340  0.4349  1.3202
  381MOL   H10846468   1.785   3.678   6.524  3.1375  0.0418 -1.0409
  381MOL   H10946469   1.875   3.922   6.377 -0.8265  0.1681 -1.9094
  381MOL   C11046470   1.981   3.728   6.350 -0.3546 -0.0387  0.5187
  381MOL   C11146471   2.069   3.750   6.225  0.0302  0.1813 -0.0832
  381MOL  Cl11246472   2.199   3.631   6.225  0.5602 -0.0453  0.3827
  381MOL   H11346473   1.949   3.623   6.351 -0.6971  0.0741  1.9541
  381MOL   H11446474   2.039   3.738   6.441 -1.6289 -0.2967  1.3697
  381MOL   H11546475   2.006   3.724   6.139 -0.9622 -1.1911  1.0423
  381MOL   C11646476   2.129   3.891   6.232  0.5573  0.3180  0.1053
  381MOL   C11746477   2.227   3.924   6.119  0.0807  0.2289 -0.2869
  381MOL  Cl11846478   2.274   4.095   6.127 -0.0125 -0.0016  0.1466
  381MOL   H11946479   2.176   3.893   6.330 -0.2853 -1.3907  0.5497
  381MOL   H12046480   2.047   3.963   6.233  0.1758 -0.1174 -0.1628
  381MOL   H12146481   2.318   3.864   6.127 -0.2791 -0.5645 -2.0096
  381MOL   H12246482   2.181   3.897   6.024 -0.0311 -0.3421 -0.0732
  382MOL     C146483   4.940   7.548   6.313 -0.0703  0.1851  0.3889
  382MOL     C246484   4.924   7.454   6.188 -0.7203 -0.6513 -0.4474
  382MOL    Cl346485   4.881   7.292   6.242  0.0800  0.0718  0.2037
  382MOL     H446486   5.020   7.507   6.375  2.1798  1.1714 -1.7325
  382MOL     H546487   4.971   7.649   6.286  0.9715 -0.3052 -0.3187
  382MOL     H646488   4.837   7.479   6.128 -1.6916 -0.8954  0.8479
  382MOL     H746489   4.856   7.546   6.382 -0.0226  1.4739  0.4971
  382MOL     C846490   5.057   7.448   6.102  0.3412  0.7163  0.2281
  382MOL     C946491   5.061   7.376   5.963  0.6143  0.5217  0.7401
  382MOL   Cl1046492   5.234   7.348   5.916  0.2254 -0.0467 -0.1631
  382MOL    H1146493   5.136   7.401   6.162  0.2831 -2.2130 -1.8920
  382MOL    H1246494   5.095   7.549   6.088  1.0775  0.4084  0.0121
  382MOL    H1346495   5.023   7.276   5.984  0.0421  0.5632 -0.0892
  382MOL    C1446496   4.984   7.450   5.861  1.0643 -0.0181 -0.4031
  382MOL    C1546497   5.010   7.412   5.718  0.0623 -0.2833  0.0073
  382MOL   Cl1646498   4.904   7.519   5.615  0.0648 -0.1301  0.0398
  382MOL    H1746499   5.004   7.557   5.857 -1.7348  0.5208 -0.7904
  382MOL    H1846500   4.877   7.436   5.874  1.2803 -2.3748 -0.7886
  382MOL    H1946501   5.115   7.432   5.699  0.3527 -2.1693 -0.4569
  382MOL    C2046502   4.963   7.269   5.687  0.6053  0.2857 -0.1970
  382MOL    C2146503   5.002   7.246   5.543 -0.7136 -0.1287  0.2645
  382MOL   Cl2246504   4.927   7.093   5.519 -0.2272  0.1098 -0.7494
  382MOL    H2346505   4.855   7.262   5.701  0.5172  0.9043 -0.5490
  382MOL    H2446506   5.015   7.200   5.753  1.3535 -0.0184 -1.0942
  382MOL    H2546507   4.951   7.320   5.482 -0.9158 -0.3599  0.1527
  382MOL    C2646508   5.161   7.224   5.511 -0.2414 -0.2746  0.5701
  382MOL    C2746509   5.190   7.187   5.361  0.1671  0.1063 -0.1714
  382MOL   Cl2846510   5.362   7.126   5.348 -0.0193  0.3359 -0.0680
  382MOL    H2946511   5.207   7.145   5.571 -0.1655 -0.2324  0.5676
  382MOL    H3046512   5.225   7.310   5.532 -1.5726  0.7336  0.5419
  382MOL    H3146513   5.126   7.107   5.325 -0.8690 -0.0784  2.0037
  382MOL    C3246514   5.174   7.317   5.268 -0.3407  0.0681  0.1077
  382MOL    C3346515   5.127   7.286   5.130  0.0100 -0.1283 -0.1920
  382MOL   Cl3446516   5.250   7.216   5.029 -0.3824  0.2055 -0.1626
  382MOL    H3546517   5.261   7.381   5.264  0.6355 -1.2524 -0.0532
  382MOL    H3646518   5.090   7.370   5.313 -0.1853 -2.0825  3.0100
  382MOL    H3746519   5.041   7.219   5.128 -2.2983  2.7918 -0.9402
  382MOL    C3846520   5.065   7.409   5.056  0.4572  0.0320 -0.6024
  382MOL    C3946521   4.913   7.433   5.087 -1.2989 -0.0457  0.1308
  382MOL   Cl4046522   4.815   7.300   5.025  0.2904 -0.4017 -0.2175
  382MOL    H4146523   5.053   7.394   4.948 -0.8011 -0.8910 -0.3459
  382MOL    H4246524   5.122   7.501   5.069  1.4875 -0.9234  1.8061
  382MOL    H4346525   4.902   7.429   5.196  0.5162 -1.2781  0.2869
  382MOL    C4446526   4.856   7.551   5.012 -0.6777  0.3239 -0.7466
  382MOL    C4546527   4.721   7.606   5.071  0.3053  0.7509  0.7127
  382MOL   Cl4646528   4.639   7.719   4.966 -0.3193  0.0984  0.1321
  382MOL    H4746529   4.847   7.535   4.904  0.7273 -0.4862 -0.7663
  382MOL    H4846530   4.921   7.638   5.019  0.0616 -0.2613 -0.2449
  382MOL    H4946531   4.652   7.527   5.100  0.4400  0.8075  1.1951
  382MOL    C5046532   4.736   7.666   5.210  0.3639  0.2456 -1.0396
  382MOL    C5146533   4.605   7.701   5.283  0.4757 -0.8121 -0.0082
  382MOL   Cl5246534   4.633   7.795   5.434  0.0812  0.0997  0.1055
  382MOL    H5346535   4.806   7.750   5.211 -0.3032  0.7994  0.4781
  382MOL    H5446536   4.780   7.595   5.280  1.2937  3.1459  1.4280
  382MOL    H5546537   4.560   7.780   5.223 -2.3550 -2.1649  0.2315
  382MOL    C5646538   4.499   7.584   5.312 -0.4619 -0.2484  0.7594
  382MOL    C5746539   4.550   7.484   5.423  0.0240  0.1704  0.1796
  382MOL   Cl5846540   4.664   7.376   5.342 -0.7993 -0.0394 -0.0747
  382MOL    H5946541   4.460   7.545   5.218 -1.8231 -0.0375  1.2378
  382MOL    H6046542   4.411   7.632   5.353 -0.3490 -0.2162  0.9650
  382MOL    H6146543   4.602   7.540   5.500 -0.4914 -0.7691  1.2250
  382MOL    C6246544   4.435   7.394   5.486 -0.5025 -0.1014  0.3681
  382MOL    C6346545   4.467   7.304   5.598 -0.3768 -0.2695 -0.1552
  382MOL   Cl6446546   4.316   7.222   5.639  0.2463  0.1317 -0.2990
  382MOL    H6546547   4.387   7.336   5.407 -1.3967  1.3910 -0.2243
  382MOL    H6646548   4.355   7.458   5.522  0.1818  0.3452  1.1180
  382MOL    H6746549   4.531   7.226   5.557  0.3725  0.4710 -0.4191
  382MOL    C6846550   4.530   7.376   5.721  0.1870 -0.9920 -0.5217
  382MOL    C6946551   4.547   7.299   5.852  0.6230  0.0591  0.0300
  382MOL   Cl7046552   4.650   7.403   5.964 -0.2140 -0.1434  0.0085
  382MOL    H7146553   4.464   7.463   5.725 -3.0016 -3.2993 -0.9361
  382MOL    H7246554   4.632   7.409   5.702 -1.3538  3.5729 -1.5414
  382MOL    H7346555   4.448   7.302   5.898 -0.5639  0.8052 -2.4927
  382MOL    C7446556   4.609   7.159   5.843 -0.0025  0.4932 -0.4560
  382MOL    C7546557   4.598   7.087   5.980  0.0491  0.1206 -0.3092
  382MOL   Cl7646558   4.734   6.971   5.980 -0.0540  0.1658 -0.0189
  382MOL    H7746559   4.716   7.166   5.820 -0.0525  0.1132 -0.8112
  382MOL    H7846560   4.564   7.090   5.771 -0.4783 -0.6627  0.9105
  382MOL    H7946561   4.617   7.152   6.065  1.2644  0.0292 -0.5073
  382MOL    C8046562   4.472   7.005   6.015 -0.0077  0.3139  0.6085
  382MOL    C8146563   4.426   7.008   6.160 -0.2475  0.6051  0.0274
  382MOL   Cl8246564   4.362   7.170   6.181 -0.0204  0.2279  0.0174
  382MOL    H8346565   4.493   6.901   5.988  0.7858 -0.0598  2.6121
  382MOL    H8446566   4.402   7.037   5.937  2.5980  0.5809 -1.6952
  382MOL    H8546567   4.338   6.945   6.152 -0.1656  0.4194  0.5151
  382MOL    C8646568   4.518   6.961   6.269 -0.3695  0.2359 -0.1534
  382MOL    C8746569   4.562   6.812   6.258  0.0758 -0.0787 -0.3778
  382MOL   Cl8846570   4.426   6.702   6.237 -0.4953 -0.3815 -0.2392
  382MOL    H8946571   4.469   6.966   6.366  0.5408  3.2517  0.2163
  382MOL    H9046572   4.601   7.031   6.264 -0.6519  0.5630 -0.2924
  382MOL    H9146573   4.622   6.809   6.167  1.2737  1.1228  0.3398
  382MOL    C9246574   4.653   6.772   6.371 -0.3933 -0.2440 -0.2829
  382MOL    C9346575   4.788   6.848   6.383 -0.1962 -0.4751  0.2056
  382MOL   Cl9446576   4.879   6.803   6.238  0.2904  0.4248  0.0444
  382MOL    H9546577   4.661   6.664   6.379 -3.4713 -0.3980  1.3106
  382MOL    H9646578   4.601   6.793   6.464 -0.6363 -0.9125 -0.2690
  382MOL    H9746579   4.761   6.953   6.378  1.4343 -0.0176  0.7554
  382MOL    C9846580   4.851   6.800   6.518 -0.4404 -0.2820  0.3812
  382MOL    C9946581   4.990   6.862   6.553 -0.3978  0.4456 -0.3524
  382MOL  Cl10046582   5.026   6.838   6.730 -0.1154 -0.2691  0.1653
  382MOL   H10146583   4.849   6.691   6.519 -0.9730 -0.2780  2.2071
  382MOL   H10246584   4.784   6.829   6.599 -0.2596  1.3551 -0.0375
  382MOL   H10346585   5.065   6.801   6.502 -0.6722 -0.1001 -0.1177
  382MOL   C10446586   5.008   7.009   6.519  0.3726  0.0894  0.3881
  382MOL   C10546587   5.131   7.094   6.566 -0.0445 -0.1992  0.3313
  382MOL  Cl10646588   5.095   7.162   6.730 -0.5498 -0.0466  0.2095
  382MOL   H10746589   4.922   7.062   6.559 -0.1550 -1.1640  0.9514
  382MOL   H10846590   5.014   7.008   6.410  1.0717  0.2477  0.4281
  382MOL   H10946591   5.213   7.026   6.586  0.1940  0.0925  0.3444
  382MOL   C11046592   5.174   7.220   6.476 -0.5766  1.3167 -0.4676
  382MOL   C11146593   5.290   7.313   6.520 -0.2955  0.6160 -0.2793
  382MOL  Cl11246594   5.342   7.399   6.374 -0.0756 -0.0719 -0.2759
  382MOL   H11346595   5.091   7.289   6.458 -2.1431 -0.4618 -0.2569
  382MOL   H11446596   5.213   7.179   6.383  3.1262  0.8915  1.1799
  382MOL   H11546597   5.254   7.381   6.598 -0.4628  1.2885 -0.9428
  382MOL   C11646598   5.415   7.231   6.566  0.9390 -0.0694  0.0321
  382MOL   C11746599   5.520   7.329   6.621 -0.1036 -0.1174 -0.9685
  382MOL  Cl11846600   5.455   7.409   6.766 -0.0415 -0.3419 -0.3365
  382MOL   H11946601   5.450   7.171   6.482 -0.1322 -2.0573  0.9857
  382MOL   H12046602   5.386   7.153   6.636 -0.2021  1.3053  1.0991
  382MOL   H12146603   5.604   7.268   6.654 -0.2786  0.1545  0.0000
  382MOL   H12246604   5.554   7.399   6.545 -0.9182 -0.8218 -1.9844
  383MOL     C146605   3.264   3.476   4.070  0.5904 -0.7344 -0.0645
  383MOL     C246606   3.359   3.566   4.145 -0.3637  0.2928  0.0437
  383MOL    Cl346607   3.517   3.528   4.075  0.0462 -0.1565  0.2084
  383MOL     H446608   3.158   3.483   4.093 -0.2019 -1.5401 -3.3069
  383MOL     H546609   3.274   3.484   3.962 -1.2950 -0.1865 -0.2108
  383MOL     H646610   3.337   3.669   4.115  2.1128  0.6100 -0.8038
  383MOL     H746611   3.271   3.367   4.072 -0.5149 -0.8134  0.0052
  383MOL     C846612   3.380   3.545   4.297  0.0251  0.5745  0.2711
  383MOL     C946613   3.488   3.639   4.369  0.0125 -0.4870  0.0683
  383MOL   Cl1046614   3.496   3.576   4.538  0.4139  0.1742  0.2448
  383MOL    H1146615   3.419   3.444   4.309 -0.4392 -0.0055 -2.7729
  383MOL    H1246616   3.288   3.548   4.356 -0.8001 -0.8533 -0.8998
  383MOL    H1346617   3.587   3.633   4.325  0.5430 -1.4284  1.3366
  383MOL    C1446618   3.456   3.787   4.355 -0.0272 -0.2850 -0.0875
  383MOL    C1546619   3.546   3.887   4.425  0.6645  0.2562  0.6967
  383MOL   Cl1646620   3.462   4.043   4.404 -0.1377  0.1033 -0.0415
  383MOL    H1746621   3.351   3.798   4.382  0.9640  1.1351  3.3445
  383MOL    H1846622   3.464   3.813   4.249  3.0676  1.3717  0.5195
  383MOL    H1946623   3.542   3.870   4.533 -1.8708  0.3661  0.6439
  383MOL    C2046624   3.692   3.897   4.366  0.2914  0.0724  0.1184
  383MOL    C2146625   3.768   4.017   4.413 -0.4512  0.5416  0.1062
  383MOL   Cl2246626   3.889   4.062   4.293  0.2788  0.2516 -0.2039
  383MOL    H2346627   3.691   3.900   4.257  1.2858 -0.8633  0.0695
  383MOL    H2446628   3.752   3.811   4.397  0.9962  0.7858  0.7506
  383MOL    H2546629   3.708   4.108   4.418 -1.6086 -0.3378  3.9505
  383MOL    C2646630   3.824   4.014   4.552 -0.1307 -0.0690  0.5680
  383MOL    C2746631   3.910   4.133   4.594  0.5410  0.6071 -0.1720
  383MOL   Cl2846632   4.015   4.086   4.732  0.1984 -0.1652  0.1503
  383MOL    H2946633   3.883   3.924   4.566  0.5277  0.0349 -1.3235
  383MOL    H3046634   3.746   4.011   4.627 -1.1339 -0.7799 -0.4858
  383MOL    H3146635   3.971   4.160   4.507 -1.4722  0.6862 -1.6139
  383MOL    C3246636   3.831   4.261   4.630 -0.0061 -0.5779  0.4272
  383MOL    C3346637   3.919   4.387   4.618 -0.2144  0.4726 -0.1888
  383MOL   Cl3446638   3.822   4.506   4.699 -0.0898  0.2378 -0.0755
  383MOL    H3546639   3.802   4.242   4.734  0.2643  3.1358  1.2614
  383MOL    H3646640   3.737   4.259   4.575  0.1627 -2.9127  0.1912
  383MOL    H3746641   4.006   4.369   4.682 -1.2079  0.1430  1.0988
  383MOL    C3846642   3.968   4.433   4.474 -0.5883 -0.4974 -0.4724
  383MOL    C3946643   3.881   4.495   4.370  0.1549 -0.4197  0.2070
  383MOL   Cl4046644   3.758   4.377   4.314 -0.7230  0.1549  0.0081
  383MOL    H4146645   4.026   4.355   4.424 -1.5697 -0.2683 -1.9975
  383MOL    H4246646   4.048   4.502   4.502 -1.2862 -0.9107  2.6985
  383MOL    H4346647   3.825   4.580   4.409  1.7877 -0.3010  2.4118
  383MOL    C4446648   3.957   4.538   4.244  0.0617  0.1137 -0.6505
  383MOL    C4546649   3.900   4.662   4.170 -0.6309 -0.0384 -0.6357
  383MOL   Cl4646650   3.930   4.642   3.991 -0.0295  0.1401 -0.0609
  383MOL    H4746651   3.965   4.469   4.160  2.6509 -0.8979  0.3688
  383MOL    H4846652   4.058   4.557   4.282  0.3779 -0.5671 -1.1288
  383MOL    H4946653   3.793   4.680   4.180 -0.5919  0.1050 -0.4739
  383MOL    C5046654   3.970   4.803   4.211  0.3608  0.2408 -0.3935
  383MOL    C5146655   3.926   4.862   4.347  0.3041 -0.5301 -0.0410
  383MOL   Cl5246656   3.757   4.892   4.336 -0.2827  0.0739  0.2474
  383MOL    H5346657   3.935   4.879   4.141 -2.4539 -0.3924  0.2311
  383MOL    H5446658   4.076   4.798   4.189  0.1776 -0.3354 -1.1710
  383MOL    H5546659   3.939   4.789   4.426 -2.1037 -3.7384 -2.4506
  383MOL    C5646660   4.003   4.990   4.376 -0.3935 -0.4542 -0.1029
  383MOL    C5746661   3.983   5.048   4.512  0.1966  0.6214  0.9793
  383MOL   Cl5846662   4.096   5.192   4.527  0.0120 -0.0368 -0.4168
  383MOL    H5946663   3.981   5.065   4.300  1.5266  2.4546  2.0779
  383MOL    H6046664   4.109   4.972   4.357 -0.9009 -1.1897 -2.3165
  383MOL    H6146665   3.879   5.078   4.507 -0.0069 -0.4609 -2.3673
  383MOL    C6246666   3.996   4.957   4.635  0.3343  0.1022  0.1962
  383MOL    C6346667   4.140   4.908   4.663  0.1101 -0.8448 -0.7086
  383MOL   Cl6446668   4.183   4.771   4.565  0.1225 -0.1276 -0.1769
  383MOL    H6546669   3.926   4.874   4.628  0.1057  0.1210  2.0802
  383MOL    H6646670   3.966   5.018   4.720  0.3629 -0.9244  0.9417
  383MOL    H6746671   4.208   4.987   4.632  0.1069 -1.0148 -1.1517
  383MOL    C6846672   4.161   4.863   4.805  0.5480  0.1602 -0.6540
  383MOL    C6946673   4.303   4.795   4.832 -0.8785  0.0690  0.1923
  383MOL   Cl7046674   4.304   4.737   4.996  0.1929 -0.4771 -0.2336
  383MOL    H7146675   4.083   4.792   4.832 -1.7750  2.2747 -1.6013
  383MOL    H7246676   4.157   4.940   4.882  2.5262  0.0803 -0.4411
  383MOL    H7346677   4.314   4.707   4.769  0.0724 -1.1775  2.0691
  383MOL    C7446678   4.408   4.900   4.823  0.1313  0.0568 -0.7450
  383MOL    C7546679   4.557   4.849   4.836 -1.1263 -0.7486  0.0321
  383MOL   Cl7646680   4.666   4.994   4.852  0.3914  0.0666 -0.2151
  383MOL    H7746681   4.378   4.977   4.893  1.7719 -0.1465  0.1943
  383MOL    H7846682   4.399   4.956   4.730  2.9881  1.9826  0.1062
  383MOL    H7946683   4.577   4.785   4.922  0.2257 -0.2221  0.1135
  383MOL    C8046684   4.608   4.780   4.712 -0.0134  0.3576  0.3695
  383MOL    C8146685   4.625   4.625   4.724  0.0634  0.0088  0.0621
  383MOL   Cl8246686   4.764   4.605   4.829 -0.0663 -0.0638  0.1736
  383MOL    H8346687   4.702   4.823   4.678  1.5639 -3.1995 -0.0588
  383MOL    H8446688   4.549   4.803   4.623 -1.9198 -2.6264  0.8033
  383MOL    H8546689   4.539   4.582   4.775 -0.8713  1.0904 -0.5763
  383MOL    C8646690   4.647   4.552   4.588  0.9530 -0.3293 -0.4050
  383MOL    C8746691   4.514   4.530   4.516 -0.3191  0.2610  0.2117
  383MOL   Cl8846692   4.429   4.399   4.599 -0.3411  0.0889 -0.4436
  383MOL    H8946693   4.711   4.464   4.591 -0.1670 -1.1130  0.8511
  383MOL    H9046694   4.716   4.613   4.530 -0.8110  1.7344 -0.4122
  383MOL    H9146695   4.453   4.620   4.518  1.8520  1.8863 -2.8168
  383MOL    C9246696   4.530   4.499   4.363 -0.1570  0.4715 -0.1317
  383MOL    C9346697   4.542   4.624   4.278  0.5778  0.4095  0.3502
  383MOL   Cl9446698   4.375   4.691   4.241 -0.4526  0.6660  0.1445
  383MOL    H9546699   4.449   4.439   4.322 -0.5601  0.7934  0.1845
  383MOL    H9646700   4.617   4.434   4.359  1.0469  2.0704 -0.3988
  383MOL    H9746701   4.581   4.704   4.341  0.7928  1.1197 -0.6776
  383MOL    C9846702   4.626   4.609   4.149 -0.7291 -0.2158 -0.3228
  383MOL    C9946703   4.669   4.742   4.071  1.0482 -0.0454 -0.0332
  383MOL  Cl10046704   4.738   4.692   3.911 -0.1444 -0.2236  0.0510
  383MOL   H10146705   4.569   4.543   4.083 -0.3801 -0.3372 -0.5051
  383MOL   H10246706   4.715   4.552   4.174 -0.2863  0.4946 -0.2733
  383MOL   H10346707   4.585   4.806   4.043  0.1377 -1.5357 -0.7881
  383MOL   C10446708   4.763   4.839   4.147  0.0473 -0.1940  0.0240
  383MOL   C10546709   4.903   4.795   4.198 -0.0525  0.0199 -0.0553
  383MOL  Cl10646710   4.883   4.690   4.343 -0.1867 -0.3668  0.2391
  383MOL   H10746711   4.714   4.893   4.228  0.9461 -1.3791  1.3865
  383MOL   H10846712   4.769   4.926   4.082 -1.5845  0.2701  0.4627
  383MOL   H10946713   4.951   4.726   4.128 -1.1753 -0.7752 -0.0592
  383MOL   C11046714   5.003   4.911   4.219  0.4003  0.5883 -0.2290
  383MOL   C11146715   5.050   4.995   4.094  0.6619  0.4047 -0.2197
  383MOL  Cl11246716   5.118   4.885   3.977 -0.2682 -0.3738 -0.3011
  383MOL   H11346717   5.099   4.878   4.258 -0.8562 -0.5160  2.0308
  383MOL   H11446718   4.975   4.984   4.295  1.3674  1.6666 -0.8923
  383MOL   H11546719   4.961   5.044   4.055 -0.2306 -0.6536  0.4452
  383MOL   C11646720   5.146   5.112   4.131  0.3077  0.0783 -0.4608
  383MOL   C11746721   5.180   5.187   3.997  0.0779 -0.3674 -0.4311
  383MOL  Cl11846722   5.261   5.338   4.042 -0.0130  0.0785  0.1595
  383MOL   H11946723   5.231   5.072   4.186 -2.3185 -1.1981  2.8409
  383MOL   H12046724   5.102   5.191   4.191 -1.8612 -1.7164  0.3928
  383MOL   H12146725   5.256   5.130   3.944  0.2997  0.9625 -1.5594
  383MOL   H12246726   5.100   5.215   3.929 -0.2020  1.4768  0.6203
  384MOL     C146727   3.930   4.055   1.354  1.1027  0.4825  0.2948
  384MOL     C246728   3.993   3.919   1.301  0.2333  0.3674 -0.1455
  384MOL    Cl346729   4.162   3.949   1.250 -0.2583  0.0583 -0.4016
  384MOL     H446730   3.935   4.139   1.285 -0.4075  0.4044  0.0719
  384MOL     H546731   3.826   4.028   1.374  1.6935 -2.1511  0.0038
  384MOL     H646732   4.002   3.838   1.373 -1.4999  0.9741  0.7892
  384MOL     H746733   3.979   4.093   1.443  0.5300  1.0545  0.3675
  384MOL     C846734   3.919   3.876   1.174  0.0985  0.3004 -1.0465
  384MOL     C946735   3.789   3.799   1.204  0.6347 -0.4978  0.4351
  384MOL   Cl1046736   3.801   3.660   1.316  0.0248  0.1073  0.5115
  384MOL    H1146737   3.979   3.803   1.119 -0.2237  0.1653 -1.2219
  384MOL    H1246738   3.907   3.966   1.113  0.4472  3.0891  2.8468
  384MOL    H1346739   3.721   3.872   1.249 -0.0289 -0.7951 -0.0691
  384MOL    C1446740   3.724   3.750   1.075 -0.1690  0.4512  0.0547
  384MOL    C1546741   3.668   3.865   0.988 -0.0662  0.3836  0.1896
  384MOL   Cl1646742   3.539   3.945   1.075 -0.0701 -0.1027  0.1242
  384MOL    H1746743   3.635   3.698   1.110 -0.7689  0.3369 -1.6120
  384MOL    H1846744   3.782   3.672   1.025 -1.1702  0.5736 -1.3419
  384MOL    H1946745   3.749   3.936   0.968 -0.3585  0.6453 -0.0760
  384MOL    C2046746   3.612   3.808   0.861 -0.3014  0.3698  0.7977
  384MOL    C2146747   3.577   3.905   0.747 -1.0596  0.8751 -0.6641
  384MOL   Cl2246748   3.500   3.799   0.625  0.0210 -0.0591  0.2446
  384MOL    H2346749   3.530   3.742   0.889  0.8040 -0.6816  1.6019
  384MOL    H2446750   3.682   3.731   0.828 -1.0074  0.8473 -1.9913
  384MOL    H2546751   3.502   3.975   0.785 -0.4587  0.5429  1.1582
  384MOL    C2646752   3.694   3.969   0.664 -0.1989 -0.3588 -0.1601
  384MOL    C2746753   3.662   4.097   0.587  0.3810 -0.0494  0.2307
  384MOL   Cl2846754   3.595   4.222   0.694  0.1729  0.3756  0.1567
  384MOL    H2946755   3.745   3.896   0.601 -0.2334 -0.1250 -0.4586
  384MOL    H3046756   3.769   3.997   0.738 -1.6561  0.9932  0.8249
  384MOL    H3146757   3.756   4.143   0.556 -0.6558  2.7485  1.0852
  384MOL    C3246758   3.577   4.079   0.456  1.1826 -0.4588 -0.4403
  384MOL    C3346759   3.611   4.188   0.354  0.0627  0.5043  0.0866
  384MOL   Cl3446760   3.552   4.350   0.399  0.0301  0.0403 -0.0755
  384MOL    H3546761   3.475   4.053   0.485  1.2713 -2.1333 -1.5749
  384MOL    H3646762   3.613   3.989   0.406  2.5875 -0.1166 -0.0580
  384MOL    H3746763   3.718   4.200   0.339 -0.2563  1.4966 -1.5890
  384MOL    C3846764   3.564   4.151   0.215  0.2108  0.1709  0.1003
  384MOL    C3946765   3.602   4.256   0.103 -0.0776 -0.2980 -0.1415
  384MOL   Cl4046766   3.511   4.210   8.483 -0.2983 -0.0173 -0.2791
  384MOL    H4146767   3.455   4.155   0.203  0.3652 -1.7890 -2.3368
  384MOL    H4246768   3.596   4.052   0.183  0.3558  0.4379 -0.6018
  384MOL    H4346769   3.560   4.354   0.127 -1.8239 -1.0167 -0.2021
  384MOL    C4446770   3.753   4.272   0.075  0.1361  0.1369 -0.3713
  384MOL    C4546771   3.786   4.404   8.525 -0.7139  0.1796 -0.5994
  384MOL   Cl4646772   3.956   4.407   8.470 -0.3953  0.0836 -0.0193
  384MOL    H4746773   3.788   4.183   0.024  2.4793  0.7183  0.1419
  384MOL    H4846774   3.818   4.275   0.162 -2.5545  0.6929  1.6767
  384MOL    H4946775   3.722   4.411   8.436 -0.7954 -0.1061 -0.5663
  384MOL    C5046776   3.770   4.528   0.100  0.2073 -0.1629  0.6972
  384MOL    C5146777   3.837   4.662   0.060  0.1837 -0.2148  0.6452
  384MOL   Cl5246778   3.770   4.781   0.182 -0.1027 -0.0933  0.2328
  384MOL    H5346779   3.806   4.506   0.200  2.4280  0.6891  0.1264
  384MOL    H5446780   3.663   4.538   0.120 -0.3910 -2.8526 -0.9420
  384MOL    H5546781   3.944   4.653   0.077 -0.0160 -0.1701  1.9148
  384MOL    C5646782   3.809   4.714   8.437 -0.1533  0.2574 -0.1753
  384MOL    C5746783   3.890   4.841   8.398  0.3427  0.5244 -0.0891
  384MOL   Cl5846784   3.828   4.905   8.244  0.0091  0.2118  0.0979
  384MOL    H5946785   3.704   4.740   8.419  0.1886  1.8403  0.0349
  384MOL    H6046786   3.833   4.645   8.356 -0.5434  0.9075 -0.8522
  384MOL    H6146787   3.860   4.917   8.471 -2.4427  1.1173 -1.7695
  384MOL    C6246788   4.038   4.827   8.387 -0.0208 -0.4861  0.0593
  384MOL    C6346789   4.115   4.964   8.382 -0.7814  0.1771 -0.3263
  384MOL   Cl6446790   4.272   4.930   8.298  0.4814  0.7145  0.4177
  384MOL    H6546791   4.059   4.771   8.296 -2.0355 -1.6165  0.2699
  384MOL    H6646792   4.086   4.758   8.457 -2.8694 -1.7848  0.7801
  384MOL    H6746793   4.066   5.032   8.312  0.4631  1.5562  0.0976
  384MOL    C6846794   4.143   5.031   8.513  0.0946  0.3227 -0.3184
  384MOL    C6946795   4.229   4.945   0.082  0.3094  0.6494  0.4333
  384MOL   Cl7046796   4.147   4.967   0.241 -0.0758 -0.3379  0.0883
  384MOL    H7146797   4.050   5.062   0.036  0.9362 -0.1133  1.6553
  384MOL    H7246798   4.188   5.128   8.493  0.1999  0.0949 -1.2090
  384MOL    H7346799   4.223   4.839   0.057 -3.5880  0.6680  0.9300
  384MOL    C7446800   4.377   4.997   0.096 -0.2214 -0.6401 -0.8107
  384MOL    C7546801   4.477   4.893   0.146  0.2694 -0.4418  0.6602
  384MOL   Cl7646802   4.483   4.745   0.050 -0.2646 -0.2216 -0.0831
  384MOL    H7746803   4.375   5.084   0.162 -0.9748  0.5529 -2.3670
  384MOL    H7846804   4.426   5.028   0.004  0.5329  0.5000 -0.0395
  384MOL    H7946805   4.572   4.945   0.140 -0.1829  0.2391 -0.6752
  384MOL    C8046806   4.446   4.862   0.301 -0.0679  0.3118 -0.1597
  384MOL    C8146807   4.540   4.763   0.361 -0.3939 -0.2932 -1.1699
  384MOL   Cl8246808   4.459   4.730   0.520  0.1344 -0.1991 -0.4871
  384MOL    H8346809   4.343   4.833   0.321  0.3746 -2.3843 -1.5248
  384MOL    H8446810   4.452   4.953   0.360 -0.3224 -0.9154  1.7933
  384MOL    H8546811   4.532   4.668   0.307 -2.0228 -0.4560 -0.6741
  384MOL    C8646812   4.685   4.817   0.391 -0.8022 -0.5751  0.3393
  384MOL    C8746813   4.796   4.800   0.285  0.0526  0.1020  0.1599
  384MOL   Cl8846814   4.810   4.630   0.228 -0.0141  0.0316 -0.2269
  384MOL    H8946815   4.726   4.756   0.472  1.7988 -3.7135 -3.1765
  384MOL    H9046816   4.678   4.923   0.415  2.1995 -0.5796  1.5103
  384MOL    H9146817   4.760   4.855   0.198  1.7075  1.7877  0.5098
  384MOL    C9246818   4.935   4.849   0.325 -0.2562  0.1336 -0.2069
  384MOL    C9346819   4.949   5.001   0.363  0.5872 -0.2400  0.3227
  384MOL   Cl9446820   4.899   5.103   0.227 -0.7191 -0.2983  0.1002
  384MOL    H9546821   5.005   4.832   0.243 -1.6313 -1.4829 -1.0749
  384MOL    H9646822   4.969   4.785   0.406  3.5604  0.2764 -1.5901
  384MOL    H9746823   4.885   5.023   0.448 -0.4039  1.0951 -0.7387
  384MOL    C9846824   5.104   5.024   0.397 -0.2194  0.2382  0.7044
  384MOL    C9946825   5.138   5.170   0.425  0.2044 -0.2535 -0.1894
  384MOL  Cl10046826   5.321   5.179   0.440  0.0599  0.3567  0.1872
  384MOL   H10146827   5.162   4.989   0.313  0.0828  0.9914  0.5971
  384MOL   H10246828   5.129   4.964   0.485 -0.1135 -1.2228 -0.3114
  384MOL   H10346829   5.122   5.229   0.335  1.4054 -2.6920 -2.0942
  384MOL   C10446830   5.079   5.230   0.559 -0.6629 -0.0024 -0.4313
  384MOL   C10546831   5.108   5.377   0.573 -0.6286  0.1247 -0.2668
  384MOL  Cl10646832   5.039   5.440   0.723  0.0741  0.1511  0.0761
  384MOL   H10746833   5.118   5.176   0.645  0.1115  0.7091 -0.3232
  384MOL   H10846834   4.971   5.216   0.561 -0.6818  0.0689 -0.9087
  384MOL   H10946835   5.213   5.399   0.587 -0.9512  0.8086  1.1977
  384MOL   C11046836   5.057   5.467   0.465  0.9194 -0.3956  0.1798
  384MOL   C11146837   5.089   5.614   0.475  0.0207 -0.0183  0.2233
  384MOL  Cl11246838   4.956   5.713   0.400 -0.1393 -0.1637 -0.1414
  384MOL   H11346839   4.948   5.463   0.461  0.9732 -4.0454  0.5345
  384MOL   H11446840   5.092   5.440   0.365  1.3124 -0.4137  0.3236
  384MOL   H11546841   5.091   5.647   0.579 -2.8668  0.8529  0.0553
  384MOL   C11646842   5.228   5.647   0.417  0.5107 -0.3051 -0.3156
  384MOL   C11746843   5.281   5.791   0.438  0.8407 -0.1640  0.3963
  384MOL  Cl11846844   5.438   5.805   0.367  0.0238  0.3245  0.0872
  384MOL   H11946845   5.206   5.633   0.311 -1.3036 -1.4756  0.1921
  384MOL   H12046846   5.302   5.579   0.458  3.3952  3.0159  0.2654
  384MOL   H12146847   5.219   5.869   0.394  2.3353  1.5622  1.2537
  384MOL   H12246848   5.285   5.806   0.546 -1.7526 -0.2906  0.5281
  385MOL     C146849   8.484   2.677   3.499  0.2423 -1.3583  0.4279
  385MOL     C246850   0.090   2.672   3.413  0.3669 -0.5626 -1.1364
  385MOL    Cl346851   0.024   2.665   3.246  0.0665 -0.5894 -0.3269
  385MOL     H446852   8.412   2.596   3.486 -1.3716 -0.1769  1.7026
  385MOL     H546853   8.520   2.674   3.601  0.4329 -0.3455  0.3972
  385MOL     H646854   0.151   2.763   3.409  0.2497 -0.3371  1.2851
  385MOL     H746855   8.429   2.769   3.477 -0.4271 -1.0704  3.1698
  385MOL     C846856   0.185   2.558   3.441 -0.8008 -0.0028 -0.5379
  385MOL     C946857   0.269   2.565   3.571 -0.8086 -0.6908 -0.5890
  385MOL   Cl1046858   0.389   2.694   3.568  0.1899 -0.2572 -0.2668
  385MOL    H1146859   0.258   2.561   3.360  1.8273  0.5085  1.8018
  385MOL    H1246860   0.140   2.460   3.424  0.5249 -0.9467  1.2935
  385MOL    H1346861   0.203   2.580   3.657 -0.2034 -1.4076  0.0090
  385MOL    C1446862   0.349   2.434   3.586  0.1774  0.2620 -0.8863
  385MOL    C1546863   0.272   2.321   3.657  0.4775  0.4812  0.0889
  385MOL   Cl1646864   0.254   2.356   3.826  0.1312 -0.0466 -0.0632
  385MOL    H1746865   0.439   2.453   3.644  1.6687 -0.2004 -2.9827
  385MOL    H1846866   0.385   2.406   3.487  0.9647  0.5910 -0.6976
  385MOL    H1946867   0.170   2.318   3.617  0.0560  0.7791  1.1159
  385MOL    C2046868   0.345   2.191   3.643 -0.3753 -0.2408 -0.1171
  385MOL    C2146869   0.342   2.108   3.504  0.1327 -0.2524  0.3076
  385MOL   Cl2246870   0.178   2.094   3.439  0.2168  0.3875  0.1756
  385MOL    H2346871   0.290   2.124   3.708 -2.2862  2.9660  1.6826
  385MOL    H2446872   0.449   2.204   3.675 -0.9671  0.6696  1.4698
  385MOL    H2546873   0.391   2.170   3.430  0.6972 -0.2540  0.6827
  385MOL    C2646874   0.407   1.972   3.512  0.2637  0.5049 -0.1323
  385MOL    C2746875   0.331   1.867   3.595  0.0119 -0.1047  0.2973
  385MOL   Cl2846876   0.381   1.879   3.757 -0.0609  0.2836  0.3548
  385MOL    H2946877   0.507   1.979   3.555 -0.5143  0.1954  1.7734
  385MOL    H3046878   0.410   1.945   3.406 -2.4104  1.1391 -0.4029
  385MOL    H3146879   0.226   1.896   3.595 -0.4242 -1.5797 -1.3478
  385MOL    C3246880   0.348   1.719   3.550  0.6523  0.9258  0.9809
  385MOL    C3346881   0.291   1.667   3.414  0.0799 -0.4335 -0.1003
  385MOL   Cl3446882   0.112   1.695   3.410  0.3247 -0.0060  0.3225
  385MOL    H3546883   0.302   1.669   3.635  2.5387 -3.0515 -0.2263
  385MOL    H3646884   0.452   1.688   3.553  0.5160  0.4239  0.7001
  385MOL    H3746885   0.336   1.732   3.339  1.4105 -3.1656 -1.7574
  385MOL    C3846886   0.316   1.521   3.375  0.1819 -0.5197  0.3895
  385MOL    C3946887   0.315   1.421   3.489  0.3704 -0.3554 -0.0664
  385MOL   Cl4046888   0.477   1.409   3.565 -0.4494  0.0435  0.2650
  385MOL    H4146889   0.407   1.519   3.316  1.3339  0.6391  2.0794
  385MOL    H4246890   0.248   1.479   3.301  1.6988 -2.8107  0.2703
  385MOL    H4346891   0.250   1.470   3.562  0.3190 -0.2029 -0.2151
  385MOL    C4446892   0.269   1.270   3.463 -0.0768 -0.7592  0.1283
  385MOL    C4546893   0.122   1.254   3.428  0.5666  0.1616 -0.1800
  385MOL   Cl4646894   0.011   1.339   3.544 -0.0133  0.4414 -0.0204
  385MOL    H4746895   0.285   1.227   3.562 -0.6131  1.5182  1.2534
  385MOL    H4846896   0.337   1.217   3.396 -0.1306 -0.5325 -0.1091
  385MOL    H4946897   0.101   1.293   3.328  0.2488  2.5879  0.8005
  385MOL    C5046898   0.076   1.105   3.432 -0.3326 -0.0202  0.0150
  385MOL    C5146899   8.453   1.076   3.380  0.7112 -0.6487 -0.6949
  385MOL   Cl5246900   8.407   1.181   3.244  0.0959  0.2856  0.2942
  385MOL    H5346901   0.091   1.083   3.538 -0.3216 -0.7233 -0.1310
  385MOL    H5446902   0.144   1.036   3.383 -1.1261  0.5102 -1.8500
  385MOL    H5546903   8.460   0.973   3.343  1.6059 -1.0212  0.4541
  385MOL    C5646904   8.340   1.067   3.477  0.5029 -0.3766  0.2398
  385MOL    C5746905   8.357   0.991   3.611 -1.0864  0.4550 -0.7051
  385MOL   Cl5846906   8.404   0.818   3.573 -0.1197 -0.1529 -0.0797
  385MOL    H5946907   8.263   1.011   3.423 -0.7780  0.8781  0.7506
  385MOL    H6046908   8.305   1.168   3.496 -2.1302 -0.4424 -3.5070
  385MOL    H6146909   8.441   1.035   3.665 -2.8607  3.5102 -0.3494
  385MOL    C6246910   8.217   0.984   3.686  0.2819 -1.2715 -0.8150
  385MOL    C6346911   8.166   1.119   3.740 -0.0813  1.0653 -0.0408
  385MOL   Cl6446912   8.299   1.186   3.848  0.1391 -0.2348 -0.0073
  385MOL    H6546913   8.227   0.918   3.772  3.6240  0.5114  0.2338
  385MOL    H6646914   8.139   0.936   3.626 -1.0694  0.3186 -0.3582
  385MOL    H6746915   8.160   1.181   3.651  0.6075 -0.2588 -1.0280
  385MOL    C6846916   8.038   1.099   3.817 -0.2038 -0.3594 -0.2188
  385MOL    C6946917   7.913   1.048   3.745  0.1015  0.4535 -0.0216
  385MOL   Cl7046918   7.873   1.145   3.604  0.1337 -0.6149 -0.1053
  385MOL    H7146919   8.016   1.199   3.856 -1.7774 -0.7726 -0.0126
  385MOL    H7246920   8.058   1.041   3.907  0.5538 -1.6136 -1.1888
  385MOL    H7346921   7.932   0.944   3.718  1.0302  0.5449  0.2527
  385MOL    C7446922   7.788   1.047   3.841 -0.1345 -0.3576 -0.7614
  385MOL    C7546923   7.787   0.940   3.949 -0.0156 -0.3914 -0.2091
  385MOL   Cl7646924   7.756   0.785   3.875 -0.2740 -0.1613  0.1712
  385MOL    H7746925   7.700   1.037   3.777 -1.4340  1.4385  0.6864
  385MOL    H7846926   7.772   1.146   3.883 -1.6814 -0.4613 -1.0593
  385MOL    H7946927   7.881   0.932   4.003 -0.6855 -3.1860  0.6548
  385MOL    C8046928   7.670   0.951   4.056 -0.5775 -0.0817  0.3181
  385MOL    C8146929   7.699   0.888   4.195 -0.4611  0.5205 -0.6486
  385MOL   Cl8246930   7.845   0.964   4.271  0.2421 -0.3104  0.3482
  385MOL    H8346931   7.574   0.913   4.021  0.4515 -1.3063 -1.2794
  385MOL    H8446932   7.655   1.057   4.074  3.0229  0.9194 -1.9745
  385MOL    H8546933   7.611   0.900   4.258 -0.5007  0.4208 -0.6844
  385MOL    C8646934   7.717   0.733   4.198 -0.3459  0.0045  0.3047
  385MOL    C8746935   7.755   0.670   4.333 -0.2197 -0.0539 -0.7284
  385MOL   Cl8846936   7.805   0.497   4.303  0.2278 -0.2615 -0.0163
  385MOL    H8946937   7.800   0.721   4.128 -1.1471 -3.5282 -0.1261
  385MOL    H9046938   7.625   0.689   4.159 -0.1029 -1.8558  1.7781
  385MOL    H9146939   7.835   0.732   4.374 -0.0964 -0.0060 -1.0412
  385MOL    C9246940   7.644   0.669   4.441 -0.0173  0.5151 -0.2635
  385MOL    C9346941   7.677   0.629   4.584  0.1331 -0.0007  0.9779
  385MOL   Cl9446942   7.527   0.608   4.673  0.1103 -0.3136  0.3171
  385MOL    H9546943   7.569   0.595   4.412  1.1702 -0.7696 -0.1555
  385MOL    H9646944   7.591   0.764   4.439 -1.7190 -0.3592  1.8864
  385MOL    H9746945   7.733   0.536   4.577  1.1605  0.7677 -1.4418
  385MOL    C9846946   7.756   0.738   4.662 -0.0014 -0.1620 -0.3462
  385MOL    C9946947   7.861   0.701   4.769  0.2191  0.3150  0.3343
  385MOL  Cl10046948   7.783   0.598   4.887 -0.1354 -0.0337  0.0002
  385MOL   H10146949   7.684   0.814   4.693 -0.2097 -0.5996  0.2554
  385MOL   H10246950   7.818   0.783   4.585 -0.7578  1.2548 -0.1592
  385MOL   H10346951   7.938   0.634   4.732  0.9702  1.4613 -0.2000
  385MOL   C10446952   7.931   0.813   4.844  0.2655 -0.2350 -0.0718
  385MOL   C10546953   8.028   0.899   4.758  0.4632 -0.8814  0.1112
  385MOL  Cl10646954   8.168   0.807   4.733  0.0726  0.0646  0.1873
  385MOL   H10746955   7.978   0.773   4.934 -0.7572 -0.5495  0.3346
  385MOL   H10846956   7.856   0.885   4.877  0.8424  0.6823 -0.7392
  385MOL   H10946957   7.975   0.910   4.664  0.3157  1.7602  0.4771
  385MOL   C11046958   8.068   1.037   4.818  0.5482  0.1418 -0.0809
  385MOL   C11146959   7.997   1.161   4.770 -0.2745 -0.4204 -0.5403
  385MOL  Cl11246960   8.092   1.304   4.815  0.5820  0.4583  0.2538
  385MOL   H11346961   8.175   1.054   4.812  0.6054  0.0291  0.5508
  385MOL   H11446962   8.054   1.029   4.926 -0.2886  1.3752 -0.0845
  385MOL   H11546963   7.970   1.171   4.665  0.1659  0.7029 -0.5577
  385MOL   C11646964   7.852   1.170   4.825  0.2097  0.7854 -0.2444
  385MOL   C11746965   7.784   1.303   4.808  0.0369 -0.3261 -0.7443
  385MOL  Cl11846966   7.614   1.297   4.858  0.2194 -0.3640 -0.2681
  385MOL   H11946967   7.859   1.150   4.932 -1.0149 -0.0866 -0.3145
  385MOL   H12046968   7.797   1.085   4.784  2.0592 -0.5563 -0.0553
  385MOL   H12146969   7.835   1.374   4.874  0.9823 -2.6874  1.1310
  385MOL   H12246970   7.780   1.333   4.703  3.0754 -0.4726 -0.9431
  386MOL     C146971   6.020   7.028   3.614  0.2996 -1.0019 -0.2244
  386MOL     C246972   5.999   6.929   3.500 -0.1468  0.0715 -0.1363
  386MOL    Cl346973   6.127   6.960   3.378  0.1097 -0.0635 -0.1816
  386MOL     H446974   5.935   7.034   3.682 -0.3427  2.7540 -1.2106
  386MOL     H546975   6.109   7.005   3.672  0.9868 -0.6581 -1.1218
  386MOL     H646976   6.022   6.828   3.534 -0.8653  0.5767  1.9190
  386MOL     H746977   6.032   7.128   3.571  1.0234  0.0251  2.3219
  386MOL     C846978   5.864   6.938   3.429  0.7222  0.2951 -0.2754
  386MOL     C946979   5.751   6.874   3.507 -0.4822  0.1913 -0.3606
  386MOL   Cl1046980   5.780   6.693   3.523 -0.0113  0.3777 -0.3344
  386MOL    H1146981   5.868   6.886   3.333 -1.7614  0.4151 -0.4766
  386MOL    H1246982   5.846   7.040   3.395 -1.5326 -0.1339 -0.4209
  386MOL    H1346983   5.751   6.921   3.605 -1.3970 -1.0438  0.2412
  386MOL    C1446984   5.619   6.890   3.427  0.3228  0.2513  0.3284
  386MOL    C1546985   5.550   7.030   3.420  0.2402  0.1395  0.7851
  386MOL   Cl1646986   5.508   7.083   3.586  0.3698  0.1888  0.0887
  386MOL    H1746987   5.554   6.813   3.467 -0.7505  1.4780  0.9891
  386MOL    H1846988   5.635   6.860   3.323 -2.8172  0.0172 -0.1392
  386MOL    H1946989   5.618   7.107   3.383  0.7526 -0.5247  0.3284
  386MOL    C2046990   5.415   7.024   3.350 -0.8464  0.5661 -0.4295
  386MOL    C2146991   5.431   7.007   3.191  0.7603  0.2494  0.2958
  386MOL   Cl2246992   5.528   7.137   3.127 -0.3484  0.1113 -0.7288
  386MOL    H2346993   5.343   7.103   3.373 -1.7641  0.0470 -1.5091
  386MOL    H2446994   5.360   6.936   3.384  0.8598 -0.9562 -1.5305
  386MOL    H2546995   5.482   6.913   3.170 -1.8776 -1.8926  3.0153
  386MOL    C2646996   5.291   7.005   3.129 -0.4219  0.1153 -0.5034
  386MOL    C2746997   5.284   6.996   2.972  0.2509  0.0779 -0.6230
  386MOL   Cl2846998   5.111   6.992   2.941 -0.2238 -0.1390  0.1921
  386MOL    H2946999   5.237   7.093   3.165 -1.5777 -2.0884  3.4253
  386MOL    H3047000   5.243   6.918   3.173  0.2509 -0.6184 -1.2071
  386MOL    H3147001   5.334   7.089   2.946  1.2362 -0.3520 -0.2869
  386MOL    C3247002   5.353   6.877   2.909  0.2106  0.1230 -0.0547
  386MOL    C3347003   5.366   6.871   2.753  0.4756 -0.3232 -0.2998
  386MOL   Cl3447004   5.412   6.704   2.708  0.0831  0.2371 -0.3781
  386MOL    H3547005   5.296   6.795   2.953  1.5393  0.2700  2.0349
  386MOL    H3647006   5.451   6.878   2.956  0.1755 -0.4341  0.0409
  386MOL    H3747007   5.269   6.876   2.704  0.7685 -1.3207 -1.0066
  386MOL    C3847008   5.477   6.961   2.695 -0.0136  0.6778  0.2117
  386MOL    C3947009   5.495   6.974   2.539  1.2449  0.3510 -0.4598
  386MOL   Cl4047010   5.651   7.066   2.520  0.1779  0.1941  0.2062
  386MOL    H4147011   5.572   6.945   2.747 -1.9423 -1.9557  3.1458
  386MOL    H4247012   5.454   7.059   2.736 -2.4531 -0.4218  1.5944
  386MOL    H4347013   5.510   6.880   2.486  0.6656 -1.5594  2.6408
  386MOL    C4447014   5.381   7.042   2.470  0.0021 -0.2553 -0.3649
  386MOL    C4547015   5.402   7.064   2.322 -0.0168 -0.0204  0.6092
  386MOL   Cl4647016   5.283   7.181   2.256 -0.4540 -0.2827 -0.2109
  386MOL    H4747017   5.371   7.139   2.520 -1.7384  0.0724 -1.3198
  386MOL    H4847018   5.288   6.989   2.489  0.2064 -0.2403  0.7102
  386MOL    H4947019   5.502   7.095   2.292 -0.0895 -0.5621 -0.2417
  386MOL    C5047020   5.378   6.940   2.239  0.3575  0.5573 -0.0784
  386MOL    C5147021   5.444   6.934   2.095 -0.0969  0.3775 -0.3465
  386MOL   Cl5247022   5.319   6.868   1.981 -0.3062 -0.1359  0.0763
  386MOL    H5347023   5.273   6.917   2.229  0.7466 -1.6134  0.6431
  386MOL    H5447024   5.396   6.854   2.302 -1.3432  0.4265  0.2324
  386MOL    H5547025   5.466   7.035   2.059  2.2911  0.4890  1.2823
  386MOL    C5647026   5.568   6.845   2.101 -0.6464  0.2640 -0.4696
  386MOL    C5747027   5.678   6.911   2.184 -0.1798 -0.0700  0.6174
  386MOL   Cl5847028   5.721   7.069   2.109  0.5793 -0.0275  0.2986
  386MOL    H5947029   5.594   6.832   1.996 -0.8544  1.8352 -0.7267
  386MOL    H6047030   5.540   6.742   2.122 -2.7883  0.8613 -0.2756
  386MOL    H6147031   5.647   6.935   2.285 -0.8506  0.1510  0.3619
  386MOL    C6247032   5.814   6.845   2.182  0.4165  0.0284 -0.0622
  386MOL    C6347033   5.819   6.698   2.243  0.5464  0.6871 -0.4175
  386MOL   Cl6447034   5.749   6.710   2.404 -0.4008 -0.0215 -0.3341
  386MOL    H6547035   5.872   6.905   2.252  0.0575  0.2695  0.0328
  386MOL    H6647036   5.871   6.837   2.090  0.6152  0.2644  0.0386
  386MOL    H6747037   5.760   6.628   2.182  0.6154  1.1796 -1.0591
  386MOL    C6847038   5.968   6.660   2.257 -0.0213 -0.5115 -0.2832
  386MOL    C6947039   6.007   6.546   2.358  0.6921 -0.4904 -0.2056
  386MOL   Cl7047040   6.173   6.550   2.406 -0.2464  0.5525 -0.3261
  386MOL    H7147041   6.022   6.748   2.294 -4.5879  1.7311  1.4298
  386MOL    H7247042   6.004   6.634   2.158  0.3553  0.6043 -0.4507
  386MOL    H7347043   5.958   6.554   2.455 -0.0846 -0.4645 -0.5997
  386MOL    C7447044   5.985   6.411   2.302  0.1593  0.7748 -0.1234
  386MOL    C7547045   6.007   6.292   2.402 -0.0258 -0.0927  0.1629
  386MOL   Cl7647046   6.033   6.138   2.305  0.3170 -0.1945 -0.1879
  386MOL    H7747047   6.063   6.405   2.227  0.2940  3.8690 -0.3011
  386MOL    H7847048   5.892   6.401   2.246  0.3271  0.1783 -0.2986
  386MOL    H7947049   6.102   6.302   2.455  0.2847  2.5453 -0.8127
  386MOL    C8047050   5.890   6.260   2.502 -0.6225  0.4019  0.1071
  386MOL    C8147051   5.900   6.124   2.582 -0.5113 -0.0085  0.0392
  386MOL   Cl8247052   5.735   6.092   2.643  0.0051  0.2039 -0.0718
  386MOL    H8347053   5.800   6.248   2.442 -2.2909 -0.1642  2.6255
  386MOL    H8447054   5.866   6.350   2.559 -1.2338  1.6035 -1.9910
  386MOL    H8547055   5.928   6.038   2.521 -1.2121 -2.1282  2.6459
  386MOL    C8647056   5.994   6.123   2.708  0.2027 -0.7540  0.0861
  386MOL    C8747057   6.145   6.153   2.689 -0.5514 -0.4260 -0.3700
  386MOL   Cl8847058   6.219   6.035   2.580 -0.0009  0.0228  0.3689
  386MOL    H8947059   5.986   6.030   2.765 -1.3748 -0.9928 -0.4948
  386MOL    H9047060   5.940   6.184   2.781  1.6279  2.0117 -1.0689
  386MOL    H9147061   6.161   6.253   2.650 -0.7817  0.3706  1.5386
  386MOL    C9247062   6.217   6.148   2.832  0.5276 -0.6515  0.0207
  386MOL    C9347063   6.176   6.251   2.930  1.0334  0.9617  0.0303
  386MOL   Cl9447064   6.320   6.303   3.024  0.3241  0.1824 -0.4427
  386MOL    H9547065   6.326   6.157   2.824  0.5550 -0.4676  0.6371
  386MOL    H9647066   6.204   6.048   2.873 -1.3728 -0.8194 -0.9599
  386MOL    H9747067   6.149   6.335   2.866 -0.6400 -0.2086 -0.8266
  386MOL    C9847068   6.070   6.215   3.036  0.0104  0.4112 -0.1580
  386MOL    C9947069   5.993   6.325   3.117 -0.3287  0.0035 -0.0509
  386MOL  Cl10047070   5.910   6.425   3.002  0.0586  0.2028 -0.0094
  386MOL   H10147071   6.122   6.158   3.113  0.1737 -0.6889 -1.0622
  386MOL   H10247072   5.994   6.149   2.994  0.3711  0.3431 -0.7223
  386MOL   H10347073   5.911   6.278   3.171  0.7159  0.1448  1.6746
  386MOL   C10447074   6.074   6.402   3.222  0.2455 -0.4450  0.4279
  386MOL   C10547075   6.018   6.500   3.320  0.9536  0.0924  0.4121
  386MOL  Cl10647076   6.015   6.655   3.228 -0.1220 -0.4364  0.1363
  386MOL   H10747077   6.158   6.446   3.168 -2.7465  1.0729 -3.1707
  386MOL   H10847078   6.124   6.321   3.276  0.7292  1.1398  2.4352
  386MOL   H10947079   5.916   6.480   3.352  0.1239  0.8660 -1.6341
  386MOL   C11047080   6.100   6.536   3.438  0.1716  0.3750 -0.3794
  386MOL   C11147081   6.242   6.598   3.420  0.4199  0.5120 -0.2880
  386MOL  Cl11247082   6.373   6.485   3.369 -0.0699 -0.1942  0.1649
  386MOL   H11347083   6.098   6.451   3.507 -2.8998  1.1385  0.5813
  386MOL   H11447084   6.040   6.606   3.496  0.5588 -1.3163  2.1369
  386MOL   H11547085   6.242   6.677   3.345 -1.6309  1.1372  0.3468
  386MOL   C11647086   6.283   6.678   3.547 -0.1730 -0.7739  0.3290
  386MOL   C11747087   6.419   6.752   3.518  0.0335 -0.5062  0.3258
  386MOL  Cl11847088   6.444   6.864   3.651 -0.4805  0.1717  0.1173
  386MOL   H11947089   6.295   6.605   3.627 -0.8590  0.6104  1.7050
  386MOL   H12047090   6.211   6.756   3.570  0.7317  0.1585  0.0293
  386MOL   H12147091   6.499   6.679   3.527 -0.7662 -1.5410 -0.8373
  386MOL   H12247092   6.425   6.805   3.423 -1.3521  0.7839  0.9339
  387MOL     C147093   3.419   7.683   4.468  0.4609 -0.0550  0.3867
  387MOL     C247094   3.496   7.552   4.472  0.0517  0.0548 -0.2508
  387MOL    Cl347095   3.403   7.440   4.372 -0.5893 -0.0690  0.0949
  387MOL     H447096   3.475   7.749   4.534 -1.2502  0.7181  1.0945
  387MOL     H547097   3.431   7.727   4.369  0.7784  1.0794  0.9239
  387MOL     H647098   3.597   7.561   4.432 -0.0467 -0.6853 -0.6839
  387MOL     H747099   3.314   7.679   4.496 -0.1833 -1.1057 -2.0081
  387MOL     C847100   3.502   7.505   4.624 -0.5422 -0.8890  0.7148
  387MOL     C947101   3.571   7.370   4.650 -1.1435  0.1139  0.6869
  387MOL   Cl1047102   3.546   7.321   4.819  0.1964  0.1215  0.3362
  387MOL    H1147103   3.402   7.512   4.665 -1.6613 -1.0845 -1.9098
  387MOL    H1247104   3.568   7.581   4.667  1.3518 -1.2252 -1.4947
  387MOL    H1347105   3.513   7.292   4.600 -1.0339  0.9339 -0.7400
  387MOL    C1447106   3.726   7.354   4.614  0.4818  1.0104  0.6751
  387MOL    C1547107   3.831   7.452   4.684  0.7759  0.2070 -0.4943
  387MOL   Cl1647108   3.840   7.603   4.590  0.0359  0.0874 -0.0789
  387MOL    H1747109   3.731   7.362   4.506 -5.0127 -1.7866  0.0485
  387MOL    H1847110   3.758   7.253   4.640 -1.5616  0.2071  0.1437
  387MOL    H1947111   3.789   7.484   4.779 -1.4980 -0.8057 -1.1262
  387MOL    C2047112   3.978   7.392   4.697 -0.1760 -0.4183 -0.6529
  387MOL    C2147113   4.057   7.375   4.563  0.5478 -0.0087 -0.1161
  387MOL   Cl2247114   4.007   7.235   4.465  0.1828 -0.5210  0.0558
  387MOL    H2347115   3.978   7.293   4.744 -2.6869  1.2269  3.0902
  387MOL    H2447116   4.037   7.459   4.758 -1.1740 -2.5155  2.7536
  387MOL    H2547117   4.026   7.452   4.492 -2.0962  0.5361  1.5750
  387MOL    C2647118   4.208   7.384   4.592 -0.2126  0.1423  0.1692
  387MOL    C2747119   4.271   7.513   4.654 -0.1737  0.6243  0.1163
  387MOL   Cl2847120   4.207   7.664   4.586  0.1169 -0.1265  0.0281
  387MOL    H2947121   4.257   7.370   4.495 -0.0062 -2.1212  0.5651
  387MOL    H3047122   4.241   7.299   4.652  2.0481  0.5461 -0.4550
  387MOL    H3147123   4.260   7.524   4.762 -1.4015 -0.4155  0.1107
  387MOL    C3247124   4.424   7.521   4.635  0.3017 -0.4369 -0.7315
  387MOL    C3347125   4.513   7.421   4.706 -0.0338 -0.6112  0.1832
  387MOL   Cl3447126   4.465   7.400   4.880 -0.1105 -0.2882  0.1300
  387MOL    H3547127   4.461   7.615   4.676 -1.0995 -0.4383  0.6108
  387MOL    H3647128   4.450   7.513   4.530 -0.6323  1.5867 -1.1563
  387MOL    H3747129   4.510   7.323   4.659  1.4371 -0.6099  0.0561
  387MOL    C3847130   4.663   7.454   4.697 -0.3701 -0.4559  0.4079
  387MOL    C3947131   4.727   7.475   4.557  0.1359  0.1825 -0.2445
  387MOL   Cl4047132   4.691   7.335   4.451  0.1683  0.1546 -0.2127
  387MOL    H4147133   4.708   7.376   4.759 -0.0215 -0.8809 -0.3699
  387MOL    H4247134   4.667   7.550   4.747 -1.5069 -0.5133  0.6294
  387MOL    H4347135   4.686   7.564   4.509 -0.2904  0.6679  0.9916
  387MOL    C4447136   4.881   7.496   4.551  0.3593  0.6466 -0.0677
  387MOL    C4547137   4.946   7.507   4.402  0.2938  0.3966 -0.3624
  387MOL   Cl4647138   5.124   7.537   4.424 -0.1428  0.4862  0.3632
  387MOL    H4747139   4.933   7.414   4.601 -1.0272  0.3370  0.9021
  387MOL    H4847140   4.915   7.580   4.612  0.4560  0.2047  0.4920
  387MOL    H4947141   4.929   7.422   4.335  1.8911 -0.9765  0.9079
  387MOL    C5047142   4.903   7.638   4.323 -0.1157 -0.7011  0.0238
  387MOL    C5147143   4.936   7.643   4.176  0.1105 -0.2824  1.4704
  387MOL   Cl5247144   4.898   7.487   4.110  0.2831 -0.3928 -0.1997
  387MOL    H5347145   4.932   7.731   4.371 -4.2051 -0.2668  1.8198
  387MOL    H5447146   4.794   7.633   4.327 -0.2487 -1.9330 -3.2777
  387MOL    H5547147   4.863   7.716   4.138  1.2601 -0.3084 -0.8477
  387MOL    C5647148   5.079   7.693   4.132 -0.2646 -0.3508 -0.0382
  387MOL    C5747149   5.103   7.753   3.987  0.5084 -0.0318 -0.3692
  387MOL   Cl5847150   5.013   7.909   3.986 -0.2175 -0.1104 -0.3985
  387MOL    H5947151   5.144   7.606   4.143  1.2785  0.8405  0.6258
  387MOL    H6047152   5.130   7.756   4.206  1.0589 -0.2472 -1.0274
  387MOL    H6147153   5.209   7.778   3.976 -0.1656  2.5969 -1.4627
  387MOL    C6247154   5.058   7.673   3.862  0.2982  0.3008  0.1682
  387MOL    C6347155   5.127   7.539   3.851 -0.0303 -0.6422 -0.1622
  387MOL   Cl6447156   5.301   7.572   3.824 -0.2434 -0.1066  0.1641
  387MOL    H6547157   5.073   7.730   3.770 -1.5646 -0.5556 -0.6989
  387MOL    H6647158   4.950   7.667   3.875  0.5376 -0.2976  1.8867
  387MOL    H6747159   5.114   7.477   3.939  1.9039 -0.4621  0.2551
  387MOL    C6847160   5.065   7.460   3.736 -0.7434  0.3915  0.2782
  387MOL    C6947161   5.115   7.317   3.727 -0.2430 -0.4642  0.1857
  387MOL   Cl7047162   5.099   7.271   3.554 -0.0385 -0.4063  0.1476
  387MOL    H7147163   5.095   7.509   3.644 -0.9899  1.4133  0.7338
  387MOL    H7247164   4.956   7.466   3.726 -0.6589 -0.5558 -1.5075
  387MOL    H7347165   5.222   7.300   3.742 -0.3332 -1.7661 -0.6375
  387MOL    C7447166   5.039   7.217   3.818 -0.2678  0.8626  0.1555
  387MOL    C7547167   5.126   7.119   3.902  0.3621  0.4379  0.1279
  387MOL   Cl7647168   5.240   7.200   4.009 -0.0486 -0.1261 -0.5423
  387MOL    H7747169   4.975   7.161   3.749  0.9476  0.1347 -0.3889
  387MOL    H7847170   4.968   7.267   3.884 -2.6655 -1.0793 -0.8289
  387MOL    H7947171   5.072   7.054   3.971  1.2617  0.1745  0.5901
  387MOL    C8047172   5.194   7.015   3.803 -0.4286  0.6145  0.1685
  387MOL    C8147173   5.266   6.899   3.872  0.0667 -0.1795  1.2123
  387MOL   Cl8247174   5.422   6.934   3.941 -0.2982  0.0270  0.1904
  387MOL    H8347175   5.243   7.063   3.718  2.6178 -2.3443  0.1263
  387MOL    H8447176   5.113   6.968   3.747  0.4254  0.0042 -0.5763
  387MOL    H8547177   5.199   6.866   3.953 -0.8236 -0.3393  0.4243
  387MOL    C8647178   5.276   6.780   3.774 -0.2874 -0.9442  0.0528
  387MOL    C8747179   5.136   6.701   3.765  0.0896 -0.1010 -0.1597
  387MOL   Cl8847180   5.136   6.577   3.901 -0.5382 -0.2080  0.1642
  387MOL    H8947181   5.357   6.712   3.797  0.4179 -0.3586 -0.6629
  387MOL    H9047182   5.298   6.818   3.674 -0.1570  1.2393  0.8677
  387MOL    H9147183   5.052   6.768   3.777  0.1770 -0.0028 -0.0934
  387MOL    C9247184   5.120   6.629   3.636  0.0467  0.1397  0.3136
  387MOL    C9347185   5.109   6.713   3.510 -0.6049  0.9309  0.5927
  387MOL   Cl9447186   4.971   6.820   3.529 -0.0948  0.0876 -0.1494
  387MOL    H9547187   5.029   6.570   3.645  0.0462  0.0250 -0.3706
  387MOL    H9647188   5.199   6.555   3.624  0.7503  1.0046 -0.4663
  387MOL    H9747189   5.189   6.785   3.490 -0.0304 -0.2500 -1.4633
  387MOL    C9847190   5.062   6.626   3.390 -0.1580 -0.5918 -0.6948
  387MOL    C9947191   5.184   6.545   3.341 -0.0153  0.5197  0.3663
  387MOL  Cl10047192   5.300   6.661   3.265 -0.1449 -0.1176  0.5418
  387MOL   H10147193   5.026   6.682   3.304 -0.0111  0.0998 -0.3068
  387MOL   H10247194   4.977   6.569   3.426  0.1071 -0.8221 -0.4226
  387MOL   H10347195   5.235   6.482   3.413  0.7703 -0.3822 -0.9694
  387MOL   C10447196   5.139   6.438   3.239 -0.2679  0.1488  0.8588
  387MOL   C10547197   5.243   6.373   3.141  0.6476 -0.6843  0.4270
  387MOL  Cl10647198   5.158   6.241   3.070  0.0235  0.1620  0.5128
  387MOL   H10747199   5.051   6.481   3.191 -0.7484 -2.0503 -0.2827
  387MOL   H10847200   5.093   6.361   3.302 -0.7554 -0.0531  0.2540
  387MOL   H10947201   5.257   6.453   3.068  0.8003 -0.5358  0.6198
  387MOL   C11047202   5.373   6.320   3.192 -0.7182  0.3243 -0.5716
  387MOL   C11147203   5.475   6.283   3.092  0.3041  0.3979  0.1929
  387MOL  Cl11247204   5.630   6.247   3.170 -0.3116  0.4406  0.0222
  387MOL   H11347205   5.359   6.224   3.241 -1.1449  1.0604  0.7825
  387MOL   H11447206   5.410   6.387   3.269 -1.7382  0.2838 -0.0374
  387MOL   H11547207   5.436   6.194   3.044 -1.2325  1.0186  0.2633
  387MOL   C11647208   5.498   6.386   2.985  0.1166 -0.1745 -0.0407
  387MOL   C11747209   5.584   6.325   2.870  0.0638  0.2319  0.4423
  387MOL  Cl11847210   5.641   6.462   2.766 -0.1635 -0.4207  0.2536
  387MOL   H11947211   5.548   6.473   3.027  0.8935  0.0793 -1.4530
  387MOL   H12047212   5.401   6.410   2.941  1.4750  2.0624 -1.9149
  387MOL   H12147213   5.678   6.282   2.906  1.3315  1.6427 -1.0644
  387MOL   H12247214   5.527   6.249   2.817  0.1919  0.8230 -0.5584
  388MOL     C147215   7.241   2.072   3.448  0.5253  0.0299  0.6889
  388MOL     C247216   7.371   2.147   3.447  0.3939  0.2890 -0.5311
  388MOL    Cl347217   7.471   2.041   3.336 -0.1394 -0.2437 -0.1818
  388MOL     H447218   7.198   2.067   3.348  1.5251 -1.0165  0.3033
  388MOL     H547219   7.269   1.976   3.491  1.5147  0.2613  0.5734
  388MOL     H647220   7.353   2.245   3.401 -1.3098  0.1686 -0.1444
  388MOL     H747221   7.162   2.125   3.501 -0.3749  0.7755 -1.3229
  388MOL     C847222   7.442   2.168   3.578 -0.6745  0.6106  1.2997
  388MOL     C947223   7.376   2.257   3.681  0.1163 -0.1215  0.1748
  388MOL   Cl1047224   7.366   2.430   3.618  0.0116  0.2052  0.3469
  388MOL    H1147225   7.542   2.207   3.556 -1.6041  1.2429 -2.0231
  388MOL    H1247226   7.464   2.073   3.626 -0.8307  0.2696  0.6948
  388MOL    H1347227   7.276   2.217   3.695  0.7545 -0.9807  2.6042
  388MOL    C1447228   7.449   2.256   3.821  0.2747 -0.0726 -0.3647
  388MOL    C1547229   7.362   2.323   3.927 -0.1347  0.1036 -0.8470
  388MOL   Cl1647230   7.462   2.396   4.051 -0.1553  0.0098 -0.2118
  388MOL    H1747231   7.537   2.319   3.806 -0.5221  0.5742 -2.5412
  388MOL    H1847232   7.475   2.156   3.855 -0.7343 -1.2775 -3.0562
  388MOL    H1947233   7.307   2.407   3.883  3.2627  3.2309  0.6450
  388MOL    C2047234   7.257   2.228   3.991 -0.6147  0.9104  0.4062
  388MOL    C2147235   7.112   2.280   4.017 -0.0811  0.2381  0.1061
  388MOL   Cl2247236   7.044   2.349   3.870 -0.0527 -0.1181  0.0398
  388MOL    H2347237   7.301   2.186   4.081  0.6885 -1.8682 -1.4463
  388MOL    H2447238   7.247   2.135   3.934 -3.3642  0.6579  1.2174
  388MOL    H2547239   7.047   2.196   4.039 -0.6907  0.3130 -1.3830
  388MOL    C2647240   7.097   2.386   4.138 -0.5186  0.0907 -0.0125
  388MOL    C2747241   7.158   2.343   4.272  0.0572  0.7123  0.7313
  388MOL   Cl2847242   7.084   2.187   4.322  0.1842 -0.4054 -0.3308
  388MOL    H2947243   6.990   2.404   4.147 -0.7892  0.6405 -3.6741
  388MOL    H3047244   7.159   2.468   4.102  1.6373 -1.2579  0.5160
  388MOL    H3147245   7.265   2.322   4.264 -0.4756 -1.7347 -0.4133
  388MOL    C3247246   7.129   2.451   4.386  0.4461  0.2681  0.3601
  388MOL    C3347247   7.169   2.595   4.355 -0.4259  0.4883  0.2194
  388MOL   Cl3447248   7.346   2.592   4.345 -0.0976 -0.2002 -0.1717
  388MOL    H3547249   7.190   2.416   4.470 -1.1892 -0.4031  1.2978
  388MOL    H3647250   7.023   2.450   4.413 -0.1118 -1.1121 -1.7362
  388MOL    H3747251   7.131   2.638   4.262 -0.2765 -0.6533 -0.3780
  388MOL    C3847252   7.135   2.693   4.467 -0.5100 -0.5915  0.0377
  388MOL    C3947253   6.990   2.753   4.485 -0.1690 -0.0340  0.4074
  388MOL   Cl4047254   6.868   2.629   4.527 -0.1690 -0.2760 -0.2317
  388MOL    H4147255   7.208   2.774   4.470  2.1693 -2.8557 -1.3880
  388MOL    H4247256   7.157   2.631   4.553  2.7126 -0.4583 -0.6370
  388MOL    H4347257   6.994   2.820   4.571 -0.2523  0.7502 -0.2003
  388MOL    C4447258   6.937   2.843   4.367  0.2670  0.0405  0.3267
  388MOL    C4547259   6.824   2.940   4.404  0.1039 -0.5948 -0.2321
  388MOL   Cl4647260   6.763   3.015   4.247 -0.1809 -0.2495  0.2716
  388MOL    H4747261   6.899   2.782   4.284  1.8029  1.2663 -1.3224
  388MOL    H4847262   7.012   2.909   4.324  0.6728 -0.6038  0.0323
  388MOL    H4947263   6.744   2.888   4.456 -1.2017 -0.2919 -1.8906
  388MOL    C5047264   6.880   3.052   4.496 -0.2973  0.0683  0.1752
  388MOL    C5147265   6.993   3.146   4.440  0.8963  0.0360  0.3035
  388MOL   Cl5247266   7.156   3.075   4.463  0.3699 -0.0999 -0.1801
  388MOL    H5347267   6.901   3.010   4.594 -2.7530  0.5938  0.9706
  388MOL    H5447268   6.791   3.110   4.519 -0.7018  0.0927 -1.3466
  388MOL    H5547269   6.975   3.153   4.332  0.6792 -1.3355  0.2343
  388MOL    C5647270   6.975   3.277   4.511 -0.0878 -0.2908 -0.0995
  388MOL    C5747271   7.087   3.377   4.501 -0.2932  0.5678 -0.2096
  388MOL   Cl5847272   7.038   3.522   4.595  0.1244 -0.0177  0.0610
  388MOL    H5947273   6.943   3.268   4.615  0.3371  2.6296  0.3238
  388MOL    H6047274   6.884   3.324   4.473  0.5014  0.2411 -0.8846
  388MOL    H6147275   7.180   3.342   4.546 -0.6043  0.4772  0.3731
  388MOL    C6247276   7.125   3.430   4.358  0.0419 -0.2565  1.0239
  388MOL    C6347277   7.250   3.367   4.292  0.2143  0.2404  0.5336
  388MOL   Cl6447278   7.402   3.400   4.373  0.1356 -0.1693 -0.0948
  388MOL    H6547279   7.148   3.536   4.359  1.2627 -0.5095  1.5369
  388MOL    H6647280   7.044   3.415   4.286  1.7576 -1.5889 -0.6728
  388MOL    H6747281   7.246   3.259   4.280 -1.4108  0.4214 -0.7543
  388MOL    C6847282   7.253   3.415   4.146 -0.2089 -0.3312 -0.3713
  388MOL    C6947283   7.281   3.565   4.122 -0.1163  0.0700 -1.1519
  388MOL   Cl7047284   7.134   3.663   4.137 -0.4235  0.3270 -0.0871
  388MOL    H7147285   7.164   3.391   4.087  0.7818 -0.3146 -1.9188
  388MOL    H7247286   7.320   3.345   4.095 -0.2499 -0.5906 -0.0706
  388MOL    H7347287   7.354   3.602   4.194  1.2843 -1.2183 -1.8898
  388MOL    C7447288   7.342   3.592   3.984  0.3140 -1.1027 -0.7465
  388MOL    C7547289   7.488   3.543   3.961 -0.5396  0.4234  0.2181
  388MOL   Cl7647290   7.607   3.619   4.062  0.3061  0.0408  0.2522
  388MOL    H7747291   7.344   3.700   3.968 -3.2079 -0.7672  0.5967
  388MOL    H7847292   7.264   3.558   3.915 -0.8313 -0.3963  0.1717
  388MOL    H7947293   7.508   3.438   3.981 -0.7518  0.4901  0.7886
  388MOL    C8047294   7.530   3.572   3.816 -0.0759 -0.0632  0.3687
  388MOL    C8147295   7.474   3.482   3.702 -0.0272  0.3291 -0.9362
  388MOL   Cl8247296   7.497   3.306   3.741 -0.1457 -0.4252 -0.5087
  388MOL    H8347297   7.637   3.549   3.815  0.1635  1.0951 -0.9395
  388MOL    H8447298   7.502   3.674   3.793 -0.1706 -0.3107 -0.6329
  388MOL    H8547299   7.365   3.493   3.697  0.0897  1.0054 -2.7557
  388MOL    C8647300   7.540   3.510   3.563  0.0897  0.1438  0.3727
  388MOL    C8747301   7.476   3.632   3.498 -0.4175 -0.4874 -0.1389
  388MOL   Cl8847302   7.311   3.587   3.445 -0.2340 -0.3980 -0.3206
  388MOL    H8947303   7.511   3.421   3.508 -0.6248  0.1764  0.6977
  388MOL    H9047304   7.645   3.535   3.577 -0.1181  1.1489  0.2029
  388MOL    H9147305   7.472   3.703   3.581 -0.1119  0.0107 -0.5445
  388MOL    C9247306   7.564   3.688   3.376 -0.1964 -0.5039 -0.2017
  388MOL    C9347307   7.506   3.803   3.290 -0.1168  0.5474  0.0940
  388MOL   Cl9447308   7.413   3.709   3.162 -0.0494 -0.2435 -0.2164
  388MOL    H9547309   7.592   3.614   3.300  1.2599  0.5728 -0.7328
  388MOL    H9647310   7.662   3.715   3.415 -0.4136  0.0130 -0.0174
  388MOL    H9747311   7.436   3.858   3.353  0.2500 -0.2511  1.2256
  388MOL    C9847312   7.613   3.896   3.238 -0.1056  0.0654  0.5075
  388MOL    C9947313   7.555   4.010   3.153  0.3467 -0.4107 -0.1667
  388MOL  Cl10047314   7.684   4.095   3.064  0.1824  0.3203 -0.0831
  388MOL   H10147315   7.689   3.838   3.184 -1.4549  0.5584 -1.9976
  388MOL   H10247316   7.674   3.931   3.321  0.5434  1.0284 -0.3593
  388MOL   H10347317   7.494   3.963   3.076  0.7487 -0.7560 -0.2764
  388MOL   C10447318   7.460   4.112   3.212 -0.3165  0.0611  0.1997
  388MOL   C10547319   7.522   4.237   3.279  0.5543 -0.4980  0.0692
  388MOL  Cl10647320   7.617   4.194   3.426  0.0612 -0.1780  0.1576
  388MOL   H10747321   7.405   4.061   3.292  0.9884  2.2597  2.5673
  388MOL   H10847322   7.398   4.153   3.133 -0.8317 -0.0663  0.5351
  388MOL   H10947323   7.582   4.292   3.206  0.0079  0.8692  0.6364
  388MOL   C11047324   7.401   4.334   3.315  0.1496 -0.0141 -0.3190
  388MOL   C11147325   7.449   4.469   3.370 -0.2834 -0.3486  0.4880
  388MOL  Cl11247326   7.306   4.579   3.394  0.0185 -0.1856 -0.1102
  388MOL   H11347327   7.327   4.293   3.384 -2.4558  1.8808 -1.9150
  388MOL   H11447328   7.340   4.352   3.227 -1.9335  2.4508  1.5700
  388MOL   H11547329   7.498   4.459   3.466  1.7200 -1.2127 -0.5838
  388MOL   C11647330   7.548   4.545   3.274 -0.1174 -1.0234  0.6763
  388MOL   C11747331   7.584   4.692   3.308 -0.4206  0.5617 -0.1902
  388MOL  Cl11847332   7.704   4.766   3.196  0.0823  0.1426  0.3799
  388MOL   H11947333   7.501   4.550   3.175 -3.0177  2.5547  2.1217
  388MOL   H12047334   7.640   4.488   3.286  0.5167 -0.1309  0.1249
  388MOL   H12147335   7.496   4.756   3.306  0.6091  2.0472  0.6197
  388MOL   H12247336   7.622   4.696   3.410  0.6541  1.1613 -0.6054
  389MOL     C147337   5.776   2.390   5.848  0.2682  0.1843 -0.2397
  389MOL     C247338   5.913   2.345   5.894  0.2015 -0.3545 -0.6012
  389MOL    Cl347339   6.028   2.402   5.769  0.0103 -0.1173 -0.4949
  389MOL     H447340   5.719   2.312   5.798 -1.5799  1.0183  0.5437
  389MOL     H547341   5.711   2.419   5.930 -0.6121 -1.5137 -0.3273
  389MOL     H647342   5.939   2.407   5.980 -1.3001  0.1779 -0.5177
  389MOL     H747343   5.789   2.475   5.781  0.2572  2.3145  2.3384
  389MOL     C847344   5.931   2.195   5.932 -0.3872  0.4388 -0.5243
  389MOL     C947345   5.831   2.128   6.025 -0.7853 -0.5502 -0.9232
  389MOL   Cl1047346   5.831   2.201   6.185 -0.1692 -0.0962  0.0007
  389MOL    H1147347   6.034   2.182   5.967 -0.2206  0.1414 -1.1047
  389MOL    H1247348   5.936   2.128   5.845  1.8973  1.7749 -1.4797
  389MOL    H1347349   5.738   2.144   5.971 -2.1104 -2.1433  0.8044
  389MOL    C1447350   5.847   1.974   6.033 -0.3788 -0.0167 -0.2728
  389MOL    C1547351   5.732   1.897   6.095 -0.0853 -0.2394  0.6949
  389MOL   Cl1647352   5.778   1.724   6.084 -0.1190  0.0129 -0.0307
  389MOL    H1747353   5.935   1.946   6.090 -1.5135 -1.3445  0.8713
  389MOL    H1847354   5.869   1.935   5.933 -0.0025 -0.2048 -0.1147
  389MOL    H1947355   5.724   1.915   6.202  0.0915 -1.9843  1.0199
  389MOL    C2047356   5.594   1.907   6.026 -0.6820  1.1098  0.5242
  389MOL    C2147357   5.500   2.000   6.095 -0.0949  0.0415  0.1098
  389MOL   Cl2247358   5.432   1.917   6.235 -0.0391 -0.2175  0.1351
  389MOL    H2347359   5.551   1.807   6.030  0.6533  0.4401 -1.2260
  389MOL    H2447360   5.590   1.925   5.919  0.1245  0.3675  0.3680
  389MOL    H2547361   5.545   2.085   6.145 -1.0890  1.2712 -1.0426
  389MOL    C2647362   5.375   2.046   6.011 -0.4838  0.2877 -0.0730
  389MOL    C2747363   5.396   2.133   5.879 -0.6557  1.1288 -0.6256
  389MOL   Cl2847364   5.452   2.298   5.919  0.1207 -0.2169 -0.0458
  389MOL    H2947365   5.300   2.089   6.077 -0.5363 -1.7484  1.2183
  389MOL    H3047366   5.323   1.957   5.975 -1.6138  0.6287  0.7071
  389MOL    H3147367   5.479   2.088   5.824 -1.0431 -0.3929  0.0089
  389MOL    C3247368   5.262   2.122   5.802  0.2788 -0.4196  0.0709
  389MOL    C3347369   5.255   2.197   5.668  0.2297 -0.0937 -1.5633
  389MOL   Cl3447370   5.102   2.165   5.590 -0.0383  0.5677 -0.1975
  389MOL    H3547371   5.177   2.149   5.864 -0.6924 -2.0102 -0.5519
  389MOL    H3647372   5.239   2.017   5.786  0.1523 -0.3916  0.0675
  389MOL    H3747373   5.254   2.304   5.690 -0.7240 -0.1273 -1.4042
  389MOL    C3847374   5.366   2.170   5.562  0.4452 -0.0999  0.0586
  389MOL    C3947375   5.368   2.255   5.434  0.4782 -0.2870 -0.5079
  389MOL   Cl4047376   5.484   2.183   5.314 -0.1917 -0.3383 -0.4154
  389MOL    H4147377   5.350   2.065   5.537 -2.3439  0.4989 -0.9100
  389MOL    H4247378   5.461   2.187   5.611  0.6481 -1.5737  0.2090
  389MOL    H4347379   5.271   2.242   5.387  0.5925  0.4320 -0.9517
  389MOL    C4447380   5.410   2.405   5.466  0.2291  0.5541 -0.0893
  389MOL    C4547381   5.392   2.503   5.347 -0.2187  0.2107 -0.2037
  389MOL   Cl4647382   5.446   2.653   5.417 -0.1944 -0.2552 -0.0011
  389MOL    H4747383   5.511   2.397   5.505  0.1442  0.4044  0.1000
  389MOL    H4847384   5.347   2.449   5.543 -1.6287 -0.9336 -0.7165
  389MOL    H4947385   5.449   2.477   5.258  3.5428  2.6729  1.3942
  389MOL    C5047386   5.245   2.513   5.316  0.0700 -0.1172  0.0836
  389MOL    C5147387   5.205   2.605   5.193  0.0957 -0.3117  0.3435
  389MOL   Cl5247388   5.035   2.657   5.196  0.1187 -0.0445  0.0931
  389MOL    H5347389   5.192   2.550   5.404  0.1493  0.1842  0.0029
  389MOL    H5447390   5.211   2.409   5.306  2.7276 -0.7373 -3.7083
  389MOL    H5547391   5.264   2.695   5.212 -0.0421 -0.4326  1.3440
  389MOL    C5647392   5.240   2.559   5.052 -0.9342 -0.1282  0.9909
  389MOL    C5747393   5.193   2.655   4.942  0.2580 -0.2718 -0.4285
  389MOL   Cl5847394   5.258   2.592   4.787  0.2627  0.0525  0.1370
  389MOL    H5947395   5.205   2.457   5.039  1.0836 -0.9040  1.3542
  389MOL    H6047396   5.348   2.547   5.039 -1.1921  0.5282 -2.2329
  389MOL    H6147397   5.085   2.649   4.927  0.1465  0.5423 -0.0203
  389MOL    C6247398   5.244   2.801   4.944  0.0951  0.4592 -0.2834
  389MOL    C6347399   5.404   2.822   4.943  0.0733 -0.2005  0.1341
  389MOL   Cl6447400   5.492   2.774   5.091  0.2183 -0.3973  0.0441
  389MOL    H6547401   5.193   2.861   5.021 -1.3911  0.0695 -0.9394
  389MOL    H6647402   5.203   2.845   4.853 -1.8361 -0.7271 -0.0235
  389MOL    H6747403   5.439   2.770   4.854 -1.0822  0.7356 -0.8913
  389MOL    C6847404   5.428   2.972   4.915 -0.4276 -0.6521 -0.5536
  389MOL    C6947405   5.405   3.012   4.763 -0.0846  0.3767 -0.5783
  389MOL   Cl7047406   5.541   2.954   4.669  0.0785  0.2126  0.2596
  389MOL    H7147407   5.527   3.009   4.940 -0.8199  0.8419 -1.1964
  389MOL    H7247408   5.351   3.023   4.973  1.3415  1.3961  0.0289
  389MOL    H7347409   5.315   2.970   4.718 -1.0393  0.8619  0.8437
  389MOL    C7447410   5.380   3.155   4.729 -0.3187 -0.0827 -0.1540
  389MOL    C7547411   5.498   3.250   4.749  0.0439  0.1897 -0.0799
  389MOL   Cl7647412   5.518   3.289   4.920 -0.0428  0.1300 -0.4441
  389MOL    H7747413   5.295   3.196   4.784  0.1973  0.6718  0.0980
  389MOL    H7847414   5.367   3.154   4.621 -2.1627  0.4695  0.0578
  389MOL    H7947415   5.593   3.204   4.723 -0.6924 -1.2473 -0.2342
  389MOL    C8047416   5.503   3.377   4.650 -0.3426  1.1561 -0.4771
  389MOL    C8147417   5.399   3.483   4.694 -0.2109 -0.3988 -0.3993
  389MOL   Cl8247418   5.239   3.449   4.633  0.1365  0.1724  0.2517
  389MOL    H8347419   5.497   3.343   4.547 -0.1836 -1.3085  0.3019
  389MOL    H8447420   5.605   3.413   4.651  0.1940 -0.3614  0.8186
  389MOL    H8547421   5.395   3.482   4.803 -0.3559 -0.8511 -0.4069
  389MOL    C8647422   5.423   3.627   4.647  0.3222  0.5472  0.1756
  389MOL    C8747423   5.550   3.694   4.701 -0.7533  0.1745  0.2532
  389MOL   Cl8847424   5.524   3.714   4.876 -0.0043  0.5335 -0.0173
  389MOL    H8947425   5.336   3.691   4.659 -0.9695 -0.9250 -0.9934
  389MOL    H9047426   5.421   3.627   4.538 -2.2626  1.7699  0.1729
  389MOL    H9147427   5.637   3.629   4.688 -0.4611  0.6228 -0.0027
  389MOL    C9247428   5.574   3.829   4.628  0.1850 -0.2644 -0.1538
  389MOL    C9347429   5.473   3.942   4.644 -0.0689 -0.1976  0.0474
  389MOL   Cl9447430   5.339   3.940   4.525  0.2983  0.1149  0.3540
  389MOL    H9547431   5.605   3.818   4.524 -1.0096  0.1748 -0.5668
  389MOL    H9647432   5.664   3.863   4.680  0.4422  1.4654 -1.6633
  389MOL    H9747433   5.435   3.917   4.744  0.7965  1.3977  0.8000
  389MOL    C9847434   5.528   4.079   4.661  0.4929  0.2999  0.6661
  389MOL    C9947435   5.597   4.149   4.534  0.0272 -0.1290  0.4976
  389MOL  Cl10047436   5.765   4.088   4.508 -0.2393  0.3458  0.1833
  389MOL   H10147437   5.607   4.067   4.736 -0.9882  0.8926  2.3508
  389MOL   H10247438   5.450   4.139   4.707 -0.0481 -0.2120  0.4144
  389MOL   H10347439   5.542   4.113   4.446 -1.3676  3.1707 -0.0410
  389MOL   C10447440   5.593   4.302   4.539  0.3458 -0.4432 -0.1997
  389MOL   C10547441   5.673   4.375   4.647  0.4187  0.0030 -0.0750
  389MOL  Cl10647442   5.583   4.366   4.804 -0.3710 -0.3761 -0.0227
  389MOL   H10747443   5.491   4.341   4.533  0.0865 -0.9713  0.6409
  389MOL   H10847444   5.642   4.326   4.445  0.8659 -0.8951 -0.0482
  389MOL   H10947445   5.771   4.328   4.659 -0.6931 -2.7299 -1.4582
  389MOL   C11047446   5.709   4.519   4.613  0.0502  0.1887 -0.0676
  389MOL   C11147447   5.814   4.588   4.703  0.5053  0.0970 -0.6875
  389MOL  Cl11247448   5.826   4.753   4.636 -0.2398  0.4166 -0.2000
  389MOL   H11347449   5.617   4.578   4.608 -1.9650 -2.6555  1.5710
  389MOL   H11447450   5.749   4.503   4.513  1.6473  0.6220  0.4975
  389MOL   H11547451   5.786   4.592   4.808 -0.7228  0.5699 -1.0184
  389MOL   C11647452   5.954   4.522   4.707 -1.1561  0.2735 -0.5336
  389MOL   C11747453   6.032   4.506   4.577  0.2658  0.1452 -0.0274
  389MOL  Cl11847454   6.195   4.438   4.598 -0.1578 -0.5659 -0.0535
  389MOL   H11947455   5.953   4.420   4.745  0.4606  0.4760  0.0950
  389MOL   H12047456   6.015   4.583   4.773 -1.9462  0.8953 -0.3656
  389MOL   H12147457   5.979   4.435   4.513 -1.0095  0.2122  0.9325
  389MOL   H12247458   6.029   4.589   4.506 -2.7550 -0.1739 -0.3298
  390MOL     C147459   7.057   6.736   3.772  0.3344 -0.4673  0.3816
  390MOL     C247460   6.961   6.649   3.688 -0.7163 -0.0561 -0.0488
  390MOL    Cl347461   7.000   6.680   3.516  0.2193  0.0801  0.2043
  390MOL     H447462   7.092   6.681   3.859 -2.1198 -1.4922  0.7684
  390MOL     H547463   7.145   6.764   3.714  0.3753 -2.6872 -0.7002
  390MOL     H647464   6.970   6.543   3.710 -0.9410 -0.1808 -0.5615
  390MOL     H747465   7.007   6.817   3.824  1.9434 -0.9601  2.7917
  390MOL     C847466   6.813   6.677   3.715  0.9001 -0.4952 -0.3107
  390MOL     C947467   6.780   6.624   3.857 -0.9064  0.3554  0.8650
  390MOL   Cl1047468   6.758   6.452   3.849  0.1005  0.3365  0.0958
  390MOL    H1147469   6.756   6.620   3.641 -0.5132 -0.6561  0.8842
  390MOL    H1247470   6.812   6.785   3.700  3.1572 -0.3463  0.4717
  390MOL    H1347471   6.868   6.631   3.921 -1.2134  2.9318  1.0621
  390MOL    C1447472   6.658   6.695   3.913  0.6628  0.0043  0.2653
  390MOL    C1547473   6.682   6.844   3.940 -0.0082  0.2363 -0.3567
  390MOL   Cl1647474   6.801   6.863   4.068  0.1496  0.0651 -0.0555
  390MOL    H1747475   6.636   6.648   4.009 -1.1618 -1.0977 -0.6640
  390MOL    H1847476   6.566   6.668   3.861 -0.1805 -0.0656  1.7616
  390MOL    H1947477   6.735   6.896   3.861  1.2900 -1.3560 -0.5678
  390MOL    C2047478   6.551   6.912   3.991 -0.1215 -0.6602  0.5214
  390MOL    C2147479   6.544   7.070   4.014  0.1834 -0.3408  0.2107
  390MOL   Cl2247480   6.614   7.152   3.873  0.1096  0.1155 -0.1292
  390MOL    H2347481   6.512   6.862   4.080 -1.5681  0.4403  0.5373
  390MOL    H2447482   6.475   6.890   3.917  1.8428 -0.0327 -1.7521
  390MOL    H2547483   6.442   7.108   4.020  0.1551 -0.4910  0.6572
  390MOL    C2647484   6.621   7.126   4.134 -0.1164 -0.5462  0.1357
  390MOL    C2747485   6.609   7.055   4.265 -0.5463  0.0687  0.5429
  390MOL   Cl2847486   6.433   7.036   4.313 -0.1718  0.2804 -0.3077
  390MOL    H2947487   6.586   7.228   4.149  0.2367 -0.4617  0.3980
  390MOL    H3047488   6.727   7.131   4.107  0.4377 -1.8103  2.0258
  390MOL    H3147489   6.660   6.960   4.259  0.1789  0.5872 -1.9010
  390MOL    C3247490   6.680   7.140   4.367  0.4926 -0.8895  0.5271
  390MOL    C3347491   6.678   7.084   4.515 -0.1186 -0.6137 -0.6866
  390MOL   Cl3447492   6.759   7.203   4.620 -0.1683  0.0522  0.1763
  390MOL    H3547493   6.650   7.245   4.370 -1.5137 -1.3774 -1.2940
  390MOL    H3647494   6.785   7.152   4.341  0.0299 -1.3085 -1.6406
  390MOL    H3747495   6.573   7.092   4.542  0.6369  1.2487  1.8821
  390MOL    C3847496   6.743   6.943   4.532  0.1799 -0.3282  1.0494
  390MOL    C3947497   6.738   6.895   4.674  0.7151  0.5318  0.4366
  390MOL   Cl4047498   6.800   6.723   4.668 -0.0917 -0.2800  0.0877
  390MOL    H4147499   6.844   6.939   4.492 -0.5997 -0.7818 -0.9076
  390MOL    H4247500   6.691   6.873   4.468  1.6689 -1.6277  1.2231
  390MOL    H4347501   6.815   6.940   4.737 -0.5974 -0.6873  2.9864
  390MOL    C4447502   6.590   6.891   4.744 -0.6290 -0.3933 -0.0807
  390MOL    C4547503   6.578   6.832   4.885 -0.0124  0.2312  0.2850
  390MOL   Cl4647504   6.414   6.838   4.946  0.0992  0.2533 -0.1873
  390MOL    H4747505   6.519   6.835   4.683 -0.6871 -1.6059  1.0874
  390MOL    H4847506   6.539   6.987   4.740 -1.2862 -0.7903 -1.6268
  390MOL    H4947507   6.603   6.726   4.881  0.3980  0.3575 -0.7226
  390MOL    C5047508   6.675   6.890   4.994 -0.0483  0.3879 -0.0820
  390MOL    C5147509   6.717   6.805   5.117 -0.3887  0.0355  0.1601
  390MOL   Cl5247510   6.796   6.652   5.063  0.2637  0.0463 -0.3310
  390MOL    H5347511   6.646   6.987   5.036  0.5570  0.3769  0.3676
  390MOL    H5447512   6.768   6.917   4.943 -1.0347  1.4193 -1.3516
  390MOL    H5547513   6.799   6.862   5.161 -1.4901  0.4895  1.7107
  390MOL    C5647514   6.605   6.769   5.223 -0.6271  0.0716  0.4752
  390MOL    C5747515   6.534   6.890   5.286 -0.2496 -0.2037  0.8092
  390MOL   Cl5847516   6.640   7.002   5.374  0.0350 -0.0962  0.1445
  390MOL    H5947517   6.657   6.712   5.300  3.3404  2.4503 -0.3226
  390MOL    H6047518   6.540   6.702   5.165 -0.0298  0.7977 -1.0701
  390MOL    H6147519   6.487   6.946   5.204  0.0790 -0.1331  0.6694
  390MOL    C6247520   6.437   6.840   5.395  0.3311  0.2676  0.5268
  390MOL    C6347521   6.306   6.781   5.345 -0.7003 -0.4126 -0.2566
  390MOL   Cl6447522   6.214   6.909   5.269 -0.0172  0.1599  0.3335
  390MOL    H6547523   6.424   6.932   5.452  0.7885  0.5021  0.2479
  390MOL    H6647524   6.483   6.767   5.461 -0.7501  0.5121  1.5778
  390MOL    H6747525   6.328   6.707   5.269 -0.8668  0.1953 -0.9017
  390MOL    C6847526   6.232   6.718   5.462 -0.1001 -0.1351  0.4849
  390MOL    C6947527   6.109   6.640   5.418  0.2353 -0.9223 -0.2676
  390MOL   Cl7047528   6.009   6.588   5.552  0.4862  0.3438 -0.4793
  390MOL    H7147529   6.196   6.803   5.521 -1.1677 -0.5058  0.3825
  390MOL    H7247530   6.291   6.656   5.530  0.0445  1.0445  1.4624
  390MOL    H7347531   6.045   6.706   5.360  0.7469  1.2039  1.5077
  390MOL    C7447532   6.131   6.514   5.320  0.3327 -0.7703 -0.9831
  390MOL    C7547533   6.224   6.392   5.370 -0.0050 -0.4595  0.1356
  390MOL   Cl7647534   6.393   6.449   5.355 -0.0031 -0.2847 -0.1364
  390MOL    H7747535   6.170   6.548   5.224  0.5665  0.8833 -0.3128
  390MOL    H7847536   6.035   6.464   5.304  0.5643 -1.4350 -0.3492
  390MOL    H7947537   6.208   6.379   5.477  1.0263 -3.9359 -0.0926
  390MOL    C8047538   6.211   6.261   5.294 -0.4433  0.0013 -0.5176
  390MOL    C8147539   6.298   6.149   5.341 -1.1411  1.3629 -0.1806
  390MOL   Cl8247540   6.267   5.994   5.243  0.2895  0.0936 -0.0742
  390MOL    H8347541   6.232   6.280   5.189 -1.4056  1.2097 -0.4880
  390MOL    H8447542   6.106   6.231   5.296 -0.5060  0.2915  0.5995
  390MOL    H8547543   6.405   6.172   5.330 -1.4206  1.8602 -2.1381
  390MOL    C8647544   6.273   6.103   5.481  0.5771 -0.2178  0.2306
  390MOL    C8747545   6.369   5.997   5.540  0.2078  0.5973  0.7587
  390MOL   Cl8847546   6.299   5.936   5.694  0.3059  0.0624  0.1887
  390MOL    H8947547   6.169   6.076   5.499 -0.0310  1.3354 -0.8133
  390MOL    H9047548   6.283   6.194   5.541  1.2634 -1.7559  2.4871
  390MOL    H9147549   6.380   5.906   5.482 -0.0132  0.9902  0.0952
  390MOL    C9247550   6.514   6.036   5.579 -0.2783 -0.6820 -0.4114
  390MOL    C9347551   6.608   5.928   5.638 -1.0653  0.5461 -0.5131
  390MOL   Cl9447552   6.766   5.996   5.688 -0.0429 -0.2898  0.0796
  390MOL    H9547553   6.505   6.118   5.651  1.1462  0.5944 -1.6579
  390MOL    H9647554   6.557   6.090   5.495 -0.4009  2.4204  1.4360
  390MOL    H9747555   6.566   5.888   5.730 -0.1884 -2.5517 -1.4041
  390MOL    C9847556   6.627   5.790   5.563  1.1111  0.0882 -0.3886
  390MOL    C9947557   6.704   5.804   5.433 -0.0265 -0.2230 -0.1451
  390MOL  Cl10047558   6.578   5.843   5.321 -0.7354  0.2930  0.3511
  390MOL   H10147559   6.534   5.733   5.552  0.0526  1.4879  0.9317
  390MOL   H10247560   6.688   5.727   5.628 -0.2007 -1.2143 -0.3615
  390MOL   H10347561   6.789   5.870   5.418 -0.6425  1.1316  2.0569
  390MOL   C10447562   6.774   5.678   5.387  0.0730 -0.5006 -0.2245
  390MOL   C10547563   6.911   5.646   5.461  0.0021  0.0498  0.5672
  390MOL  Cl10647564   7.014   5.788   5.452 -0.0663 -0.0697 -0.4425
  390MOL   H10747565   6.788   5.688   5.279 -1.4146  1.3218 -0.2712
  390MOL   H10847566   6.703   5.596   5.398 -0.8565  0.0742 -1.7182
  390MOL   H10947567   6.883   5.644   5.566 -0.2685  2.2239  0.5504
  390MOL   C11047568   6.979   5.515   5.410  0.9615  0.1407 -0.5143
  390MOL   C11147569   7.117   5.488   5.480  0.6836 -0.4578 -0.3672
  390MOL  Cl11247570   7.203   5.354   5.394  0.1208 -0.2581 -0.2985
  390MOL   H11347571   6.988   5.511   5.301 -0.2248 -1.4479 -0.5860
  390MOL   H11447572   6.915   5.427   5.426  0.2665  0.6581 -0.4285
  390MOL   H11547573   7.184   5.573   5.466 -0.4022  0.9567  2.5770
  390MOL   C11647574   7.107   5.433   5.622  0.1248 -0.2387  0.2424
  390MOL   C11747575   7.230   5.414   5.709 -0.4735  0.4665 -0.3859
  390MOL  Cl11847576   7.325   5.570   5.712 -0.0106 -0.1816 -0.2746
  390MOL   H11947577   7.068   5.332   5.612  1.8360 -0.9046  0.2506
  390MOL   H12047578   7.034   5.492   5.678 -0.9930 -1.8169  0.4924
  390MOL   H12147579   7.189   5.387   5.806 -0.8002  2.2240 -0.0165
  390MOL   H12247580   7.289   5.330   5.671 -0.5603  0.3125 -0.1786
  391MOL     C147581   2.597   1.130   8.495  0.2461  0.2460  0.8508
  391MOL     C247582   2.695   1.180   8.384 -0.0724 -0.7193 -0.4095
  391MOL    Cl347583   2.638   1.119   8.230 -0.1557  0.3335 -0.0313
  391MOL     H447584   2.569   1.025   8.488 -2.9568  1.0300  1.1000
  391MOL     H547585   2.630   1.151   0.072  1.4251 -1.5911  0.8652
  391MOL     H647586   2.709   1.288   8.376  3.4390 -1.1266 -0.4991
  391MOL     H747587   2.506   1.189   8.482  0.3395  0.0322 -0.9451
  391MOL     C847588   2.838   1.129   8.413  0.4446 -0.0301 -0.2275
  391MOL     C947589   2.944   1.186   8.315 -0.1101 -0.0148 -0.1893
  391MOL   Cl1047590   2.963   1.077   8.174 -0.0203 -0.2737  0.2495
  391MOL    H1147591   2.843   1.020   8.416 -0.2457 -0.1994 -3.3228
  391MOL    H1247592   2.864   1.159   8.514 -0.6140 -0.8716  0.2963
  391MOL    H1347593   2.909   1.283   8.279 -0.6357  0.0566  0.5048
  391MOL    C1447594   3.089   1.199   8.378  1.0836  0.3198 -0.4655
  391MOL    C1547595   3.112   1.302   8.486 -0.0228  0.5954  0.0520
  391MOL   Cl1647596   3.034   1.456   8.429 -0.0783 -0.2804 -0.0429
  391MOL    H1747597   3.154   1.224   8.294  1.3613  2.6044  0.4104
  391MOL    H1847598   3.123   1.099   8.407  0.8361  0.3386 -0.1057
  391MOL    H1947599   3.055   1.259   0.043  0.2557  1.2532  0.5900
  391MOL    C2047600   3.252   1.331   0.006 -0.2212  0.3509 -0.8099
  391MOL    C2147601   3.306   1.226   0.097 -0.2252 -0.7444 -0.3711
  391MOL   Cl2247602   3.250   1.253   0.268 -0.0766 -0.4120 -0.3424
  391MOL    H2347603   3.263   1.427   0.057 -0.7824  0.4987 -0.9716
  391MOL    H2447604   3.310   1.338   8.439  1.7316 -1.4119  0.2542
  391MOL    H2547605   3.278   1.124   0.072 -0.1334 -0.6090 -1.0510
  391MOL    C2647606   3.457   1.214   0.104  0.0980 -0.0277 -0.7389
  391MOL    C2747607   3.530   1.351   0.145  0.1735 -0.0306  0.0327
  391MOL   Cl2847608   3.568   1.451   8.522  0.0958 -0.3815 -0.0032
  391MOL    H2947609   3.495   1.185   0.006 -1.6099 -0.8113 -1.1888
  391MOL    H3047610   3.473   1.130   0.171 -1.7286  1.8129  2.1030
  391MOL    H3147611   3.466   1.413   0.208  2.5995  0.4506  2.1170
  391MOL    C3247612   3.655   1.321   0.230 -0.3761  0.0671 -0.0096
  391MOL    C3347613   3.710   1.444   0.312 -0.1173 -0.6091 -0.0092
  391MOL   Cl3447614   3.878   1.411   0.356 -0.1523  0.2237 -0.4290
  391MOL    H3547615   3.721   1.300   0.146  1.4678  0.8964  1.1928
  391MOL    H3647616   3.649   1.227   0.284 -1.1675 -0.0520 -0.3016
  391MOL    H3747617   3.728   1.528   0.245 -1.4550 -0.8825 -0.7147
  391MOL    C3847618   3.629   1.488   0.427 -0.2931 -0.4552 -0.5651
  391MOL    C3947619   3.559   1.386   0.514  0.5189 -0.2883 -0.2248
  391MOL   Cl4047620   3.470   1.480   0.646 -0.2314  0.5252 -0.3466
  391MOL    H4147621   3.540   1.535   0.383 -1.1430 -0.7694  0.7775
  391MOL    H4247622   3.686   1.563   0.481  1.1980 -1.9688  0.0022
  391MOL    H4347623   3.482   1.332   0.460 -0.8888  2.1843 -0.7554
  391MOL    C4447624   3.655   1.283   0.581  0.4551 -0.2248  0.0750
  391MOL    C4547625   3.585   1.149   0.604  0.0997  0.3650 -0.4763
  391MOL   Cl4647626   3.498   1.080   0.468 -0.0343 -0.1791  0.0701
  391MOL    H4747627   3.698   1.330   0.669  1.0731  1.6450 -1.2068
  391MOL    H4847628   3.742   1.268   0.517 -0.1822  3.4995 -1.8183
  391MOL    H4947629   3.670   1.082   0.616  0.3943  0.7915 -0.1582
  391MOL    C5047630   3.498   1.137   0.731  0.1580 -0.5208  0.3888
  391MOL    C5147631   3.436   1.000   0.764 -0.3549  0.5287 -0.1754
  391MOL   Cl5247632   3.303   1.028   0.882  0.1311  0.1941  0.2819
  391MOL    H5347633   3.412   1.203   0.717  2.7579  3.2192  1.1299
  391MOL    H5447634   3.545   1.180   0.819 -0.4837  0.7331  0.1339
  391MOL    H5547635   3.384   0.958   0.678 -0.1471  0.6826 -0.3759
  391MOL    C5647636   3.542   0.893   0.825  0.4538  0.1638  0.4699
  391MOL    C5747637   3.476   0.757   0.860 -0.2063 -0.0971 -0.1655
  391MOL   Cl5847638   3.590   0.666   0.959  0.2021 -0.5175 -0.4175
  391MOL    H5947639   3.580   0.936   0.917 -2.9379 -0.9592  2.4763
  391MOL    H6047640   3.624   0.875   0.756 -1.2027  0.9495 -1.8105
  391MOL    H6147641   3.388   0.769   0.923 -1.3990  2.6003 -2.2062
  391MOL    C6247642   3.454   0.671   0.726  0.7237 -0.2705 -0.2406
  391MOL    C6347643   3.377   0.534   0.729  0.6587 -0.7019 -0.5804
  391MOL   Cl6447644   3.412   0.449   0.575 -0.4951 -0.4747  0.1623
  391MOL    H6547645   3.556   0.661   0.689  0.4380  0.1184 -1.1460
  391MOL    H6647646   3.393   0.723   0.652 -3.2645 -3.2842  0.7865
  391MOL    H6747647   3.419   0.477   0.812  0.0110  0.2472  0.4262
  391MOL    C6847648   3.223   0.542   0.750  0.4122 -0.0931 -0.9201
  391MOL    C6947649   3.151   0.408   0.747  0.4195  0.1489 -0.0626
  391MOL   Cl7047650   2.981   0.448   0.768  0.1538 -0.3671  0.2503
  391MOL    H7147651   3.178   0.615   0.683  0.0636  0.9471  0.4201
  391MOL    H7247652   3.200   0.589   0.846  0.4192 -0.2857 -0.8231
  391MOL    H7347653   3.162   0.354   0.653 -1.3438  0.1421 -0.2787
  391MOL    C7447654   3.190   0.315   0.865  0.2134 -0.2521  0.1129
  391MOL    C7547655   3.259   0.185   0.815  0.2187  0.0310 -0.2273
  391MOL   Cl7647656   3.153   0.113   0.693 -0.0966 -0.0008  0.2015
  391MOL    H7747657   3.103   0.278   0.919  0.8965 -1.6262  0.2989
  391MOL    H7847658   3.240   0.368   0.946 -2.3873  0.6392  1.1882
  391MOL    H7947659   3.358   0.194   0.770  0.7717  0.8656  1.1473
  391MOL    C8047660   3.269   0.088   0.934  0.2550  0.2122  0.6223
  391MOL    C8147661   3.373   8.492   0.908  0.0827 -0.2739  0.8846
  391MOL   Cl8247662   3.323   8.354   0.998  0.0154 -0.1923  0.0010
  391MOL    H8347663   3.170   0.048   0.958  1.0694 -1.6413  0.9284
  391MOL    H8447664   3.297   0.139   1.026 -0.4984 -1.0574  1.5739
  391MOL    H8547665   3.357   8.462   0.805 -0.4478 -0.6855  1.0863
  391MOL    C8647666   3.514   0.009   0.947 -1.4300  0.8521 -0.1125
  391MOL    C8747667   3.608   8.413   0.911 -0.7362  0.3057 -0.1406
  391MOL   Cl8847668   3.772   8.445   0.975  0.2743 -0.0590  0.0885
  391MOL    H8947669   3.518   0.032   1.053 -0.7388  0.3289 -0.0171
  391MOL    H9047670   3.535   0.104   0.898 -1.2536  0.1331 -1.4786
  391MOL    H9147671   3.579   8.329   0.974  3.7007 -2.3786 -1.4049
  391MOL    C9247672   3.617   8.358   0.768 -0.2861 -0.2351 -0.5073
  391MOL    C9347673   3.675   8.455   0.667  0.2346  0.2470  0.4789
  391MOL   Cl9447674   3.553   0.054   0.626  0.0260 -0.0110 -0.4065
  391MOL    H9547675   3.525   8.313   0.732 -0.5835 -0.6403  0.7387
  391MOL    H9647676   3.687   8.275   0.761  1.7598  1.5155 -1.5946
  391MOL    H9747677   3.756   8.516   0.707  0.5079 -1.1950  2.1836
  391MOL    C9847678   3.726   8.397   0.534  0.1119  0.6049 -0.1608
  391MOL    C9947679   3.627   8.318   0.437  0.2492 -0.5286 -0.2983
  391MOL  Cl10047680   3.601   8.153   0.518 -0.4757 -0.4023  0.0068
  391MOL   H10147681   3.802   8.324   0.561 -0.8895 -0.3976  0.0128
  391MOL   H10247682   3.787   8.470   0.482  3.1049  0.2275  2.6752
  391MOL   H10347683   3.525   8.357   0.437  0.0788 -0.9681  0.3783
  391MOL   C10447684   3.690   8.296   0.302  0.0998 -0.1353  0.5833
  391MOL   C10547685   3.663   8.418   0.207 -0.6573 -0.4323  0.6820
  391MOL  Cl10647686   3.512   8.398   0.119 -0.4728 -0.1503 -0.6213
  391MOL   H10747687   3.654   8.206   0.251 -0.5545  0.9213 -0.8868
  391MOL   H10847688   3.796   8.276   0.318  0.4056  0.6811 -0.3192
  391MOL   H10947689   3.652   8.505   0.272 -2.2567  0.9850 -1.4312
  391MOL   C11047690   3.779   8.447   0.111  0.0273  0.1458 -0.9938
  391MOL   C11147691   3.808   8.332   0.004 -0.6777 -0.4117  0.1529
  391MOL  Cl11247692   3.873   8.174   0.063 -0.3364 -0.0180  0.0612
  391MOL   H11347693   3.870   8.468   0.167  0.5336  0.6896 -1.9973
  391MOL   H11447694   3.762   0.016   0.058  0.3048 -0.4757 -2.2131
  391MOL   H11547695   3.711   8.304   8.490 -0.0712 -1.9245 -0.3106
  391MOL   C11647696   3.900   8.388   8.417 -0.9279  0.0720 -0.6142
  391MOL   C11747697   3.917   8.303   8.286  0.0783  0.6413  0.3543
  391MOL  Cl11847698   3.776   8.320   8.176 -0.3712 -0.3054 -0.1166
  391MOL   H11947699   4.001   8.413   8.452 -1.3589  0.3185  0.4765
  391MOL   H12047700   3.853   8.481   8.386  1.7366  1.7967  0.3007
  391MOL   H12147701   4.002   8.331   8.223  0.7465  0.3628  1.1236
  391MOL   H12247702   3.940   8.199   8.307  0.7782  0.5386 -0.8728
  392MOL     C147703   8.508   4.820   3.755 -0.1482  0.3449 -0.3134
  392MOL     C247704   8.472   4.690   3.826 -0.2720 -0.0959 -0.3328
  392MOL    Cl347705   0.023   4.695   3.988 -0.2195 -0.1626  0.4176
  392MOL     H447706   0.091   4.819   3.765 -0.1956 -2.2814  0.0879
  392MOL     H547707   8.490   4.821   3.647  0.0789 -0.3173 -0.3568
  392MOL     H647708   8.365   4.682   3.847 -0.6108  3.5259 -0.3617
  392MOL     H747709   8.478   4.906   3.816 -0.0066 -0.8980  1.5377
  392MOL     C847710   0.009   4.570   3.763 -0.7806  0.6284  0.2036
  392MOL     C947711   8.480   4.530   3.624 -0.2000  0.1184  0.4012
  392MOL   Cl1047712   8.316   4.487   3.651  0.3258  0.1341 -0.4608
  392MOL    H1147713   8.508   4.482   3.822  0.7714 -0.3245 -0.4874
  392MOL    H1247714   0.117   4.582   3.771 -0.7833  0.3176  0.7396
  392MOL    H1347715   8.478   4.609   3.550 -1.2020  0.1333  0.4422
  392MOL    C1447716   0.042   4.420   3.570 -0.1560  0.6508  1.3603
  392MOL    C1547717   0.003   4.378   3.427  0.6103  0.0508 -0.5965
  392MOL   Cl1647718   0.109   4.236   3.377 -0.2386 -0.2450 -0.0513
  392MOL    H1747719   0.035   4.327   3.627 -3.0512 -0.3526 -0.5243
  392MOL    H1847720   0.147   4.446   3.581  0.3773  0.1260 -2.0755
  392MOL    H1947721   8.425   4.345   3.435 -0.1321  1.9212 -2.1157
  392MOL    C2047722   0.018   4.483   3.312 -0.3190  0.5037  0.7812
  392MOL    C2147723   0.161   4.541   3.294  0.1869  0.7351 -0.1015
  392MOL   Cl2247724   0.175   4.686   3.407 -0.4888  0.0261 -0.2111
  392MOL    H2347725   8.461   4.555   3.313 -0.2142  0.6323  0.0768
  392MOL    H2447726   8.517   4.427   3.223 -0.5970  1.4491  0.2644
  392MOL    H2547727   0.234   4.475   3.341 -0.2004  1.3640  1.3889
  392MOL    C2647728   0.195   4.584   3.150  0.3520  0.0907 -0.3857
  392MOL    C2747729   0.227   4.471   3.050 -0.2809 -0.4722  1.2321
  392MOL   Cl2847730   0.341   4.358   3.115 -0.0691  0.3884  0.1439
  392MOL    H2947731   0.286   4.639   3.175  1.7963 -1.8614 -1.1573
  392MOL    H3047732   0.129   4.651   3.095  2.4664  2.5980  0.0611
  392MOL    H3147733   0.135   4.414   3.036 -0.6283 -0.1680  2.2254
  392MOL    C3247734   0.288   4.519   2.922 -0.0331  0.2380 -0.4035
  392MOL    C3347735   0.210   4.615   2.829  0.1086  0.3271 -0.2471
  392MOL   Cl3447736   0.062   4.515   2.791 -0.0757  0.3617  0.0682
  392MOL    H3547737   0.317   4.427   2.871  0.7138  1.2388 -1.8124
  392MOL    H3647738   0.377   4.568   2.961  0.9468 -2.2138  0.4824
  392MOL    H3747739   0.183   4.708   2.879 -1.2661 -0.7190  1.0016
  392MOL    C3847740   0.284   4.660   2.704  0.4445  0.1743 -0.5619
  392MOL    C3947741   0.396   4.755   2.726  0.6936  0.2774 -0.0307
  392MOL   Cl4047742   0.331   4.910   2.766  0.1944  0.0643  0.3159
  392MOL    H4147743   0.211   4.704   2.637  0.1820 -1.9608 -1.7307
  392MOL    H4247744   0.313   4.564   2.661 -0.1265 -0.8876  1.3626
  392MOL    H4347745   0.452   4.731   2.817 -1.8491  0.7219  1.7215
  392MOL    C4447746   0.501   4.771   2.610 -0.4755 -0.2359  0.1557
  392MOL    C4547747   0.587   4.650   2.580 -0.2795  0.0748  0.0588
  392MOL   Cl4647748   0.679   4.613   2.728 -0.4004 -0.1842 -0.0241
  392MOL    H4747749   0.567   4.853   2.640  1.5656 -0.9033 -2.3459
  392MOL    H4847750   0.451   4.814   2.523 -1.2829 -0.4620  0.5008
  392MOL    H4947751   0.521   4.565   2.560  0.8475 -1.0520  1.0885
  392MOL    C5047752   0.688   4.673   2.466 -0.5408  0.8103  0.0498
  392MOL    C5147753   0.756   4.552   2.412  0.5659 -0.4002  0.8279
  392MOL   Cl5247754   0.859   4.587   2.267 -0.1752  0.0678  0.0637
  392MOL    H5347755   0.765   4.741   2.502 -0.1726 -0.5867  2.0141
  392MOL    H5447756   0.639   4.713   2.378  1.2102  1.5179 -0.6358
  392MOL    H5547757   0.830   4.517   2.485  0.6309 -1.0329  0.4711
  392MOL    C5647758   0.661   4.424   2.384 -0.1320 -0.0594  0.1545
  392MOL    C5747759   0.564   4.419   2.266  0.6275 -0.3726 -0.1687
  392MOL   Cl5847760   0.447   4.549   2.274 -0.2786  0.3257  0.1255
  392MOL    H5947761   0.604   4.403   2.474  0.2256 -0.1716  0.3566
  392MOL    H6047762   0.730   4.341   2.370 -1.4706 -0.6823 -3.2508
  392MOL    H6147763   0.630   4.445   2.184  0.8453 -2.5646 -0.7386
  392MOL    C6247764   0.497   4.280   2.252  0.4459 -0.2062 -0.2689
  392MOL    C6347765   0.400   4.274   2.136  0.0832  0.7186 -0.2843
  392MOL   Cl6447766   0.286   4.136   2.173 -0.6193  0.1928 -0.3774
  392MOL    H6547767   0.443   4.269   2.346  1.2748  0.5836  0.3036
  392MOL    H6647768   0.569   4.198   2.252 -1.1490 -1.6540 -1.4381
  392MOL    H6747769   0.330   4.358   2.134 -0.9369 -0.1227 -0.5379
  392MOL    C6847770   0.468   4.258   1.998  0.3119 -0.5227  0.0737
  392MOL    C6947771   0.377   4.270   1.873  0.6538  0.4352  0.3617
  392MOL   Cl7047772   0.467   4.267   1.718 -0.1990 -0.3753 -0.1049
  392MOL    H7147773   0.511   4.158   1.984  1.0787 -0.6768  3.1897
  392MOL    H7247774   0.546   4.331   1.981  0.2808 -0.6501 -0.6354
  392MOL    H7347775   0.324   4.175   1.873  0.3582  0.5979  0.3677
  392MOL    C7447776   0.268   4.380   1.878  0.1313 -0.3893 -0.2443
  392MOL    C7547777   0.176   4.391   1.751  0.5508 -0.6678 -0.3631
  392MOL   Cl7647778   0.049   4.510   1.791  0.0836  0.4460  0.3664
  392MOL    H7747779   0.320   4.475   1.891 -0.6708  0.1597 -1.0128
  392MOL    H7847780   0.201   4.361   1.962  0.0404  1.3863  0.1190
  392MOL    H7947781   0.228   4.437   1.668 -0.5435 -1.8027 -1.7039
  392MOL    C8047782   0.116   4.260   1.697 -0.5123 -0.2548 -0.1790
  392MOL    C8147783   0.013   4.280   1.589 -0.0758  0.5912 -0.2244
  392MOL   Cl8247784   8.429   4.134   1.561  0.3006 -0.2050  0.5102
  392MOL    H8347785   0.066   4.227   1.788  2.0215  1.5954  1.9891
  392MOL    H8447786   0.194   4.185   1.681  2.1853  2.1134  1.3930
  392MOL    H8547787   8.470   4.363   1.609 -0.2071 -0.3674  3.7866
  392MOL    C8647788   0.090   4.301   1.462 -0.2821  0.8148 -0.1871
  392MOL    C8747789   0.015   4.315   1.333  0.6241 -0.7846  0.2028
  392MOL   Cl8847790   0.068   4.206   1.201  0.2210 -0.2619 -0.0067
  392MOL    H8947791   0.161   4.220   1.445  0.3059  0.7768  2.2483
  392MOL    H9047792   0.156   4.388   1.464 -0.9474  1.2984  1.1749
  392MOL    H9147793   8.436   4.290   1.348  0.9281 -3.1299 -1.3320
  392MOL    C9247794   0.008   4.467   1.280 -0.4928 -0.2461 -0.0873
  392MOL    C9347795   8.433   4.559   1.360  0.1461 -0.0157  0.0292
  392MOL   Cl9447796   8.264   4.519   1.322 -0.2728  0.0189 -0.3658
  392MOL    H9547797   8.510   4.477   1.174  0.6215 -0.7040 -0.3813
  392MOL    H9647798   0.111   4.504   1.272 -0.7323  0.5739  0.5162
  392MOL    H9747799   8.434   4.525   1.463 -0.2121  0.0561  0.0587
  392MOL    C9847800   8.457   4.708   1.344  0.1481  0.2072  0.2518
  392MOL    C9947801   0.075   4.764   1.374  0.2211 -0.1537 -0.1308
  392MOL  Cl10047802   0.138   4.694   1.521 -0.1412 -0.3005  0.0393
  392MOL   H10147803   8.381   4.772   1.388 -2.8142 -1.0995 -2.7241
  392MOL   H10247804   8.441   4.728   1.238 -1.6435  2.9655  0.9948
  392MOL   H10347805   0.145   4.739   1.294  1.8501  2.0280  0.5555
  392MOL   C10447806   0.087   4.920   1.390  1.0131  0.6864  0.5657
  392MOL   C10547807   0.032   5.002   1.275 -0.9801  0.2730  0.3003
  392MOL  Cl10647808   0.146   4.990   1.137  0.5990 -0.2928 -0.2356
  392MOL   H10747809   0.187   4.957   1.411  1.5028  0.4378 -1.3003
  392MOL   H10847810   0.031   4.937   1.482  0.1703  3.1591 -0.3655
  392MOL   H10947811   8.471   4.953   1.230  0.5339 -0.2591 -2.1500
  392MOL   C11047812   8.524   5.151   1.306  0.5972 -0.2645 -0.1291
  392MOL   C11147813   8.407   5.183   1.409  1.2480 -0.1040 -0.2447
  392MOL  Cl11247814   8.247   5.115   1.347 -0.2630 -0.0907  0.3768
  392MOL   H11347815   8.491   5.208   1.220  0.5091  0.8090  0.6010
  392MOL   H11447816   0.093   5.196   1.337 -0.1122  0.5596  0.8960
  392MOL   H11547817   8.421   5.130   1.503 -0.8363  1.3556  0.9045
  392MOL   C11647818   8.385   5.322   1.454 -0.4252  0.4528 -0.0282
  392MOL   C11747819   8.296   5.344   1.587 -0.1807  0.0551 -0.0336
  392MOL  Cl11847820   8.384   5.296   1.732 -0.1977  0.0603  0.0540
  392MOL   H11947821   8.317   5.346   1.373 -0.6564 -1.4229 -0.4073
  392MOL   H12047822   8.482   5.370   1.443  1.2186 -2.1846  2.0830
  392MOL   H12147823   8.263   5.448   1.593 -0.2255  0.0270  0.2558
  392MOL   H12247824   8.207   5.282   1.593  0.0207 -0.0991  1.6822
  393MOL     C147825   7.617   4.175   0.901  0.5625  0.8404  0.3255
  393MOL     C247826   7.467   4.147   0.947 -0.8041 -0.0698  0.1308
  393MOL    Cl347827   7.451   4.180   1.123 -0.0838  0.2292  0.2912
  393MOL     H447828   7.629   4.183   0.793  1.0245 -0.5279  0.2624
  393MOL     H547829   7.650   4.275   0.928 -0.0697  0.3573  3.0387
  393MOL     H647830   7.402   4.216   0.892 -0.1397  1.2361  0.9873
  393MOL     H747831   7.695   4.112   0.944  0.4857 -0.8353 -1.8719
  393MOL     C847832   7.428   3.997   0.898  0.6078 -0.5444  0.9553
  393MOL     C947833   7.446   3.960   0.748  0.3184 -0.3937  0.7012
  393MOL   Cl1047834   7.355   4.056   0.631 -0.3872  0.2553 -0.2378
  393MOL    H1147835   7.324   3.985   0.931 -0.7117  0.4171 -2.5916
  393MOL    H1247836   7.476   3.918   0.957  0.2130 -0.5189  1.3215
  393MOL    H1347837   7.547   3.979   0.714  0.6698 -1.3896  1.1613
  393MOL    C1447838   7.408   3.810   0.720  0.3082  0.3644 -0.1515
  393MOL    C1547839   7.433   3.759   0.576 -0.5775  0.6377 -0.8487
  393MOL   Cl1647840   7.404   3.584   0.572 -0.2646 -0.4725  0.3139
  393MOL    H1747841   7.300   3.804   0.734  0.4994 -2.3212  0.3530
  393MOL    H1847842   7.457   3.750   0.797 -4.8262 -0.3162  2.7836
  393MOL    H1947843   7.356   3.806   0.516 -2.4726  0.8579  1.6864
  393MOL    C2047844   7.572   3.794   0.518 -0.4497 -1.2558 -0.2832
  393MOL    C2147845   7.597   3.743   0.382  0.0421  0.5171  0.4417
  393MOL   Cl2247846   7.767   3.754   0.337  0.0412 -0.4352  0.0344
  393MOL    H2347847   7.656   3.760   0.578 -1.0112 -1.4736  0.3814
  393MOL    H2447848   7.587   3.902   0.522  1.2666 -1.5542  2.8658
  393MOL    H2547849   7.578   3.635   0.383  2.4633  0.0693  1.7551
  393MOL    C2647850   7.503   3.802   0.273  0.0498  0.0565  0.7984
  393MOL    C2747851   7.516   3.751   0.126  0.7039 -0.2498 -0.0166
  393MOL   Cl2847852   7.399   3.847   0.025  0.0776 -0.2887 -0.1178
  393MOL    H2947853   7.523   3.909   0.267 -1.8286  0.4104  0.4481
  393MOL    H3047854   7.399   3.792   0.304 -0.5981 -3.0725 -2.1791
  393MOL    H3147855   7.610   3.778   0.077  0.4286  2.3634  0.8106
  393MOL    C3247856   7.490   3.604   0.104  0.1297  0.6960 -0.1673
  393MOL    C3347857   7.529   3.557   8.491 -0.2724  0.6213  0.2550
  393MOL   Cl3447858   7.419   3.422   8.455  0.1505  0.1239  0.0086
  393MOL    H3547859   7.384   3.578   0.109 -0.0971  0.9651 -2.8019
  393MOL    H3647860   7.547   3.542   0.173 -0.6747  1.6903  1.4435
  393MOL    H3747861   7.500   3.636   8.423  2.2606 -0.3171 -2.0196
  393MOL    C3847862   7.675   3.502   8.485  0.0411 -0.0398 -0.2590
  393MOL    C3947863   7.794   3.602   8.502 -0.1606  0.3349 -0.3166
  393MOL   Cl4047864   7.763   3.727   8.377 -0.1724  0.1547  0.4428
  393MOL    H4147865   7.673   3.472   8.380  0.8106  2.8247 -1.1408
  393MOL    H4247866   7.693   3.417   0.025 -3.2843 -1.1859 -0.7281
  393MOL    H4347867   7.787   3.649   0.074 -1.3858 -0.6079  0.0547
  393MOL    C4447868   7.933   3.541   8.460  0.3729 -0.9590 -0.0785
  393MOL    C4547869   8.020   3.488   0.046  0.1236  0.1985 -0.4248
  393MOL   Cl4647870   7.936   3.361   0.131 -0.5978  0.2317 -0.0585
  393MOL    H4747871   7.999   3.604   8.400  0.8133 -1.2751  0.0731
  393MOL    H4847872   7.905   3.458   8.395 -2.2349 -0.2360  0.0730
  393MOL    H4947873   8.104   3.439   8.522 -0.0026 -0.4799  0.0230
  393MOL    C5047874   8.077   3.591   0.150  1.0108  0.4363  0.7038
  393MOL    C5147875   8.194   3.671   0.091  0.0042 -0.0423  0.0048
  393MOL   Cl5247876   8.341   3.566   0.074  0.2540  0.1922 -0.2509
  393MOL    H5347877   8.112   3.526   0.230  0.8146 -0.3680  0.1457
  393MOL    H5447878   8.001   3.656   0.192  0.4897 -0.0482  0.5099
  393MOL    H5547879   8.161   3.706   8.518  2.7839 -0.2806 -1.0590
  393MOL    C5647880   8.233   3.786   0.177 -0.5020 -0.3711 -1.0033
  393MOL    C5747881   8.332   3.900   0.127  0.3439 -0.2105 -0.1195
  393MOL   Cl5847882   8.370   4.013   0.259  0.1603 -0.3190 -0.0828
  393MOL    H5947883   8.273   3.749   0.272 -0.4083  2.3148  0.0708
  393MOL    H6047884   8.137   3.829   0.205  1.1207  1.3645  2.1520
  393MOL    H6147885   8.422   3.843   0.106 -1.4881 -2.9838 -0.7602
  393MOL    C6247886   8.290   3.967   0.002  0.1354  0.1401  0.5025
  393MOL    C6347887   8.407   4.016   8.434  0.1210  0.1920 -0.6105
  393MOL   Cl6447888   8.485   3.861   8.376  0.4065 -0.2575  0.2136
  393MOL    H6547889   8.219   4.050   0.008 -0.2816 -0.1872  0.1630
  393MOL    H6647890   8.235   3.894   8.468 -0.1679  1.3796 -0.7662
  393MOL    H6747891   8.355   4.057   8.348  0.2725  0.4855 -0.5594
  393MOL    C6847892   0.001   4.099   8.488  0.8398 -0.3861 -0.3920
  393MOL    C6947893   8.482   4.237   0.024 -0.6225  0.0303 -0.1305
  393MOL   Cl7047894   8.380   4.324   8.429  0.3877  0.2566  0.1337
  393MOL    H7147895   0.081   4.107   8.415 -0.8713  0.1408 -2.2734
  393MOL    H7247896   0.048   4.047   0.046 -0.2112 -0.8730 -0.0881
  393MOL    H7347897   8.417   4.225   0.111  0.4227  0.4737  0.7179
  393MOL    C7447898   0.072   4.344   0.062 -0.0377 -0.4665  0.4771
  393MOL    C7547899   0.166   4.280   0.173 -0.6873 -0.2472  0.0217
  393MOL   Cl7647900   0.061   4.263   0.319 -0.5415 -0.1885  0.2266
  393MOL    H7747901   0.029   4.438   0.099 -1.0835 -0.4635 -0.7034
  393MOL    H7847902   0.135   4.359   8.500  0.1451  2.2718  1.0248
  393MOL    H7947903   0.194   4.179   0.145  0.5303 -0.1419  0.8150
  393MOL    C8047904   0.288   4.364   0.200 -0.6205 -0.4226  0.5350
  393MOL    C8147905   0.383   4.314   0.305  0.0750 -0.8778  0.2266
  393MOL   Cl8247906   0.517   4.431   0.307  0.1643  0.0220 -0.4174
  393MOL    H8347907   0.254   4.462   0.234 -0.0417 -0.1526  0.3433
  393MOL    H8447908   0.348   4.392   0.114 -0.5669 -1.2192  0.3116
  393MOL    H8547909   0.349   4.318   0.409  0.4107 -0.2267  0.3135
  393MOL    C8647910   0.454   4.185   0.270 -0.1749  0.0812  0.4864
  393MOL    C8747911   0.386   4.061   0.340 -0.5218  0.2610 -0.0720
  393MOL   Cl8847912   0.456   4.033   0.499 -0.0617  0.1482 -0.0793
  393MOL    H8947913   0.559   4.183   0.297 -0.4706  1.6512  1.7454
  393MOL    H9047914   0.454   4.165   0.162 -1.2795 -0.5812  0.5962
  393MOL    H9147915   0.278   4.080   0.345 -0.6023 -0.4952  1.3056
  393MOL    C9247916   0.391   3.932   0.245 -0.4830 -0.0724 -0.1434
  393MOL    C9347917   0.321   3.804   0.297 -0.1546  0.1516 -0.1984
  393MOL   Cl9447918   0.335   3.682   0.165  0.1346  0.2882 -0.0748
  393MOL    H9547919   0.496   3.904   0.238 -0.9699 -2.0116 -0.2369
  393MOL    H9647920   0.342   3.956   0.150  1.4262 -0.0530 -1.1394
  393MOL    H9747921   0.388   3.768   0.374 -0.6203 -0.8783 -0.2654
  393MOL    C9847922   0.181   3.811   0.354  0.2080 -0.3594 -1.0653
  393MOL    C9947923   0.124   3.670   0.405  0.1144  0.5089  0.0066
  393MOL  Cl10047924   8.483   3.691   0.476 -0.2090 -0.0052  0.2512
  393MOL   H10147925   0.112   3.850   0.279  0.4277 -0.7591 -1.4810
  393MOL   H10247926   0.179   3.875   0.442  2.7603 -2.7437  0.8181
  393MOL   H10347927   0.106   3.618   0.311  1.1790 -3.0933  1.7328
  393MOL   C10447928   0.217   3.599   0.505 -1.0033  0.3425 -0.4931
  393MOL   C10547929   0.171   3.476   0.586  0.7565  0.3659  0.1767
  393MOL  Cl10647930   0.289   3.451   0.721  0.1857 -0.3611 -0.0040
  393MOL   H10747931   0.251   3.678   0.573  0.0424  1.6563 -2.4767
  393MOL   H10847932   0.309   3.569   0.454 -0.5165 -0.2883  0.7524
  393MOL   H10947933   0.083   3.490   0.648  0.0968  0.9501 -0.8884
  393MOL   C11047934   0.165   3.347   0.509  0.3049 -0.1177  0.0085
  393MOL   C11147935   0.087   3.238   0.586 -0.6604  0.3749  0.4279
  393MOL  Cl11247936   0.158   3.083   0.530 -0.1376 -0.0380  0.1269
  393MOL   H11347937   0.256   3.321   0.455 -0.1088 -0.6439 -0.4444
  393MOL   H11447938   0.099   3.362   0.424 -0.8522 -0.8982  0.7451
  393MOL   H11547939   0.110   3.247   0.692 -0.4845  0.9596  0.3448
  393MOL   C11647940   8.455   3.237   0.571 -1.0427  0.5191 -0.4028
  393MOL   C11747941   8.379   3.132   0.650  0.0255  0.5199 -0.3378
  393MOL  Cl11847942   8.419   3.151   0.826  0.2045 -0.1640  0.4318
  393MOL   H11947943   8.427   3.216   0.468 -0.5849 -2.0473 -0.0395
  393MOL   H12047944   8.410   3.334   0.589 -2.7750 -0.4048  0.3599
  393MOL   H12147945   8.272   3.146   0.645  0.0013  0.3857 -0.2350
  393MOL   H12247946   8.401   3.029   0.620  2.0471  0.4221  1.3619
  394MOL     C147947   4.957   4.400   5.153 -0.1404 -0.7948 -0.3578
  394MOL     C247948   4.845   4.427   5.256  0.0393 -0.1837  0.0269
  394MOL    Cl347949   4.715   4.304   5.246 -0.2286  0.0153  0.0223
  394MOL     H447950   4.929   4.440   5.056  2.2259  4.3311  0.9166
  394MOL     H547951   5.044   4.458   5.182 -0.2580 -2.3090  3.3532
  394MOL     H647952   4.888   4.405   5.354  0.4168  0.9433  0.1206
  394MOL     H747953   4.972   4.293   5.138  0.7867 -0.4734 -1.8284
  394MOL     C847954   4.778   4.565   5.262  0.0349  0.6667  0.6271
  394MOL     C947955   4.858   4.683   5.320  0.5857  0.2036 -0.1737
  394MOL   Cl1047956   4.878   4.673   5.497 -0.0961 -0.1933  0.0654
  394MOL    H1147957   4.675   4.559   5.299  0.2575 -0.3908  1.0753
  394MOL    H1247958   4.755   4.582   5.157 -0.7720 -2.0800  0.3374
  394MOL    H1347959   4.956   4.671   5.272 -1.2134 -0.3425 -3.9021
  394MOL    C1447960   4.802   4.817   5.279 -0.4483  0.3032  0.0301
  394MOL    C1547961   4.894   4.940   5.312 -1.1169 -0.6364  0.3653
  394MOL   Cl1647962   4.809   5.098   5.303 -0.2474 -0.1051 -0.0185
  394MOL    H1747963   4.704   4.829   5.326 -1.3496 -1.5695 -1.2848
  394MOL    H1847964   4.774   4.833   5.175  0.2578 -1.2651 -0.4250
  394MOL    H1947965   4.925   4.936   5.416  0.4510  0.9104 -0.0129
  394MOL    C2047966   5.032   4.955   5.240 -0.5510  0.3381  0.1594
  394MOL    C2147967   5.019   4.959   5.086 -0.1572  0.6670  0.3106
  394MOL   Cl2247968   4.980   4.802   5.008  0.1764  0.4551  0.0416
  394MOL    H2347969   5.104   4.876   5.259  1.9656  2.4242 -0.4436
  394MOL    H2447970   5.079   5.045   5.278  1.0674 -0.2250 -0.4409
  394MOL    H2547971   4.938   5.024   5.054  0.9222  1.6899 -0.3798
  394MOL    C2647972   5.143   5.024   5.025 -0.7649 -1.0587  0.4101
  394MOL    C2747973   5.139   5.043   4.873 -0.0237 -0.2735 -0.3529
  394MOL   Cl2847974   5.297   5.074   4.806 -0.2193  0.3666  0.1108
  394MOL    H2947975   5.227   4.965   5.061  0.5120 -0.1907 -1.1317
  394MOL    H3047976   5.170   5.116   5.077  0.4329  0.0045 -2.0244
  394MOL    H3147977   5.096   4.954   4.828  2.6038 -1.4430 -0.6312
  394MOL    C3247978   5.047   5.156   4.827 -0.3656 -0.4727 -0.0590
  394MOL    C3347979   4.960   5.127   4.700  0.5489 -0.7659  0.0998
  394MOL   Cl3447980   5.062   5.109   4.563  0.1301  0.0374  0.0695
  394MOL    H3547981   5.098   5.246   4.792 -1.0396  1.4143  3.5495
  394MOL    H3647982   4.976   5.194   4.901 -0.3204 -1.9616  0.7594
  394MOL    H3747983   4.900   5.039   4.720 -0.2294 -0.1282  0.5944
  394MOL    C3847984   4.859   5.243   4.672  0.5362  0.0991 -0.1921
  394MOL    C3947985   4.747   5.220   4.565  0.0399 -0.1013  1.1075
  394MOL   Cl4047986   4.811   5.237   4.405 -0.0716 -0.2272  0.0245
  394MOL    H4147987   4.907   5.337   4.644  2.1850 -0.0500  1.9879
  394MOL    H4247988   4.814   5.269   4.768  0.6530  1.3172 -0.4561
  394MOL    H4347989   4.689   5.129   4.581 -0.1198  0.1913  2.2602
  394MOL    C4447990   4.644   5.339   4.586 -0.0389  0.1627  0.4341
  394MOL    C4547991   4.555   5.311   4.701 -0.6645 -0.2579 -0.0407
  394MOL   Cl4647992   4.439   5.183   4.659 -0.0080 -0.2352  0.1359
  394MOL    H4747993   4.586   5.360   4.497 -0.1140  0.0040  0.4459
  394MOL    H4847994   4.703   5.431   4.592 -0.8112  0.5883  1.6179
  394MOL    H4947995   4.610   5.272   4.787 -0.8304  0.6583  0.4824
  394MOL    C5047996   4.474   5.435   4.738 -0.1114 -0.4444 -0.2398
  394MOL    C5147997   4.557   5.558   4.790 -0.2704 -0.1579  0.5355
  394MOL   Cl5247998   4.672   5.504   4.914 -0.0699 -0.0890 -0.2356
  394MOL    H5347999   4.401   5.417   4.816 -0.4331 -1.2295 -0.7188
  394MOL    H5448000   4.414   5.468   4.653 -1.1893 -1.4755  0.1072
  394MOL    H5548001   4.611   5.593   4.702 -2.8604 -0.4843 -1.2270
  394MOL    C5648002   4.465   5.677   4.843 -0.7752 -0.3867 -1.0845
  394MOL    C5748003   4.539   5.807   4.898 -0.9137 -0.2756  0.1254
  394MOL   Cl5848004   4.680   5.842   4.799 -0.5188  0.3312  0.4018
  394MOL    H5948005   4.385   5.631   4.902  0.1163  1.3033  1.5165
  394MOL    H6048006   4.408   5.720   4.761 -1.2157  1.3950  0.1389
  394MOL    H6148007   4.467   5.889   4.902 -0.3534  0.3545 -2.0159
  394MOL    C6248008   4.603   5.784   5.036 -0.3023  0.2924 -0.7294
  394MOL    C6348009   4.502   5.733   5.141 -0.2159 -0.0426  0.0778
  394MOL   Cl6448010   4.350   5.826   5.142  0.6043  0.0641 -0.0686
  394MOL    H6548011   4.642   5.877   5.079  0.9672  0.3934 -2.0504
  394MOL    H6648012   4.695   5.726   5.031  0.6051  1.4590  1.5392
  394MOL    H6748013   4.466   5.639   5.098 -4.1308  1.7636 -0.7911
  394MOL    C6848014   4.556   5.720   5.285  0.3570  0.3902  0.1788
  394MOL    C6948015   4.682   5.628   5.311 -0.3464  0.1021  0.3952
  394MOL   Cl7048016   4.659   5.547   5.464  0.3617 -0.0947  0.2689
  394MOL    H7148017   4.468   5.692   5.343 -0.3758  2.2785  0.0017
  394MOL    H7248018   4.595   5.805   5.341  0.5008 -1.2089  2.5886
  394MOL    H7348019   4.693   5.555   5.230 -1.1624 -1.6069  1.8079
  394MOL    C7448020   4.815   5.703   5.317  0.6758  0.2216 -0.0804
  394MOL    C7548021   4.944   5.616   5.331  0.1848 -0.5097 -0.3537
  394MOL   Cl7648022   5.079   5.727   5.370 -0.1953 -0.0415 -0.1979
  394MOL    H7748023   4.815   5.781   5.394 -0.1805 -1.3960  1.6114
  394MOL    H7848024   4.819   5.752   5.220  0.8414 -2.2769 -1.3631
  394MOL    H7948025   4.942   5.549   5.417 -0.7271 -0.7215 -0.5361
  394MOL    C8048026   4.987   5.531   5.213  0.4767 -0.4125  0.5193
  394MOL    C8148027   5.120   5.461   5.213  0.3125 -0.2211  0.3260
  394MOL   Cl8248028   5.155   5.408   5.045 -0.0465 -0.3254  0.0940
  394MOL    H8348029   4.972   5.596   5.127  0.5628  1.1698  1.6737
  394MOL    H8448030   4.911   5.453   5.214  0.8339 -0.7656 -0.0335
  394MOL    H8548031   5.200   5.533   5.222  0.9664 -0.7578 -1.1014
  394MOL    C8648032   5.122   5.345   5.314 -0.4515 -0.2289 -0.2286
  394MOL    C8748033   5.263   5.314   5.365  0.1620  0.5222  0.2685
  394MOL   Cl8848034   5.247   5.161   5.454  0.1746  0.0964 -0.2680
  394MOL    H8948035   5.087   5.254   5.265  0.4061 -1.0663  0.6979
  394MOL    H9048036   5.068   5.365   5.407  0.5464  0.3318  0.2445
  394MOL    H9148037   5.335   5.309   5.284  1.3002  2.0922  1.1483
  394MOL    C9248038   5.321   5.417   5.468 -0.0706  0.6225  0.2814
  394MOL    C9348039   5.478   5.424   5.481  0.3352 -0.6805  0.3419
  394MOL   Cl9448040   5.515   5.553   5.598 -0.1854  0.1237  0.1192
  394MOL    H9548041   5.278   5.410   5.568 -0.4451  0.1164  0.0925
  394MOL    H9648042   5.284   5.513   5.431 -0.9711  1.2515  2.6751
  394MOL    H9748043   5.509   5.330   5.527  3.4376  0.5311  0.8952
  394MOL    C9848044   5.553   5.451   5.343  0.7064 -0.6992  0.0916
  394MOL    C9948045   5.703   5.471   5.355  0.1602  0.0778 -0.1578
  394MOL  Cl10048046   5.757   5.518   5.194  0.0464 -0.0851  0.1491
  394MOL   H10148047   5.496   5.532   5.298 -1.7982 -1.9434  0.9554
  394MOL   H10248048   5.535   5.367   5.276 -0.6294 -0.9198  0.7053
  394MOL   H10348049   5.724   5.562   5.411  1.4889  1.2124 -2.4093
  394MOL   C10448050   5.793   5.378   5.420 -0.2458  0.2192 -0.6069
  394MOL   C10548051   5.946   5.389   5.407  0.1707 -0.4681  0.1155
  394MOL  Cl10648052   6.013   5.232   5.448  0.0880 -0.1417 -0.4797
  394MOL   H10748053   5.771   5.273   5.406  2.1723 -0.4425  0.4500
  394MOL   H10848054   5.779   5.391   5.527  2.6199 -1.3348 -0.0115
  394MOL   H10948055   5.976   5.398   5.302 -0.8254 -0.8417 -0.2049
  394MOL   C11048056   6.014   5.501   5.495 -0.2060  0.1971 -0.8210
  394MOL   C11148057   6.155   5.555   5.450  0.0165  0.0168 -1.6508
  394MOL  Cl11248058   6.247   5.599   5.593  0.2285 -0.1667  0.3512
  394MOL   H11348059   6.034   5.459   5.593 -1.9939 -1.2631 -1.0551
  394MOL   H11448060   5.942   5.581   5.505 -1.2569 -0.9624  1.3824
  394MOL   H11548061   6.200   5.471   5.398  1.7154  0.5972 -1.1317
  394MOL   C11648062   6.152   5.681   5.357  0.0246  0.3598 -0.2425
  394MOL   C11748063   6.120   5.653   5.205  0.3122 -0.7000  0.0690
  394MOL  Cl11848064   6.220   5.527   5.142  0.2815  0.2883  0.1917
  394MOL   H11948065   6.253   5.721   5.365 -0.2244  0.5198  3.1565
  394MOL   H12048066   6.085   5.759   5.393 -0.9730  0.2399 -1.7793
  394MOL   H12148067   6.016   5.623   5.190 -0.8650  3.5232 -0.7090
  394MOL   H12248068   6.126   5.744   5.146  1.3083  0.0962  1.3883
  395MOL     C148069   7.115   4.203   4.305  0.2724  0.8644 -0.2531
  395MOL     C248070   6.970   4.224   4.251  0.9324 -0.2511  0.7813
  395MOL    Cl348071   6.871   4.293   4.374 -0.0875  0.2012 -0.2963
  395MOL     H448072   7.132   4.121   4.375  0.4187  1.1371  0.0312
  395MOL     H548073   7.183   4.178   4.224 -1.1062  0.7167 -1.3925
  395MOL     H648074   6.980   4.299   4.172  0.8695 -0.9392  0.1112
  395MOL     H748075   7.139   4.299   4.349 -2.4704  1.0262  0.9980
  395MOL     C848076   6.903   4.103   4.187  0.1262  0.8474 -0.1952
  395MOL     C948077   6.777   4.136   4.097  0.0150  0.6414 -0.1520
  395MOL   Cl1048078   6.708   3.978   4.042  0.0202  0.2267  0.0472
  395MOL    H1148079   6.878   4.028   4.262  0.8208  2.8158  2.0486
  395MOL    H1248080   6.980   4.048   4.133 -0.6885 -0.9284  0.4307
  395MOL    H1348081   6.702   4.171   4.167  0.6253  0.0616  0.7994
  395MOL    C1448082   6.817   4.225   3.977 -0.3534 -1.0931  0.1680
  395MOL    C1548083   6.691   4.268   3.893 -1.0449  0.3212  0.2063
  395MOL   Cl1648084   6.753   4.326   3.734 -0.0352 -0.1297 -0.1434
  395MOL    H1748085   6.888   4.169   3.917  1.9511  1.0065  0.8555
  395MOL    H1848086   6.872   4.314   4.010 -0.6515  0.2334 -2.8041
  395MOL    H1948087   6.634   4.179   3.868 -0.6256 -0.3553  1.6311
  395MOL    C2048088   6.612   4.378   3.966 -0.7575 -0.3373 -0.3359
  395MOL    C2148089   6.483   4.339   4.036  0.3074 -0.1108  0.1939
  395MOL   Cl2248090   6.374   4.277   3.911  0.5000  0.0622 -0.0256
  395MOL    H2348091   6.599   4.461   3.897  0.9947  0.0410 -0.2394
  395MOL    H2448092   6.674   4.425   4.043 -0.9530  0.2177 -0.5171
  395MOL    H2548093   6.496   4.253   4.101 -0.2190 -2.7018 -3.0321
  395MOL    C2648094   6.412   4.453   4.107  0.8256  0.2140  0.0768
  395MOL    C2748095   6.481   4.489   4.243 -0.1999  0.0411  0.6611
  395MOL   Cl2848096   6.425   4.378   4.364  0.3135  0.1340 -0.1030
  395MOL    H2948097   6.305   4.429   4.110  0.6849  0.6471 -1.0975
  395MOL    H3048098   6.422   4.532   4.032 -0.9125 -0.4695 -0.9013
  395MOL    H3148099   6.586   4.464   4.231 -0.6156 -0.8474 -1.1657
  395MOL    C3248100   6.457   4.638   4.273 -0.3217  0.2125 -0.1598
  395MOL    C3348101   6.499   4.695   4.406  0.4026  0.3617  0.6565
  395MOL   Cl3448102   6.420   4.855   4.412  0.0163  0.2668  0.6335
  395MOL    H3548103   6.349   4.645   4.260 -0.2843 -1.1293 -1.3175
  395MOL    H3648104   6.510   4.704   4.205 -0.0244 -1.4223 -1.5442
  395MOL    H3748105   6.443   4.640   4.482 -1.0695  0.6873 -0.1833
  395MOL    C3848106   6.650   4.704   4.420 -0.2701 -0.1321 -0.0489
  395MOL    C3948107   6.694   4.725   4.570 -0.1613 -0.3604  0.2796
  395MOL   Cl4048108   6.697   4.896   4.599  0.2210  0.1434  0.2088
  395MOL    H4148109   6.687   4.780   4.351 -2.3250 -0.4798 -1.6004
  395MOL    H4248110   6.690   4.607   4.393 -1.8808 -0.8431  0.0884
  395MOL    H4348111   6.627   4.683   4.646  0.3440  0.4359  1.1859
  395MOL    C4448112   6.841   4.674   4.593  0.0385  0.5661  0.0005
  395MOL    C4548113   6.914   4.715   4.726 -0.6657 -0.0464 -0.2365
  395MOL   Cl4648114   7.083   4.665   4.708 -0.2806  0.1940  0.1278
  395MOL    H4748115   6.903   4.688   4.503 -0.7498 -1.9735 -0.9642
  395MOL    H4848116   6.835   4.566   4.595 -0.5091  0.5997  0.0603
  395MOL    H4948117   6.924   4.824   4.723  1.4565  0.0040  4.5141
  395MOL    C5048118   6.848   4.674   4.860  0.0514  0.0688  0.4845
  395MOL    C5148119   6.944   4.670   4.985  0.7946 -0.8016 -0.4996
  395MOL   Cl5248120   6.870   4.590   5.120  0.2343 -0.0967  0.3219
  395MOL    H5348121   6.801   4.578   4.836 -0.0298  0.6276 -1.6991
  395MOL    H5448122   6.760   4.738   4.864 -0.5992 -0.6746 -1.0891
  395MOL    H5548123   7.030   4.607   4.964  0.0075 -1.6828 -1.0964
  395MOL    C5648124   6.990   4.810   5.030  0.3000  0.0586 -0.3777
  395MOL    C5748125   7.111   4.871   4.966  0.8787 -0.1919 -0.1157
  395MOL   Cl5848126   7.249   4.759   4.963 -0.0693 -0.3033 -0.2770
  395MOL    H5948127   7.019   4.802   5.135 -0.0364  1.0322 -0.2076
  395MOL    H6048128   6.900   4.871   5.022  1.2237  1.7589  1.7441
  395MOL    H6148129   7.071   4.902   4.870 -3.5216 -0.9650  1.3486
  395MOL    C6248130   7.160   5.004   5.030  0.2303  0.2835 -0.0335
  395MOL    C6348131   7.271   5.092   4.964  0.4110 -0.2995 -0.5714
  395MOL   Cl6448132   7.334   5.201   5.090  0.0279  0.0913  0.1102
  395MOL    H6548133   7.200   4.987   5.130 -4.1245  3.6386  2.4342
  395MOL    H6648134   7.073   5.067   5.045 -0.2278 -0.3781  0.1187
  395MOL    H6748135   7.360   5.037   4.931  0.2653 -0.5816 -0.4969
  395MOL    C6848136   7.238   5.161   4.833 -0.3221 -0.3505 -0.4624
  395MOL    C6948137   7.347   5.187   4.725 -0.3546  0.2761  0.0844
  395MOL   Cl7048138   7.406   5.027   4.666 -0.1526 -0.0276 -0.2539
  395MOL    H7148139   7.185   5.253   4.855 -0.7975 -0.9601  0.9357
  395MOL    H7248140   7.156   5.105   4.787 -0.2451 -1.1921  0.4037
  395MOL    H7348141   7.292   5.233   4.643  1.0648  1.7513 -0.0799
  395MOL    C7448142   7.455   5.283   4.772  0.3510 -0.1550 -0.3565
  395MOL    C7548143   7.577   5.303   4.685 -0.5325  1.0331 -0.0616
  395MOL   Cl7648144   7.710   5.391   4.764  0.1451 -0.1272  0.4373
  395MOL    H7748145   7.499   5.241   4.863 -0.0272  0.3452  0.0552
  395MOL    H7848146   7.410   5.376   4.806  1.4665  1.8831 -4.2489
  395MOL    H7948147   7.623   5.212   4.648 -1.7876  0.9038 -1.3394
  395MOL    C8048148   7.536   5.389   4.559 -0.1644 -0.2651  0.0762
  395MOL    C8148149   7.633   5.390   4.435 -0.2418 -0.0241 -0.9237
  395MOL   Cl8248150   7.590   5.515   4.320 -0.0235  0.5525  0.2755
  395MOL    H8348151   7.525   5.491   4.595 -0.7032 -0.6197  0.9206
  395MOL    H8448152   7.440   5.362   4.516  0.3294 -0.6471 -0.7957
  395MOL    H8548153   7.728   5.424   4.475  0.0879 -1.1514 -0.7355
  395MOL    C8648154   7.651   5.255   4.365  0.6160 -0.1468 -0.0465
  395MOL    C8748155   7.737   5.244   4.244  0.3590 -0.4891 -0.7779
  395MOL   Cl8848156   7.706   5.090   4.153  0.1696  0.2057  0.6960
  395MOL    H8948157   7.553   5.238   4.320  1.7471  0.7808 -2.9689
  395MOL    H9048158   7.667   5.178   4.441 -1.9616  0.4197  1.1048
  395MOL    H9148159   7.710   5.328   4.180 -3.3119 -1.1517 -0.1694
  395MOL    C9248160   7.885   5.263   4.275  0.2840 -0.0248  0.3461
  395MOL    C9348161   7.986   5.256   4.161 -0.5252  0.0287  0.0718
  395MOL   Cl9448162   8.146   5.296   4.220  0.3652  0.5535 -0.1827
  395MOL    H9548163   7.919   5.196   4.354  0.0233  0.0247  0.5009
  395MOL    H9648164   7.895   5.360   4.324  1.3558  0.2830 -0.4770
  395MOL    H9748165   7.994   5.152   4.128 -1.9910 -0.7101  1.9302
  395MOL    C9848166   7.943   5.350   4.040 -0.4996  0.4102  0.2545
  395MOL    C9948167   8.041   5.369   3.922 -0.0307  0.2654  0.3143
  395MOL  Cl10048168   7.985   5.485   3.802  0.1178  0.1307  0.1911
  395MOL   H10148169   7.927   5.449   4.084 -0.5040  0.6332 -0.2557
  395MOL   H10248170   7.845   5.314   4.010  0.3887 -1.2489 -0.7208
  395MOL   H10348171   8.133   5.407   3.967  1.9351 -0.2810 -3.0008
  395MOL   C10448172   8.082   5.234   3.854 -0.2872 -0.6933  1.1422
  395MOL   C10548173   8.191   5.232   3.737  0.2763 -0.0901  0.1098
  395MOL  Cl10648174   8.202   5.069   3.667 -0.1901 -0.1918 -0.3772
  395MOL   H10748175   7.985   5.200   3.818  0.2356 -1.2909  0.2789
  395MOL   H10848176   8.105   5.158   3.929  0.4351 -0.2274  1.3934
  395MOL   H10948177   8.146   5.293   3.658 -0.6637 -0.6993  0.1747
  395MOL   C11048178   8.333   5.294   3.768  0.1287  0.4606  0.0103
  395MOL   C11148179   8.417   5.297   3.634  0.1583 -0.2621 -0.2378
  395MOL  Cl11248180   0.057   5.300   3.679  0.1597  0.0137  0.2692
  395MOL   H11348181   8.372   5.229   3.846  2.6299  0.1054 -1.4757
  395MOL   H11448182   8.326   5.389   3.821 -2.6792  0.0306  0.4597
  395MOL   H11548183   8.403   5.206   3.576 -1.7293 -0.0690 -0.1058
  395MOL   C11648184   8.390   5.413   3.539  0.3378 -0.2901 -0.0744
  395MOL   C11748185   8.402   5.549   3.610  0.8849  0.7288 -0.1037
  395MOL  Cl11848186   8.408   5.686   3.496 -0.4045  0.6749 -0.1191
  395MOL   H11948187   8.290   5.394   3.500  0.4227 -2.1431  0.5980
  395MOL   H12048188   8.454   5.410   3.450  1.1104 -0.5732  0.4845
  395MOL   H12148189   8.306   5.561   3.661  0.4453  0.1417 -0.7892
  395MOL   H12248190   8.477   5.563   3.687  0.8745 -3.1956  0.6826
  396MOL     C148191   1.423   5.667   7.614 -0.0812 -0.0792  0.1955
  396MOL     C248192   1.511   5.790   7.592 -0.1250  0.0733  0.1049
  396MOL    Cl348193   1.607   5.818   7.733  0.2004  0.5456  0.1844
  396MOL     H448194   1.503   5.593   7.626  1.7303  1.4952 -1.8493
  396MOL     H548195   1.367   5.662   7.707 -1.3158  1.2206 -0.4679
  396MOL     H648196   1.591   5.771   7.519  2.1149  1.8128  2.0380
  396MOL     H748197   1.363   5.643   7.526  3.5444 -2.3047 -1.8127
  396MOL     C848198   1.433   5.917   7.565  0.1738  0.4324  0.3628
  396MOL     C948199   1.344   5.902   7.434 -0.1869  0.4895  0.3357
  396MOL   Cl1048200   1.442   5.832   7.306  0.0654  0.0685  0.0994
  396MOL    H1148201   1.496   6.005   7.554 -1.7402  1.6054 -1.8041
  396MOL    H1248202   1.370   5.936   7.652  0.5147  0.5539  0.5846
  396MOL    H1348203   1.266   5.833   7.463 -0.1487  0.0767 -0.5442
  396MOL    C1448204   1.296   6.039   7.383  0.2481 -0.6689  0.7558
  396MOL    C1548205   1.221   6.126   7.490 -0.5584 -0.2506 -0.2746
  396MOL   Cl1648206   1.081   6.035   7.565 -0.1198 -0.3589  0.0028
  396MOL    H1748207   1.230   6.013   7.301 -0.2636 -0.1832  1.0152
  396MOL    H1848208   1.383   6.095   7.348 -0.3202 -0.3344 -0.1458
  396MOL    H1948209   1.287   6.151   7.573  0.0044 -0.6192 -0.6161
  396MOL    C2048210   1.171   6.265   7.432  0.3406  0.6497  0.3372
  396MOL    C2148211   1.143   6.377   7.535  0.1527 -0.2330  1.0018
  396MOL   Cl2248212   0.991   6.456   7.498  0.0383  0.0748 -0.3955
  396MOL    H2348213   1.078   6.232   7.384  0.3729  0.8279  0.1497
  396MOL    H2448214   1.224   6.319   7.353 -2.1507  0.6901 -1.3653
  396MOL    H2548215   1.139   6.332   7.634 -0.7102 -0.7624  0.7362
  396MOL    C2648216   1.250   6.492   7.527  0.1256 -0.1667  0.0871
  396MOL    C2748217   1.399   6.466   7.565  0.1231  0.3524 -0.3446
  396MOL   Cl2848218   1.412   6.406   7.738  0.0563 -0.5369 -0.6500
  396MOL    H2948219   1.211   6.582   7.572 -0.7006 -0.3826 -0.1973
  396MOL    H3048220   1.244   6.532   7.426  0.2625 -0.8446 -0.1924
  396MOL    H3148221   1.447   6.385   7.511 -0.0899 -0.6514  0.9577
  396MOL    C3248222   1.486   6.590   7.547 -0.0083  0.3988  0.1489
  396MOL    C3348223   1.499   6.644   7.399  0.3313  0.0899 -0.7642
  396MOL   Cl3448224   1.556   6.509   7.293  0.1751 -0.4910 -0.2473
  396MOL    H3548225   1.582   6.568   7.594 -1.1163 -2.5377  1.1666
  396MOL    H3648226   1.444   6.663   7.617 -1.3138 -1.1398  0.9982
  396MOL    H3748227   1.396   6.667   7.372  0.4230 -0.9007 -2.0295
  396MOL    C3848228   1.598   6.764   7.399 -0.3496  0.7390  0.5292
  396MOL    C3948229   1.534   6.891   7.463 -0.0507  0.0821 -0.3318
  396MOL   Cl4048230   1.398   6.953   7.361 -0.0144 -0.0942 -0.0965
  396MOL    H4148231   1.625   6.787   7.296 -2.3159  0.5901 -0.0401
  396MOL    H4248232   1.688   6.731   7.451 -0.4687  0.6616  0.6905
  396MOL    H4348233   1.495   6.863   7.561 -3.2632 -0.5650 -1.7119
  396MOL    C4448234   1.642   6.994   7.490 -0.1242 -0.0361  0.2545
  396MOL    C4548235   1.584   7.132   7.546 -0.4353  0.6130 -0.5079
  396MOL   Cl4648236   1.529   7.245   7.419 -0.1075  0.1413 -0.9294
  396MOL    H4748237   1.705   6.992   7.401 -2.9482 -1.3943 -1.8105
  396MOL    H4848238   1.703   6.946   7.566 -1.3023 -1.5642  0.2610
  396MOL    H4948239   1.496   7.112   7.607  1.4624 -0.9406  1.8282
  396MOL    C5048240   1.696   7.210   7.615  0.6729  0.1095 -0.6080
  396MOL    C5148241   1.732   7.166   7.759  0.3328 -0.1225 -0.6771
  396MOL   Cl5248242   1.581   7.157   7.855  0.2973 -0.1173 -0.0157
  396MOL    H5348243   1.659   7.310   7.638  1.2388 -0.3087  2.3489
  396MOL    H5448244   1.784   7.232   7.555  0.6214 -0.4024 -0.8716
  396MOL    H5548245   1.778   7.067   7.756 -0.3791 -0.5474  1.3756
  396MOL    C5648246   1.835   7.256   7.827  0.0354 -0.2139 -0.1884
  396MOL    C5748247   1.870   7.216   7.972  0.0735  0.6597  0.2077
  396MOL   Cl5848248   1.942   7.365   8.057 -0.0325  0.0929 -0.1914
  396MOL    H5948249   1.798   7.358   7.823  2.3929  0.6666 -0.4139
  396MOL    H6048250   1.918   7.258   7.755 -0.0745 -1.1451 -0.3435
  396MOL    H6148251   1.780   7.194   8.030  0.7276 -0.9535  0.6339
  396MOL    C6248252   1.965   7.097   7.983  0.2041  0.5243  0.6688
  396MOL    C6348253   2.036   7.060   8.115 -0.0971 -0.0634  0.1246
  396MOL   Cl6448254   2.109   6.896   8.109  0.4095  0.2716 -0.0423
  396MOL    H6548255   2.042   7.086   7.906  0.2310 -0.5359  0.8481
  396MOL    H6648256   1.897   7.014   7.961  1.3192 -0.0913 -0.5386
  396MOL    H6748257   2.122   7.123   8.138 -1.2752  0.4677  3.2186
  396MOL    C6848258   1.950   7.063   8.244  0.5919 -0.2287 -0.1119
  396MOL    C6948259   2.026   7.069   8.387 -0.4981  0.5594  0.3608
  396MOL   Cl7048260   1.900   7.068   8.517  0.2162  0.5016 -0.0952
  396MOL    H7148261   1.884   6.977   8.250 -0.9355  0.9372  0.1812
  396MOL    H7248262   1.889   7.153   8.246 -1.7314 -1.7308  4.8550
  396MOL    H7348263   2.087   6.979   8.393 -0.6120  0.4997  0.6116
  396MOL    C7448264   2.123   7.189   8.387 -0.6719  0.0018  0.8553
  396MOL    C7548265   2.190   7.201   0.003  0.0825  0.1662 -0.2726
  396MOL   Cl7648266   2.313   7.321   8.509  0.1676 -0.0880  0.4654
  396MOL    H7748267   2.073   7.281   8.358 -1.5218 -0.8667 -0.4613
  396MOL    H7848268   2.201   7.175   8.312 -1.5023 -1.5198  0.2716
  396MOL    H7948269   2.121   7.250   0.072 -0.1603  1.1828 -1.2188
  396MOL    C8048270   2.253   7.072   0.056  0.0769 -0.1548  0.2091
  396MOL    C8148271   2.338   7.074   0.186  0.0676 -0.5589  0.5654
  396MOL   Cl8248272   2.441   6.928   0.172 -0.5199 -0.2578 -0.2012
  396MOL    H8348273   2.315   7.035   8.501  2.3620  0.2424  1.7363
  396MOL    H8448274   2.169   7.005   0.077 -1.3069  0.5504 -2.8274
  396MOL    H8548275   2.413   7.152   0.180  0.2883 -0.9141 -1.5119
  396MOL    C8648276   2.269   7.069   0.321 -1.2551 -0.0509 -0.0346
  396MOL    C8748277   2.149   7.167   0.333 -0.4531  0.7222  0.3996
  396MOL   Cl8848278   2.192   7.340   0.318  0.0226  0.4615  0.0842
  396MOL    H8948279   2.342   7.075   0.403 -0.4046  1.8274 -0.8971
  396MOL    H9048280   2.240   6.964   0.314 -0.5707 -0.1812 -0.8535
  396MOL    H9148281   2.070   7.151   0.260 -0.4004  0.1513  0.4683
  396MOL    C9248282   2.082   7.140   0.472 -0.6770  0.4948 -0.0697
  396MOL    C9348283   2.025   7.004   0.513  1.1235  0.1966 -0.2213
  396MOL   Cl9448284   1.937   6.926   0.374  0.2275 -0.5080  0.0383
  396MOL    H9548285   2.006   7.218   0.476 -1.5474 -0.3166 -0.5228
  396MOL    H9648286   2.145   7.161   0.558 -1.6570 -1.9214  1.3005
  396MOL    H9748287   2.104   6.934   0.542  0.3325  0.4573  2.7836
  396MOL    C9848288   1.930   7.017   0.633  0.1859  1.1476  0.7366
  396MOL    C9948289   1.984   7.080   0.770 -0.5627  0.1508 -0.0215
  396MOL  Cl10048290   2.118   6.983   0.838 -0.0105  0.1138  0.2428
  396MOL   H10148291   1.886   6.919   0.651 -0.8194  1.1753 -1.4239
  396MOL   H10248292   1.847   7.074   0.593  0.6675  0.9556 -0.5555
  396MOL   H10348293   2.017   7.183   0.758  0.0895  0.2531  2.4234
  396MOL   C10448294   1.876   7.079   0.884  0.3629  0.2575 -0.0492
  396MOL   C10548295   1.747   7.165   0.848 -0.3272 -0.4591 -0.1542
  396MOL  Cl10648296   1.792   7.336   0.835  0.3866 -0.1730 -0.2328
  396MOL   H10748297   1.927   7.121   0.971  0.2558  0.2895 -0.0008
  396MOL   H10848298   1.862   6.979   0.924  0.4980  0.8710  1.5588
  396MOL   H10948299   1.707   7.138   0.751 -2.4638  1.0152  0.2843
  396MOL   C11048300   1.637   7.149   0.949 -0.4787  0.3811  0.2111
  396MOL   C11148301   1.576   7.005   0.972  0.2423 -0.3487  0.2294
  396MOL  Cl11248302   1.542   6.917   0.815  0.3927 -0.1737 -0.1538
  396MOL   H11348303   1.552   7.214   0.929 -2.0310 -1.8730 -0.7476
  396MOL   H11448304   1.674   7.186   1.045  0.0057 -1.2889  0.6854
  396MOL   H11548305   1.648   6.939   1.022 -1.8720 -1.7269  1.5166
  396MOL   C11648306   1.454   7.007   1.064 -0.0733  0.0629 -0.1960
  396MOL   C11748307   1.407   6.872   1.118  0.3461  0.5793  0.1176
  396MOL  Cl11848308   1.246   6.887   1.195 -0.2906 -0.4163  0.0215
  396MOL   H11948309   1.374   7.052   1.006  0.8782  0.3118 -1.3404
  396MOL   H12048310   1.470   7.072   1.150  2.8356 -0.3675 -0.3660
  396MOL   H12148311   1.403   6.789   1.048  0.0426  0.8833 -0.2299
  396MOL   H12248312   1.473   6.843   1.200  1.3381 -1.3352 -1.3333
  397MOL     C148313   3.854   8.265   1.388  0.2905  0.1038 -0.1458
  397MOL     C248314   3.856   8.255   1.540  0.3597  0.0153 -0.0458
  397MOL    Cl348315   3.731   8.365   1.600  0.0707 -0.2558  0.0996
  397MOL     H448316   3.896   8.363   1.367 -1.2003  0.8474  0.2805
  397MOL     H548317   3.910   8.193   1.328  0.4255 -0.4823  0.6617
  397MOL     H648318   3.814   8.158   1.568  2.5890 -0.7351  0.8024
  397MOL     H748319   3.757   8.277   1.340  0.3201 -3.8787 -1.3935
  397MOL     C848320   3.999   8.270   1.607  0.6887  0.8425 -0.1463
  397MOL     C948321   4.114   8.198   1.531  0.1710 -0.0873 -0.4150
  397MOL   Cl1048322   4.073   8.022   1.528  0.0256  0.2282 -0.2521
  397MOL    H1148323   3.994   8.227   1.707  1.1720  0.6000 -0.2249
  397MOL    H1248324   4.033   8.372   1.590  1.8342  0.1835 -1.9097
  397MOL    H1348325   4.117   8.230   1.427 -0.1885  0.3125 -0.2991
  397MOL    C1448326   4.254   8.221   1.598  0.6594  0.1675  0.0396
  397MOL    C1548327   4.378   8.179   1.519 -0.4327  0.5953 -0.7939
  397MOL   Cl1648328   4.508   8.217   1.633  0.2382 -0.0680 -0.0085
  397MOL    H1748329   4.255   8.186   1.701  0.4915 -0.8919 -0.3130
  397MOL    H1848330   4.259   8.330   1.605  3.6842  0.0163  0.8630
  397MOL    H1948331   4.364   8.075   1.490  0.2626 -0.0424  1.0621
  397MOL    C2048332   4.405   8.270   1.393  0.9773  0.3186 -0.3372
  397MOL    C2148333   4.537   8.238   1.318 -0.0556 -0.6357  0.4924
  397MOL   Cl2248334   4.574   8.372   1.207 -0.0744 -0.0674 -0.2558
  397MOL    H2348335   4.415   8.368   1.440 -0.7691 -0.2208  1.1947
  397MOL    H2448336   4.322   8.278   1.323  0.1407 -1.4321  0.4304
  397MOL    H2548337   4.617   8.227   1.390  1.2665 -0.4199 -0.9136
  397MOL    C2648338   4.544   8.109   1.238 -0.2962  0.0494  0.0223
  397MOL    C2748339   4.675   8.076   1.164  0.4505 -0.1777 -0.7318
  397MOL   Cl2848340   4.652   7.949   1.050 -0.1832 -0.3162  0.1217
  397MOL    H2948341   4.453   8.097   1.179 -2.2168  0.8320  2.7332
  397MOL    H3048342   4.547   8.021   1.303  1.0244 -1.0645 -1.5091
  397MOL    H3148343   4.711   8.156   1.099  1.5215  0.2513  0.3698
  397MOL    C3248344   4.795   8.044   1.255  0.7279  0.4281  1.1358
  397MOL    C3348345   4.933   8.050   1.182 -0.1373  0.2669  0.5867
  397MOL   Cl3448346   5.049   7.963   1.281  0.0645  0.0895  0.1288
  397MOL    H3548347   4.767   7.947   1.296 -1.2348 -0.3142 -1.8537
  397MOL    H3648348   4.813   8.115   1.337 -2.4069  0.8799  1.4803
  397MOL    H3748349   4.931   7.979   1.100 -1.7023  0.3107  0.5739
  397MOL    C3848350   4.984   8.190   1.138 -0.5281  0.2620 -0.0571
  397MOL    C3948351   4.984   8.211   0.986 -0.2213 -0.7274 -0.2886
  397MOL   Cl4048352   5.098   8.092   0.911  0.3878 -0.0239  0.1788
  397MOL    H4148353   5.084   8.222   1.170 -1.1721  2.1787  0.0881
  397MOL    H4248354   4.915   8.257   1.188  0.7322 -0.6387  3.0094
  397MOL    H4348355   4.884   8.179   0.955 -0.5378  1.8070 -2.0911
  397MOL    C4448356   5.023   8.363   0.961 -0.1282  0.2188 -0.1403
  397MOL    C4548357   4.991   8.418   0.817  0.2145 -0.5149 -0.0574
  397MOL   Cl4648358   5.088   8.333   0.695  0.3754 -0.0098 -0.2003
  397MOL    H4748359   5.132   8.371   0.960 -0.2746  2.4902 -1.8957
  397MOL    H4848360   4.973   8.431   1.029 -1.6904  0.7374 -1.7737
  397MOL    H4948361   4.884   8.409   0.795 -0.2328  3.9603 -0.2213
  397MOL    C5048362   5.012   0.049   0.825 -0.0262  0.3685  0.1662
  397MOL    C5148363   5.021   0.116   0.694 -0.2970  0.0418 -0.8876
  397MOL   Cl5248364   5.051   0.287   0.727  0.3674 -0.3712 -0.1262
  397MOL    H5348365   5.107   0.059   0.879 -0.5513 -1.3733  1.4562
  397MOL    H5448366   4.934   0.095   0.885 -2.0641  1.4092 -3.1343
  397MOL    H5548367   5.112   0.083   0.643 -0.0063  0.1367 -0.4387
  397MOL    C5648368   4.893   0.109   0.609 -0.4839 -0.2530 -0.3141
  397MOL    C5748369   4.911   0.151   0.456 -0.0068  0.0860 -0.1473
  397MOL   Cl5848370   4.844   0.313   0.414 -0.1180  0.0637  0.1884
  397MOL    H5948371   4.819   0.173   0.657  0.4744  0.0112  0.8533
  397MOL    H6048372   4.845   0.011   0.601  0.7294 -1.2121  3.0114
  397MOL    H6148373   5.016   0.156   0.427 -0.3857  1.7100 -1.3092
  397MOL    C6248374   4.842   0.061   0.351  0.2255  0.1756 -0.0150
  397MOL    C6348375   4.913   8.447   0.325  0.0464  0.2229 -0.1209
  397MOL   Cl6448376   5.049   8.483   0.224 -0.2952 -0.1484  0.0880
  397MOL    H6548377   4.837   0.107   0.252  3.0326  2.6437  0.9575
  397MOL    H6648378   4.745   0.038   0.395  0.7624 -0.8289  0.6673
  397MOL    H6748379   4.947   8.399   0.417  1.9744 -0.4701 -1.1665
  397MOL    C6848380   4.820   8.360   0.243 -0.3263  0.0077 -0.6211
  397MOL    C6948381   4.882   8.215   0.226 -0.7331 -0.1938  0.0607
  397MOL   Cl7048382   4.763   8.120   0.127  0.5395 -0.3983  0.2579
  397MOL    H7148383   4.791   8.399   0.146 -2.3870  2.9976  1.1071
  397MOL    H7248384   4.728   8.358   0.302 -0.9950  1.1557 -1.6070
  397MOL    H7348385   4.974   8.225   0.168  0.0147  0.9242  1.4000
  397MOL    C7448386   4.914   8.138   0.361  0.0145  0.1580  0.4164
  397MOL    C7548387   4.796   8.111   0.458 -0.0583 -0.1349 -0.1004
  397MOL   Cl7648388   4.769   8.242   0.575 -0.0727  0.0666 -0.4093
  397MOL    H7748389   5.000   8.182   0.412 -0.3750  0.6657  0.6411
  397MOL    H7848390   4.952   8.041   0.330 -0.7957 -0.4063  1.1421
  397MOL    H7948391   4.706   8.087   0.403 -1.2291 -1.0268  2.1338
  397MOL    C8048392   4.820   7.981   0.535  0.6910 -0.3489 -0.2045
  397MOL    C8148393   4.718   7.936   0.644 -0.6487  0.6409 -0.3580
  397MOL   Cl8248394   4.759   7.781   0.727  0.1193  0.0573  0.2082
  397MOL    H8348395   4.918   7.992   0.582 -0.1531  0.7464  1.3405
  397MOL    H8448396   4.834   7.904   0.459  0.9509 -1.2903  0.7893
  397MOL    H8548397   4.705   8.010   0.723 -3.2589 -1.1396  0.9621
  397MOL    C8648398   4.577   7.923   0.581  0.2128  0.3039 -0.2628
  397MOL    C8748399   4.560   7.801   0.482  0.5323  0.0008 -1.2732
  397MOL   Cl8848400   4.614   7.844   0.325  0.0373 -0.4505  0.1652
  397MOL    H8948401   4.537   8.013   0.535  0.7337  0.7532  0.1433
  397MOL    H9048402   4.515   7.906   0.669  1.4112  0.6534  0.6706
  397MOL    H9148403   4.623   7.718   0.514  0.2887  0.4899  0.5521
  397MOL    C9248404   4.408   7.768   0.473 -0.4418  0.2928  0.2908
  397MOL    C9348405   4.366   7.641   0.410  0.8880 -0.1557  0.4818
  397MOL   Cl9448406   4.206   7.669   0.321  0.5260  0.1364  0.2196
  397MOL    H9548407   4.348   7.843   0.422  0.7793 -0.1983 -1.8941
  397MOL    H9648408   4.374   7.753   0.576 -1.8816  1.3922 -0.0050
  397MOL    H9748409   4.431   7.611   0.327 -1.2741 -0.5520 -1.1086
  397MOL    C9848410   4.359   7.523   0.511  0.6283 -0.3917  0.4090
  397MOL    C9948411   4.285   7.392   0.461 -0.0867 -0.0559  0.1443
  397MOL  Cl10048412   4.277   7.274   0.592 -0.3058  0.0534 -0.0874
  397MOL   H10148413   4.301   7.559   0.597 -1.4276  1.3859 -1.6620
  397MOL   H10248414   4.459   7.505   0.549  1.5942  1.8478 -0.9461
  397MOL   H10348415   4.185   7.424   0.431 -0.7371 -0.8068  1.4758
  397MOL   C10448416   4.358   7.320   0.353  0.6999 -0.2432 -0.3556
  397MOL   C10548417   4.262   7.220   0.278 -0.1222 -0.5196  0.5071
  397MOL  Cl10648418   4.351   7.126   0.164  0.0756 -0.2101  0.1313
  397MOL   H10748419   4.436   7.254   0.392  0.9991  0.6291  0.5667
  397MOL   H10848420   4.408   7.384   0.281  0.7419  1.2851  1.0011
  397MOL   H10948421   4.209   7.155   0.347  0.2427 -1.4267 -0.0582
  397MOL   C11048422   4.158   7.303   0.189  0.3800  0.0004 -0.3122
  397MOL   C11148423   4.071   7.222   0.090 -0.0227  0.1606  0.0101
  397MOL  Cl11248424   3.982   7.337   8.514 -0.1826 -0.1775 -0.0438
  397MOL   H11348425   4.221   7.365   0.125 -2.2129  1.9089 -1.1190
  397MOL   H11448426   4.106   7.374   0.254  0.5023  1.0881 -1.3681
  397MOL   H11548427   4.140   7.166   0.026  1.9239  1.4125  0.9567
  397MOL   C11648428   3.973   7.120   0.153 -0.3600  0.2597 -0.5662
  397MOL   C11748429   3.872   7.173   0.243 -0.3233  0.0562  0.3978
  397MOL  Cl11848430   3.937   7.176   0.413 -0.3631 -0.1605 -0.2951
  397MOL   H11948431   4.035   7.052   0.211  0.8586  1.5080 -0.3719
  397MOL   H12048432   3.928   7.065   0.070 -1.9226 -0.2088  0.5682
  397MOL   H12148433   3.857   7.276   0.210 -0.5798 -0.3488 -0.7668
  397MOL   H12248434   3.780   7.115   0.237  0.0946 -0.4088 -1.9940
  398MOL     C148435   2.073   2.755   4.033  0.7141  0.2175 -0.0586
  398MOL     C248436   2.224   2.763   4.012  0.6683  0.0193  0.1895
  398MOL    Cl348437   2.267   2.620   3.920 -0.3597  0.0730  0.2197
  398MOL     H448438   2.005   2.727   3.952 -1.2285  2.0929  0.8669
  398MOL     H548439   2.065   2.685   4.116 -0.7788 -0.7921 -1.0387
  398MOL     H648440   2.242   2.843   3.940 -1.4173 -2.0682 -2.7598
  398MOL     H748441   2.032   2.850   4.066  0.1116 -0.1904  0.3681
  398MOL     C848442   2.310   2.773   4.139  0.1787 -0.2355 -0.0929
  398MOL     C948443   2.294   2.898   4.226  0.1092  0.4638  0.5180
  398MOL   Cl1048444   2.264   3.054   4.135 -0.1469  0.5204 -0.3429
  398MOL    H1148445   2.410   2.761   4.097 -0.2301 -1.8063 -0.6522
  398MOL    H1248446   2.291   2.684   4.200  0.5043  0.2712  0.7570
  398MOL    H1348447   2.199   2.894   4.281 -0.5424 -1.2462 -0.7017
  398MOL    C1448448   2.420   2.919   4.313 -0.1039  0.1934  0.8803
  398MOL    C1548449   2.438   2.819   4.434 -0.0772 -0.4354  0.5566
  398MOL   Cl1648450   2.316   2.845   4.557  0.1859  0.1339 -0.1201
  398MOL    H1748451   2.425   3.021   4.351 -0.1138  0.7365 -0.5456
  398MOL    H1848452   2.505   2.915   4.246 -0.9539  0.7457 -0.2450
  398MOL    H1948453   2.426   2.720   4.390 -0.8573  0.3171 -0.9394
  398MOL    C2048454   2.573   2.830   4.510 -0.0759 -0.4256  0.1541
  398MOL    C2148455   2.598   2.733   4.629  0.4064 -0.1280  0.3294
  398MOL   Cl2248456   2.742   2.787   4.719  0.1765  0.2510 -0.1920
  398MOL    H2348457   2.589   2.931   4.546 -1.0200 -0.6795  1.2986
  398MOL    H2448458   2.658   2.813   4.444 -0.3717 -1.2146 -0.0320
  398MOL    H2548459   2.523   2.746   4.707  1.0557  2.2599  0.6068
  398MOL    C2648460   2.617   2.585   4.587  0.3739 -0.4384  0.4556
  398MOL    C2748461   2.553   2.489   4.687  0.0496  0.2925  0.0946
  398MOL   Cl2848462   2.375   2.497   4.677  0.6079 -0.5235  0.0793
  398MOL    H2948463   2.723   2.580   4.561  0.5002  0.6794  0.7686
  398MOL    H3048464   2.568   2.570   4.491 -3.7131  1.2266  2.1787
  398MOL    H3148465   2.575   2.386   4.660 -1.8796 -0.9245  2.9311
  398MOL    C3248466   2.588   2.516   4.834 -0.4565  0.7729 -0.4702
  398MOL    C3348467   2.568   2.389   4.918  0.8098  0.1356  0.7028
  398MOL   Cl3448468   2.504   2.417   5.075  0.3327 -0.0658 -0.0844
  398MOL    H3548469   2.529   2.597   4.877 -0.6357 -0.6909  2.1228
  398MOL    H3648470   2.690   2.548   4.852  0.0566  0.2958 -2.4420
  398MOL    H3748471   2.497   2.324   4.867  2.3361  0.9372 -2.5798
  398MOL    C3848472   2.703   2.312   4.930  0.1980  0.3167 -1.2076
  398MOL    C3948473   2.694   2.171   4.979  0.4104  0.0538  0.0585
  398MOL   Cl4048474   2.836   2.137   5.078 -0.2839 -0.0937 -0.2382
  398MOL    H4148475   2.775   2.362   4.995  1.3022  0.3188 -2.4150
  398MOL    H4248476   2.744   2.312   4.829  0.6829  1.6954 -1.0312
  398MOL    H4348477   2.609   2.146   5.041  0.6510  0.0886  0.4057
  398MOL    C4448478   2.704   2.067   4.865 -0.1772  0.8077  0.4973
  398MOL    C4548479   2.583   2.046   4.769 -0.2528  0.1464 -0.7416
  398MOL   Cl4648480   2.430   2.019   4.858 -0.1613 -0.0800  0.0378
  398MOL    H4748481   2.715   1.979   4.928  0.1694  0.9313  0.6089
  398MOL    H4848482   2.788   2.094   4.802  0.0176 -0.9240 -0.0023
  398MOL    H4948483   2.577   2.137   4.710 -4.0462 -0.4025 -1.3781
  398MOL    C5048484   2.596   1.933   4.663 -0.0445 -0.1615  0.2417
  398MOL    C5148485   2.727   1.903   4.588 -0.2903  0.0612  0.0135
  398MOL   Cl5248486   2.776   2.062   4.531 -0.0357  0.1619 -0.4540
  398MOL    H5348487   2.523   1.959   4.586 -1.1033 -3.9489 -0.1621
  398MOL    H5448488   2.555   1.843   4.708  1.4122 -0.3354  1.2650
  398MOL    H5548489   2.816   1.875   4.645  0.5544 -1.2947 -1.9041
  398MOL    C5648490   2.721   1.810   4.464  0.1159  0.2276  0.2685
  398MOL    C5748491   2.670   1.672   4.496  0.5110 -0.9051 -0.7810
  398MOL   Cl5848492   2.783   1.601   4.608 -0.0181 -0.3826 -0.0021
  398MOL    H5948493   2.819   1.810   4.415  1.1511 -2.2574  2.2180
  398MOL    H6048494   2.658   1.857   4.389  1.6754 -0.2742 -1.4138
  398MOL    H6148495   2.572   1.685   4.542  1.8980 -0.8620  2.2444
  398MOL    C6248496   2.665   1.586   4.372  0.4922  0.3675 -0.2994
  398MOL    C6348497   2.533   1.602   4.287 -0.0704 -0.1871 -0.1107
  398MOL   Cl6448498   2.392   1.538   4.376  0.1051 -0.3580  0.2306
  398MOL    H6548499   2.674   1.481   4.397  2.1327  0.4195 -0.6382
  398MOL    H6648500   2.756   1.602   4.315  0.1562  0.2006 -0.8852
  398MOL    H6748501   2.517   1.709   4.273 -0.7950 -0.2438  0.2633
  398MOL    C6848502   2.538   1.532   4.151 -0.0873 -0.2480 -0.6306
  398MOL    C6948503   2.433   1.580   4.046  0.3906  0.9509 -0.6828
  398MOL   Cl7048504   2.424   1.754   4.041 -0.1701  0.2328  0.1337
  398MOL    H7148505   2.518   1.427   4.173 -2.4716  1.0051  3.7140
  398MOL    H7248506   2.642   1.538   4.117 -0.3160  0.7016 -1.1837
  398MOL    H7348507   2.467   1.545   3.949 -1.3488  0.0267 -0.9810
  398MOL    C7448508   2.287   1.539   4.073  1.1368  0.2583 -0.3745
  398MOL    C7548509   2.263   1.394   4.106  0.4808  0.4704 -0.0079
  398MOL   Cl7648510   2.346   1.309   3.972  0.0962 -0.0629  0.5524
  398MOL    H7748511   2.231   1.574   3.986  0.8963  1.7755  0.3726
  398MOL    H7848512   2.245   1.599   4.155 -0.7445 -1.3343 -0.1364
  398MOL    H7948513   2.315   1.357   4.194 -1.3788 -0.4216  0.7599
  398MOL    C8048514   2.114   1.364   4.122  0.1756 -0.2062 -0.2077
  398MOL    C8148515   2.073   1.241   4.192  0.0659  0.4090  0.1633
  398MOL   Cl8248516   2.136   1.085   4.104  0.2071  0.0918  0.4274
  398MOL    H8348517   2.066   1.369   4.024 -0.2444  2.9340  0.1052
  398MOL    H8448518   2.075   1.444   4.185  0.2301 -1.4331  1.4045
  398MOL    H8548519   2.122   1.231   4.288  1.3686 -1.1950 -0.6273
  398MOL    C8648520   1.914   1.236   4.210  0.1715 -0.1122 -0.5354
  398MOL    C8748521   1.876   1.135   4.324 -0.4135  0.3103  0.3852
  398MOL   Cl8848522   1.698   1.122   4.335  0.2669  0.3428  0.0562
  398MOL    H8948523   1.865   1.206   4.118  0.5872 -1.5039 -0.3192
  398MOL    H9048524   1.885   1.334   4.249 -1.4226 -0.9737  0.4859
  398MOL    H9148525   1.917   1.039   4.295 -0.8155  0.1434  0.3590
  398MOL    C9248526   1.924   1.162   4.475 -0.7126  0.6128 -0.7185
  398MOL    C9348527   1.883   1.290   4.542 -0.0562 -0.1180 -0.9576
  398MOL   Cl9448528   1.974   1.423   4.471 -0.3932  0.3463  0.0780
  398MOL    H9548529   2.027   1.143   4.504 -1.3553  0.1965  1.3488
  398MOL    H9648530   1.883   1.078   4.531  0.5123  0.6476  0.2427
  398MOL    H9748531   1.778   1.316   4.531 -0.3023 -0.3390  0.8110
  398MOL    C9848532   1.900   1.285   4.697 -0.6146  0.1129  0.8779
  398MOL    C9948533   1.804   1.374   4.776  0.4202 -0.2121  0.2500
  398MOL  Cl10048534   1.845   1.360   4.950  0.2276 -0.2287 -0.1872
  398MOL   H10148535   2.007   1.282   4.721 -0.6029 -3.5131  0.6555
  398MOL   H10248536   1.873   1.184   4.728 -1.4822 -0.1280 -0.6279
  398MOL   H10348537   1.831   1.478   4.757 -0.8038  0.0567 -0.0863
  398MOL   C10448538   1.652   1.354   4.749 -0.5398  0.4137 -0.1235
  398MOL   C10548539   1.555   1.398   4.862 -0.3391  0.2730  0.0609
  398MOL  Cl10648540   1.383   1.363   4.817  0.2026  0.1620 -0.2231
  398MOL   H10748541   1.641   1.247   4.731  0.3110  0.5624 -1.6954
  398MOL   H10848542   1.624   1.406   4.657 -0.7123  0.9953  0.2583
  398MOL   H10948543   1.574   1.328   4.943 -1.4338 -1.3045 -1.0092
  398MOL   C11048544   1.580   1.548   4.905 -0.1492 -0.0606 -0.2070
  398MOL   C11148545   1.524   1.586   5.045 -0.5311 -0.7071 -0.3449
  398MOL  Cl11248546   1.524   1.765   5.055 -0.1915 -0.1531 -0.2157
  398MOL   H11348547   1.539   1.608   4.824 -1.8377 -1.9161 -0.7648
  398MOL   H11448548   1.685   1.577   4.914 -0.4044  0.9565 -0.5089
  398MOL   H11548549   1.420   1.559   5.029 -1.1857  0.3854  1.8476
  398MOL   C11648550   1.597   1.524   5.161  0.2968  0.2819 -0.6586
  398MOL   C11748551   1.533   1.552   5.299 -0.4295  0.1323 -0.5576
  398MOL  Cl11848552   1.630   1.502   5.435  0.1369 -0.1898  0.1254
  398MOL   H11948553   1.697   1.564   5.145  0.3636  0.9719  1.3782
  398MOL   H12048554   1.608   1.419   5.136  0.2236 -0.6223  2.9024
  398MOL   H12148555   1.514   1.660   5.304  2.2319  0.6122  0.1258
  398MOL   H12248556   1.433   1.512   5.312 -0.4680  0.7757  1.2152
  399MOL     C148557   8.084   4.418   1.047 -0.1423  0.3691  0.5615
  399MOL     C248558   7.976   4.451   0.940  0.2118  0.0072  0.3477
  399MOL    Cl348559   7.965   4.330   0.811 -0.1199 -0.1534  0.2467
  399MOL     H448560   8.180   4.400   0.999 -0.3970  1.7438 -0.4689
  399MOL     H548561   8.092   4.497   1.121 -0.4822  1.1200 -0.1901
  399MOL     H648562   7.876   4.454   0.983  0.5049 -1.0657  1.1486
  399MOL     H748563   8.042   4.328   1.094  0.8209  0.6020  1.8938
  399MOL     C848564   8.005   4.586   0.868  0.4734  0.2516  0.1347
  399MOL     C948565   7.990   4.708   0.963  0.7249  0.2855 -0.1045
  399MOL   Cl1048566   7.830   4.712   1.042 -0.1820  0.0274 -0.0499
  399MOL    H1148567   7.950   4.618   0.780  1.1490 -0.2115 -0.4583
  399MOL    H1248568   8.110   4.574   0.839  1.1786  3.3515  1.1722
  399MOL    H1348569   8.049   4.693   1.054 -0.8876  1.1937  1.1216
  399MOL    C1448570   8.029   4.846   0.918  0.6024 -0.0855 -0.4838
  399MOL    C1548571   8.179   4.875   0.873  0.0036 -0.0129  0.6632
  399MOL   Cl1648572   8.289   4.863   1.012  0.1536 -0.0496 -0.0872
  399MOL    H1748573   8.003   4.919   0.995  1.5988  0.6898 -0.8621
  399MOL    H1848574   7.962   4.877   0.838 -0.2320  0.4309  0.4042
  399MOL    H1948575   8.207   4.791   0.810 -2.0709 -1.1162  1.1542
  399MOL    C2048576   8.193   5.011   0.803 -0.7872  0.2363  0.0329
  399MOL    C2148577   8.328   5.045   0.742  0.6868 -0.0164  0.5017
  399MOL   Cl2248578   8.464   5.078   0.850 -0.5972  0.3125 -0.2442
  399MOL    H2348579   8.153   5.095   0.860 -1.5715 -0.7762  0.9939
  399MOL    H2448580   8.127   4.986   0.720 -2.1508 -0.1894  1.2120
  399MOL    H2548581   8.364   4.966   0.677  0.1104  0.5223 -0.4972
  399MOL    C2648582   8.313   5.169   0.646  0.1205  0.2048 -0.1562
  399MOL    C2748583   8.411   5.216   0.538 -0.3398 -0.1259  0.1617
  399MOL   Cl2848584   8.439   5.094   0.413  0.1993 -0.0781 -0.0608
  399MOL    H2948585   8.306   5.252   0.716  2.3268  0.7442 -0.5351
  399MOL    H3048586   8.220   5.162   0.591 -0.1127  0.1697  0.2451
  399MOL    H3148587   8.363   5.289   0.474 -0.7916 -0.2466  0.3645
  399MOL    C3248588   0.033   5.257   0.576  0.1887  0.0726 -0.2301
  399MOL    C3348589   0.047   5.400   0.630  0.3888 -0.1877  0.0536
  399MOL   Cl3448590   0.032   5.511   0.481  0.2331 -0.6343  0.2062
  399MOL    H3548591   0.087   5.258   0.481  0.0605 -1.3179 -0.3260
  399MOL    H3648592   0.071   5.182   0.646 -0.7295 -0.5644 -0.4161
  399MOL    H3748593   8.487   5.434   0.689 -1.6996 -2.1935 -1.7380
  399MOL    C3848594   0.177   5.440   0.706 -0.7075  0.1852  0.2770
  399MOL    C3948595   0.187   5.385   0.851  0.8483  0.1466 -0.5812
  399MOL   Cl4048596   0.058   5.455   0.948  0.0565 -0.3253 -0.0230
  399MOL    H4148597   0.185   5.549   0.703  1.0298  0.0939  0.8258
  399MOL    H4248598   0.260   5.402   0.646 -1.1132 -1.3595  0.6837
  399MOL    H4348599   0.153   5.281   0.848 -0.1712  0.4163  1.1631
  399MOL    C4448600   0.318   5.396   0.925 -0.7412 -0.8548  0.3644
  399MOL    C4548601   0.396   5.532   0.910  0.0171 -0.0223  0.8360
  399MOL   Cl4648602   0.571   5.514   0.926  0.1568  0.1951 -0.4223
  399MOL    H4748603   0.389   5.320   0.892  0.1336 -0.4936  1.3599
  399MOL    H4848604   0.294   5.376   1.030 -0.8801 -0.6797  0.3663
  399MOL    H4948605   0.380   5.563   0.807 -2.2338  1.8623  1.6805
  399MOL    C5048606   0.363   5.653   1.000 -0.2588  0.0119 -0.3052
  399MOL    C5148607   0.445   5.781   0.996 -0.0210 -0.2323  0.6339
  399MOL   Cl5248608   0.613   5.778   1.065 -0.4128 -0.1328 -0.0677
  399MOL    H5348609   0.342   5.620   1.102  2.5159  2.3951  1.0904
  399MOL    H5448610   0.265   5.690   0.969 -0.1877  1.9961  1.6415
  399MOL    H5548611   0.466   5.807   0.893 -1.4059 -0.8068  0.2046
  399MOL    C5648612   0.381   5.912   1.054  0.2070  0.1284  0.0567
  399MOL    C5748613   0.352   5.907   1.203  0.1158  0.6049 -0.0391
  399MOL   Cl5848614   0.191   5.846   1.248 -0.2308  0.1263  0.0364
  399MOL    H5948615   0.296   5.942   0.992 -0.6516  1.6051  1.8920
  399MOL    H6048616   0.443   5.999   1.032 -2.1445  1.4577 -1.5929
  399MOL    H6148617   0.423   5.834   1.242 -1.6699 -1.2178 -0.1439
  399MOL    C6248618   0.376   6.036   1.284 -0.4065  0.6394 -0.1465
  399MOL    C6348619   0.523   6.091   1.280  0.3848 -0.2613 -0.2464
  399MOL   Cl6448620   0.641   5.977   1.349 -0.6875  0.1434 -0.0231
  399MOL    H6548621   0.346   6.016   1.387  1.3344 -0.0977  0.2328
  399MOL    H6648622   0.314   6.121   1.256 -1.6078 -0.9250 -2.3966
  399MOL    H6748623   0.553   6.112   1.178  0.3356 -1.3247 -0.4813
  399MOL    C6848624   0.548   6.220   1.369 -0.2239 -0.2386  0.3869
  399MOL    C6948625   0.463   6.344   1.347 -1.4796 -0.3298  0.0373
  399MOL   Cl7048626   0.456   6.396   1.180 -0.0691  0.4075  0.2362
  399MOL    H7148627   0.652   6.253   1.360 -0.7816  1.8481  1.3578
  399MOL    H7248628   0.541   6.182   1.471 -2.5410 -2.2915 -0.5090
  399MOL    H7348629   0.358   6.315   1.359 -1.9857  0.9540 -1.1179
  399MOL    C7448630   0.489   6.467   1.441  0.0960  0.1164  0.7565
  399MOL    C7548631   0.520   6.437   1.591  0.6090  0.3762  0.4939
  399MOL   Cl7648632   0.379   6.355   1.669 -0.3152  0.1747  0.0103
  399MOL    H7748633   0.402   6.531   1.431  1.4391  1.8503 -0.0756
  399MOL    H7848634   0.575   6.523   1.404  0.3587 -0.8906 -0.1841
  399MOL    H7948635   0.593   6.358   1.602 -1.7966 -2.2523 -1.6114
  399MOL    C8048636   0.547   6.568   1.673  0.3448 -0.3665  0.0076
  399MOL    C8148637   0.601   6.557   1.813 -0.4802  0.3170  0.4571
  399MOL   Cl8248638   0.588   6.718   1.882  0.0646  0.0743 -0.4585
  399MOL    H8348639   0.455   6.625   1.687  0.3112 -0.3360 -0.3530
  399MOL    H8448640   0.612   6.636   1.620  3.1288 -1.6426  1.6430
  399MOL    H8548641   0.536   6.492   1.871 -1.8384  0.4565 -0.8868
  399MOL    C8648642   0.751   6.515   1.813 -0.0668 -0.1657 -0.0099
  399MOL    C8748643   0.809   6.496   1.954  0.4213  0.3255  0.2701
  399MOL   Cl8848644   0.985   6.507   1.948  0.0484  0.4333  0.1202
  399MOL    H8948645   0.810   6.589   1.761  0.1136  0.3178  0.8659
  399MOL    H9048646   0.760   6.427   1.750 -1.5404 -1.0600  0.9938
  399MOL    H9148647   0.783   6.587   2.007  1.4061  1.7793 -1.6983
  399MOL    C9248648   0.764   6.358   2.009 -0.1859 -0.2293  0.0837
  399MOL    C9348649   0.789   6.320   2.154 -0.7380  0.0473  0.0944
  399MOL   Cl9448650   0.778   6.143   2.169 -0.1599  0.3411  0.3408
  399MOL    H9548651   0.813   6.284   1.946 -0.9368 -1.7237  1.2279
  399MOL    H9648652   0.657   6.339   2.004 -0.1088 -0.4234 -1.0273
  399MOL    H9748653   0.897   6.322   2.170 -0.7384  0.5758  0.0391
  399MOL    C9848654   0.714   6.381   2.275  0.4875 -0.5336 -0.2397
  399MOL    C9948655   0.740   6.528   2.314 -0.7455 -0.2533 -0.5275
  399MOL  Cl10048656   0.914   6.565   2.319 -0.0478  0.1388  0.0743
  399MOL   H10148657   0.727   6.318   2.363  0.2042 -0.6798 -0.3010
  399MOL   H10248658   0.610   6.361   2.248  0.6292 -2.3228  0.4384
  399MOL   H10348659   0.707   6.590   2.230 -0.1059 -0.9491 -1.3023
  399MOL   C10448660   0.675   6.576   2.448  0.0732  0.5801 -0.2284
  399MOL   C10548661   0.523   6.580   2.446  0.9379 -0.1855 -0.0421
  399MOL  Cl10648662   0.468   6.407   2.473 -0.1677  0.7844  0.0482
  399MOL   H10748663   0.710   6.678   2.464  0.8627  0.1338  0.9319
  399MOL   H10848664   0.714   6.518   2.531 -1.6783 -0.4521 -0.0943
  399MOL   H10948665   0.486   6.627   2.537 -0.1981 -4.1958  1.6829
  399MOL   C11048666   0.450   6.647   2.325 -0.5909 -0.0204  0.0759
  399MOL   C11148667   0.297   6.676   2.338  0.7734 -0.2924 -0.4176
  399MOL  Cl11248668   0.248   6.726   2.175 -0.3476 -0.1738  0.1269
  399MOL   H11348669   0.479   6.591   2.236 -1.9107  0.2428 -0.5307
  399MOL   H11448670   0.498   6.745   2.316 -0.1282 -0.3273 -0.9000
  399MOL   H11548671   0.246   6.580   2.352 -0.4239 -0.0345 -2.7359
  399MOL   C11648672   0.268   6.785   2.437  0.0274  0.6708  0.2087
  399MOL   C11748673   0.118   6.807   2.470 -0.2792  0.2788  0.3078
  399MOL  Cl11848674   0.072   6.683   2.588 -0.1399 -0.5921 -0.6256
  399MOL   H11948675   0.311   6.879   2.403  1.0030  0.7422  1.5769
  399MOL   H12048676   0.320   6.758   2.529  1.3467  0.4744 -0.5881
  399MOL   H12148677   0.101   6.905   2.515 -1.7728 -0.0344  0.4642
  399MOL   H12248678   0.048   6.802   2.387 -1.0980  2.2437  0.8507
  400MOL     C148679   5.679   0.319   1.669  0.2075  0.1400 -0.3156
  400MOL     C248680   5.596   0.445   1.707 -0.7850  1.0098  0.0320
  400MOL    Cl348681   5.614   0.470   1.884 -0.1862  0.2668  0.5786
  400MOL     H448682   5.784   0.344   1.685 -0.0038  1.1510 -0.4653
  400MOL     H548683   5.653   0.233   1.730  2.0249  0.0413  0.3480
  400MOL     H648684   5.633   0.535   1.659 -1.8178  1.0667 -0.6755
  400MOL     H748685   5.660   0.290   1.566 -0.4236 -1.3096  0.1948
  400MOL     C848686   5.446   0.434   1.679 -0.4756 -0.6840 -0.3315
  400MOL     C948687   5.386   0.432   1.538  0.2312 -0.3188  0.6152
  400MOL   Cl1048688   5.409   0.593   1.477  0.0777  0.3135  0.1140
  400MOL    H1148689   5.402   0.516   1.737 -0.2836 -0.5400 -0.3908
  400MOL    H1248690   5.406   0.349   1.735  1.0097 -1.5809 -0.6005
  400MOL    H1348691   5.436   0.366   1.468  0.6348  0.5489  0.0692
  400MOL    C1448692   5.233   0.405   1.550  0.1772 -0.3718  0.6624
  400MOL    C1548693   5.170   0.392   1.408  0.4413  0.6487  0.4406
  400MOL   Cl1648694   4.990   0.393   1.416  0.3082 -0.1617  0.4948
  400MOL    H1748695   5.184   0.483   1.609  1.7540 -1.3752  3.3908
  400MOL    H1848696   5.213   0.311   1.600  0.6270 -1.3698 -1.0095
  400MOL    H1948697   5.198   0.474   1.343 -1.5643  0.9778 -0.0229
  400MOL    C2048698   5.198   0.250   1.359  0.5298  0.0854  0.2888
  400MOL    C2148699   5.158   0.228   1.211  0.2007 -0.1263  0.7576
  400MOL   Cl2248700   5.165   0.050   1.161 -0.1419  0.1917 -0.0845
  400MOL    H2348701   5.139   0.193   1.431 -1.4185  1.7885  0.0913
  400MOL    H2448702   5.302   0.218   1.369  1.8279  3.3237 -1.9286
  400MOL    H2548703   5.056   0.266   1.213  0.0715 -0.4970  1.1750
  400MOL    C2648704   5.230   0.308   1.105 -0.4121 -0.0261 -0.8555
  400MOL    C2748705   5.381   0.271   1.060 -0.3150 -0.4081  0.4280
  400MOL   Cl2848706   5.498   0.341   1.178  0.3002 -0.4358  0.2849
  400MOL    H2948707   5.222   0.415   1.119  2.7356  0.0419  0.9955
  400MOL    H3048708   5.172   0.298   1.013 -1.8346  0.4789 -0.0130
  400MOL    H3148709   5.409   0.166   1.049  0.3699 -0.2104  0.2500
  400MOL    C3248710   5.409   0.337   0.917  0.0803  0.0435 -0.1648
  400MOL    C3348711   5.538   0.280   0.847 -0.5591  0.0838 -0.1374
  400MOL   Cl3448712   5.678   0.359   0.920 -0.1943 -0.1896  0.2030
  400MOL    H3548713   5.410   0.445   0.931 -3.7064  0.3986 -1.8953
  400MOL    H3648714   5.322   0.314   0.855 -0.6079  2.6622 -0.2029
  400MOL    H3748715   5.547   0.176   0.877  0.0317  0.4567  1.0221
  400MOL    C3848716   5.542   0.299   0.686  0.4761 -0.0109 -0.3281
  400MOL    C3948717   5.430   0.234   0.604  0.2706 -0.4987  0.0994
  400MOL   Cl4048718   5.418   0.069   0.671  0.0558 -0.3190 -0.1767
  400MOL    H4148719   5.633   0.255   0.647  0.9369  2.1200 -1.7610
  400MOL    H4248720   5.533   0.407   0.673  1.1281  0.2043  0.9430
  400MOL    H4348721   5.337   0.287   0.624 -0.5430 -1.9352  0.2067
  400MOL    C4448722   5.464   0.235   0.458  0.0374 -0.3614  0.4680
  400MOL    C4548723   5.438   0.367   0.385 -0.1670  0.0817  0.5908
  400MOL   Cl4648724   5.274   0.388   0.349  0.6491  0.3100 -0.0447
  400MOL    H4748725   5.413   0.152   0.409 -1.2732  0.5385  0.2654
  400MOL    H4848726   5.571   0.219   0.445 -0.1205 -0.4792 -0.7168
  400MOL    H4948727   5.452   0.451   0.453  1.8905 -1.6537  2.4407
  400MOL    C5048728   5.519   0.392   0.257  0.4491 -0.3164 -0.3211
  400MOL    C5148729   5.665   0.425   0.271 -0.1126 -0.4447  0.2123
  400MOL   Cl5248730   5.696   0.580   0.350  0.3602  0.2111  0.3418
  400MOL    H5348731   5.480   0.484   0.213  0.4313 -1.1364 -2.0826
  400MOL    H5448732   5.504   0.311   0.185 -0.3756  0.7778 -1.4067
  400MOL    H5548733   5.707   0.359   0.347  0.2252 -0.7550 -0.2451
  400MOL    C5648734   5.758   0.414   0.144 -0.2676 -0.0569  0.6970
  400MOL    C5748735   5.746   0.276   0.069 -0.6133  0.0979  0.1405
  400MOL   Cl5848736   5.805   0.151   0.185 -0.2626 -0.1835  0.2502
  400MOL    H5948737   5.863   0.443   0.149  0.0145 -0.3981 -2.3856
  400MOL    H6048738   5.721   0.496   0.082  0.9613  1.2557  1.6563
  400MOL    H6148739   5.644   0.249   0.042 -0.4651 -1.5907  1.2268
  400MOL    C6248740   5.828   0.253   8.469  0.2155 -0.8923  1.0811
  400MOL    C6348741   5.800   0.350   8.357  0.3611  0.6687 -0.1889
  400MOL   Cl6448742   5.626   0.355   8.327 -0.1633 -0.0893 -0.4076
  400MOL    H6548743   5.829   0.150   8.434 -2.2218 -0.5973  0.0155
  400MOL    H6648744   5.927   0.282   8.504 -0.4491  2.3569  0.4481
  400MOL    H6748745   5.825   0.449   8.394 -4.0742  1.4416  0.9849
  400MOL    C6848746   5.877   0.318   8.229 -0.7782 -0.1867  0.4752
  400MOL    C6948747   5.980   0.439   8.187 -0.6553 -0.3249  0.0974
  400MOL   Cl7048748   5.894   0.577   8.114  0.1781  0.0055  0.0406
  400MOL    H7148749   5.814   0.282   8.148 -2.2453  1.2142  0.9569
  400MOL    H7248750   5.940   0.229   8.239 -0.3923 -0.5183 -3.9717
  400MOL    H7348751   6.023   0.483   8.277  1.0241  1.3039 -1.4227
  400MOL    C7448752   6.097   0.416   8.097 -0.3732 -0.6143  0.2979
  400MOL    C7548753   6.214   0.329   8.155  0.1224  0.1760  0.0267
  400MOL   Cl7648754   6.314   0.430   8.250 -0.1174 -0.4519 -0.1155
  400MOL    H7748755   6.140   0.508   8.058  0.8817 -0.4817  1.9233
  400MOL    H7848756   6.053   0.361   8.014 -1.2911  0.2304  0.2094
  400MOL    H7948757   6.168   0.260   8.226 -0.5036  0.5172 -0.0368
  400MOL    C8048758   6.302   0.259   8.055 -0.0841  0.4234 -0.2874
  400MOL    C8148759   6.401   0.339   7.972  0.8996 -0.2698 -0.4956
  400MOL   Cl8248760   6.306   0.420   7.849 -0.2727  0.2655 -0.3138
  400MOL    H8348761   6.229   0.198   8.001 -1.5537  0.4499  1.6179
  400MOL    H8448762   6.362   0.189   8.113  0.2220  0.0975 -0.9961
  400MOL    H8548763   6.439   0.426   8.026  0.1460 -1.5759  2.2470
  400MOL    C8648764   6.509   0.253   7.906 -0.5591 -0.6864 -0.7958
  400MOL    C8748765   6.630   0.335   7.870 -0.9375  0.1948 -0.3972
  400MOL   Cl8848766   6.685   0.272   7.718 -0.0814 -0.0533  0.3619
  400MOL    H8948767   6.466   0.196   7.824  0.2571 -0.5638 -1.3110
  400MOL    H9048768   6.542   0.172   7.971  1.5455 -0.1352 -1.1666
  400MOL    H9148769   6.612   0.443   7.867 -0.4223  0.2681 -1.0664
  400MOL    C9248770   6.749   0.309   7.973 -0.1407 -0.0401 -0.1458
  400MOL    C9348771   6.729   0.361   8.123 -0.1305  0.4868  0.6649
  400MOL   Cl9448772   6.728   0.537   8.136  0.1568  0.1571  0.2764
  400MOL    H9548773   6.839   0.354   7.932 -0.0786  1.8195  1.9014
  400MOL    H9648774   6.756   0.201   7.972 -0.3332 -0.0520 -0.4489
  400MOL    H9748775   6.635   0.320   8.161  0.2887  0.4473  1.6769
  400MOL    C9848776   6.861   0.312   8.209  0.2927  0.6134 -0.7539
  400MOL    C9948777   6.858   0.158   8.244 -0.3490  0.1708 -0.1274
  400MOL  Cl10048778   6.733   0.127   8.374 -0.3133  0.4588  0.1079
  400MOL   H10148779   6.850   0.365   8.303 -1.1757  3.0955 -2.2681
  400MOL   H10248780   6.953   0.347   8.163  1.1611  0.4613  0.8500
  400MOL   H10348781   6.823   0.108   8.154  0.5997 -0.4180 -0.1741
  400MOL   C10448782   7.001   0.092   8.271  0.1054 -0.2085 -0.4981
  400MOL   C10548783   7.007   8.462   8.263  0.1769  0.2256 -0.4059
  400MOL  Cl10648784   7.170   8.388   8.325  0.0054  0.4189 -0.0922
  400MOL   H10748785   7.028   0.124   8.372 -1.4935 -3.3914  1.0156
  400MOL   H10848786   7.074   0.120   8.195  1.2281 -0.0610  0.6231
  400MOL   H10948787   6.928   8.423   8.326  0.2911 -0.8731 -0.9363
  400MOL   C11048788   6.979   8.400   8.127 -0.4003  0.7894 -0.3610
  400MOL   C11148789   6.940   8.257   8.125  0.2808  0.5059  0.8027
  400MOL  Cl11248790   6.925   8.213   7.950 -0.1042  0.3254 -0.1032
  400MOL   H11348791   7.067   8.404   8.063  0.4205 -0.1833  0.6848
  400MOL   H11448792   6.902   8.457   8.074 -0.9941 -0.3909 -0.7833
  400MOL   H11548793   7.028   8.203   8.161  2.0754  2.0810 -1.1025
  400MOL   C11648794   6.801   8.233   8.203 -0.6016  0.0985  0.5395
  400MOL   C11748795   6.751   8.094   8.187 -0.2035  0.2793 -0.3896
  400MOL  Cl11848796   6.592   8.067   8.264 -0.0717  0.6422  0.1021
  400MOL   H11948797   6.728   8.309   8.173  0.6233  0.6491 -1.1051
  400MOL   H12048798   6.830   8.243   8.308  0.9927  1.1725  0.0124
  400MOL   H12148799   6.747   8.076   8.079 -2.1341 -2.9821  0.1592
  400MOL   H12248800   6.821   8.020   8.224 -1.7763 -1.0922 -0.1313
  401MOL     C148801   3.581   7.242   4.176 -0.3663 -0.1732 -0.2446
  401MOL     C248802   3.638   7.135   4.089  0.0357  0.8791 -0.4089
  401MOL    Cl348803   3.596   6.988   4.169  0.1980 -0.2869  0.1058
  401MOL     H448804   3.473   7.241   4.187 -0.4567  3.5476 -0.4490
  401MOL     H548805   3.615   7.226   4.279 -0.6932 -0.4386 -0.1757
  401MOL     H648806   3.586   7.137   3.994 -1.3751 -0.5079  0.3103
  401MOL     H748807   3.606   7.342   4.141  0.0217  0.3966  1.5810
  401MOL     C848808   3.801   7.146   4.089  0.3825  0.1307  0.0625
  401MOL     C948809   3.878   7.041   4.011  0.6542  0.4456 -0.7185
  401MOL   Cl1048810   4.053   7.092   4.010 -0.4543  0.1041  0.0165
  401MOL    H1148811   3.835   7.141   4.192 -0.1429 -1.7579  0.1670
  401MOL    H1248812   3.845   7.244   4.071  1.6305 -0.8163 -2.2675
  401MOL    H1348813   3.868   6.945   4.062  0.8273  2.0528  2.4496
  401MOL    C1448814   3.836   7.029   3.864  0.1805 -0.3710 -0.4430
  401MOL    C1548815   3.918   6.927   3.786 -0.2566  0.6776 -0.2949
  401MOL   Cl1648816   3.880   6.945   3.612  0.0140 -0.1781 -0.0376
  401MOL    H1748817   3.849   7.126   3.816  0.8875 -0.3591 -0.2420
  401MOL    H1848818   3.730   7.006   3.855  0.0354  0.4432 -0.9010
  401MOL    H1948819   4.024   6.948   3.777 -0.4859  1.9814 -0.1316
  401MOL    C2048820   3.908   6.774   3.820 -0.0167 -0.4271  0.4694
  401MOL    C2148821   3.760   6.703   3.797 -0.2933 -0.6333  0.5121
  401MOL   Cl2248822   3.638   6.755   3.916 -0.2712 -0.0326  0.0466
  401MOL    H2348823   3.941   6.752   3.922  2.7264  0.1308 -0.2604
  401MOL    H2448824   3.977   6.723   3.753  1.6140  2.6685 -0.2551
  401MOL    H2548825   3.724   6.735   3.700 -0.6655 -0.1953  0.7897
  401MOL    C2648826   3.773   6.553   3.787 -0.1638  0.6406 -0.3018
  401MOL    C2748827   3.658   6.465   3.730  0.3354 -0.4174  0.3941
  401MOL   Cl2848828   3.520   6.465   3.842 -0.1655 -0.1307  0.0132
  401MOL    H2948829   3.791   6.517   3.888  0.7013 -1.7492 -1.2760
  401MOL    H3048830   3.864   6.534   3.731  0.2885 -0.5560  0.7951
  401MOL    H3148831   3.633   6.514   3.635 -0.9329 -3.1913 -0.7451
  401MOL    C3248832   3.689   6.316   3.707  0.0897  0.5003 -0.2721
  401MOL    C3348833   3.778   6.294   3.585 -0.2396 -0.3902 -0.2246
  401MOL   Cl3448834   3.698   6.352   3.437  0.1602  0.0034 -0.3236
  401MOL    H3548835   3.599   6.255   3.696  0.3582 -0.4238  2.2529
  401MOL    H3648836   3.746   6.279   3.792  1.2368  2.1934 -0.2907
  401MOL    H3748837   3.873   6.348   3.587 -1.6592  2.2800 -2.0494
  401MOL    C3848838   3.793   6.140   3.564 -0.3244  0.0292  0.3961
  401MOL    C3948839   3.854   6.061   3.678  0.2087  0.5453 -0.0122
  401MOL   Cl4048840   4.017   6.134   3.712  0.2628  0.2563 -0.0017
  401MOL    H4148841   3.845   6.133   3.469 -0.6912  0.6998  0.1462
  401MOL    H4248842   3.695   6.098   3.545 -0.9191  0.5378  2.2242
  401MOL    H4348843   3.799   6.085   3.769 -2.2294 -2.0666 -0.7431
  401MOL    C4448844   3.854   5.909   3.658  1.0460  0.1946 -0.6415
  401MOL    C4548845   3.716   5.837   3.639 -0.1741  0.3053 -0.4698
  401MOL   Cl4648846   3.629   5.882   3.783 -0.0847  0.0639 -0.1389
  401MOL    H4748847   3.906   5.864   3.742 -0.1476 -2.3053 -1.2021
  401MOL    H4848848   3.913   5.884   3.570  2.0500 -1.4415  0.4613
  401MOL    H4948849   3.673   5.879   3.547  1.1119 -0.8593 -1.6300
  401MOL    C5048850   3.724   5.685   3.635  0.1165 -0.0882 -0.4254
  401MOL    C5148851   3.792   5.616   3.518 -0.1369  0.7355  0.1830
  401MOL   Cl5248852   3.700   5.638   3.370 -0.0253  0.1664 -0.0151
  401MOL    H5348853   3.625   5.640   3.643  1.2464 -2.6364 -0.2707
  401MOL    H5448854   3.761   5.652   3.732 -0.2411 -2.2649 -1.0144
  401MOL    H5548855   3.895   5.648   3.497  0.7494 -2.1107 -0.0652
  401MOL    C5648856   3.812   5.466   3.556  0.1306 -0.1843 -0.2512
  401MOL    C5748857   3.865   5.375   3.428  0.1263  0.0870  0.0990
  401MOL   Cl5848858   3.890   5.220   3.509  0.2740  0.0089  0.0765
  401MOL    H5948859   3.712   5.431   3.581 -0.2661  0.0194 -1.4909
  401MOL    H6048860   3.889   5.447   3.630 -0.2643 -1.9009 -0.2530
  401MOL    H6148861   3.785   5.356   3.355 -0.6197  2.0488  0.3800
  401MOL    C6248862   4.001   5.433   3.373  0.0593  0.0374  0.2771
  401MOL    C6348863   4.070   5.344   3.268 -0.1312  0.0493  0.5040
  401MOL   Cl6448864   4.234   5.412   3.245 -0.2411  0.1052  0.2670
  401MOL    H6548865   4.064   5.462   3.457  0.7269 -1.7036  0.3970
  401MOL    H6648866   3.980   5.530   3.327  1.1637  0.6848  1.1101
  401MOL    H6748867   4.084   5.244   3.310  2.9515  0.3081  0.2063
  401MOL    C6848868   3.991   5.347   3.131 -0.4919 -0.7576 -0.4066
  401MOL    C6948869   4.055   5.269   3.013 -0.4951  0.1975  0.3207
  401MOL   Cl7048870   4.015   5.354   2.862  0.1970  0.5169 -0.0687
  401MOL    H7148871   3.966   5.449   3.105  0.6830 -0.1429  0.7914
  401MOL    H7248872   3.895   5.302   3.158 -0.9917  0.5609  0.0384
  401MOL    H7348873   4.163   5.275   3.019 -0.4694  1.7661 -1.2652
  401MOL    C7448874   4.012   5.127   2.998  0.5100  0.2241 -0.8678
  401MOL    C7548875   4.088   5.017   3.077  0.5305 -0.5812  0.8234
  401MOL   Cl7648876   4.251   5.008   3.007  0.6747 -0.0650 -0.3135
  401MOL    H7748877   4.018   5.097   2.894 -1.2365 -3.1062 -0.0855
  401MOL    H7848878   3.909   5.120   3.033  0.8074 -4.5056 -0.6745
  401MOL    H7948879   4.108   5.047   3.180  0.1568  0.3884  0.6160
  401MOL    C8048880   4.028   4.879   3.087 -0.7209  0.6805  0.6046
  401MOL    C8148881   3.899   4.866   3.177  0.3697  0.3504 -0.1961
  401MOL   Cl8248882   3.948   4.912   3.341  0.1141  0.3093  0.2881
  401MOL    H8348883   4.101   4.800   3.105 -0.3926  0.9715  0.5493
  401MOL    H8448884   3.998   4.850   2.986 -0.9994 -0.9388  1.1467
  401MOL    H8548885   3.830   4.944   3.144  1.1114  0.9020 -0.4688
  401MOL    C8648886   3.825   4.732   3.170 -0.2263 -0.0645 -0.8725
  401MOL    C8748887   3.671   4.745   3.198  0.2601  0.2278 -0.3165
  401MOL   Cl8848888   3.596   4.835   3.068 -0.4060  0.2706 -0.0131
  401MOL    H8948889   3.874   4.674   3.247 -0.0259 -0.6384 -1.4242
  401MOL    H9048890   3.845   4.694   3.069 -2.1233 -0.6650 -1.0559
  401MOL    H9148891   3.625   4.646   3.194  1.7986 -0.4854 -0.6556
  401MOL    C9248892   3.628   4.813   3.329 -1.4810  0.9817  0.1517
  401MOL    C9348893   3.635   4.718   3.451 -0.7797 -0.0064  0.8789
  401MOL   Cl9448894   3.508   4.597   3.446 -0.1392 -0.1524  0.4527
  401MOL    H9548895   3.521   4.836   3.328 -1.5908  0.5619  1.6517
  401MOL    H9648896   3.680   4.908   3.341  0.4518 -0.2374  1.7885
  401MOL    H9748897   3.729   4.665   3.467 -0.3520 -0.3348 -2.3029
  401MOL    C9848898   3.616   4.799   3.588 -0.1680 -0.7384  0.6311
  401MOL    C9948899   3.745   4.867   3.641  0.3203  0.1749  0.0807
  401MOL  Cl10048900   3.880   4.748   3.648 -0.0900  0.0005  0.0644
  401MOL   H10148901   3.580   4.739   3.671  1.3565 -0.3744  1.5893
  401MOL   H10248902   3.542   4.873   3.560  0.1585 -0.1696  1.2800
  401MOL   H10348903   3.771   4.948   3.573 -0.4462  0.8014  0.5350
  401MOL   C10448904   3.726   4.910   3.787  0.4657 -0.1124 -0.0983
  401MOL   C10548905   3.597   4.999   3.823  0.2212  0.2603 -0.7451
  401MOL  Cl10648906   3.595   5.153   3.722 -0.2184 -0.4470 -0.2267
  401MOL   H10748907   3.812   4.968   3.822 -1.4437  3.0410 -0.3691
  401MOL   H10848908   3.716   4.828   3.857 -4.8985 -0.5078 -1.1193
  401MOL   H10948909   3.518   4.931   3.791  1.7289  0.3358 -4.8891
  401MOL   C11048910   3.580   5.049   3.974  0.4095 -0.4350  0.2995
  401MOL   C11148911   3.437   5.100   3.986  0.3846  0.7253 -0.0340
  401MOL  Cl11248912   3.411   5.179   4.144 -0.0573 -0.4552 -0.2647
  401MOL   H11348913   3.654   5.124   4.004  1.4326 -1.2220 -0.2150
  401MOL   H11448914   3.592   4.965   4.043 -0.1759  0.5843  1.6522
  401MOL   H11548915   3.423   5.180   3.913  2.4231  1.5025  0.3870
  401MOL   C11648916   3.323   5.005   3.971 -0.0495 -0.0144  0.0104
  401MOL   C11748917   3.186   5.062   3.964 -0.0244 -0.3291 -0.3306
  401MOL  Cl11848918   3.057   4.946   3.912 -0.2851  0.0242 -0.0435
  401MOL   H11948919   3.328   4.938   4.057 -0.3611  0.3566  0.3165
  401MOL   H12048920   3.332   4.939   3.884  0.4393  2.9967 -2.3191
  401MOL   H12148921   3.142   5.108   4.053  3.1054  1.9549  0.1078
  401MOL   H12248922   3.173   5.133   3.882  0.2138  0.1512  0.0405
  402MOL     C148923   1.167   6.804   1.889  0.1803  0.0039 -0.2620
  402MOL     C248924   1.073   6.929   1.875  0.4373 -0.1693 -0.5978
  402MOL    Cl348925   1.159   7.069   1.937 -0.5308 -0.0047 -0.9056
  402MOL     H448926   1.111   6.721   1.845 -1.2830  0.8520 -0.0184
  402MOL     H548927   1.258   6.805   1.829 -0.4623  1.4911 -1.2523
  402MOL     H648928   1.062   6.939   1.767 -2.9134  0.1574 -0.2873
  402MOL     H748929   1.192   6.772   1.990  0.1016  0.7158 -0.0165
  402MOL     C848930   0.932   6.913   1.933 -0.2818  0.8324  0.4895
  402MOL     C948931   0.838   7.036   1.915 -0.2154  1.0570  0.2171
  402MOL   Cl1048932   0.706   7.019   2.034 -0.5596 -0.2332 -0.0313
  402MOL    H1148933   0.937   6.893   2.040 -0.6344  1.0202  0.5418
  402MOL    H1248934   0.883   6.830   1.882 -1.8848  2.2996 -0.4112
  402MOL    H1348935   0.895   7.128   1.934  1.2102  0.9018 -2.9743
  402MOL    C1448936   0.774   7.047   1.767  0.3944  0.1133  1.2922
  402MOL    C1548937   0.649   7.136   1.750  0.1329 -1.6480  0.3382
  402MOL   Cl1648938   0.599   7.124   1.584  0.1908 -0.1397  0.0241
  402MOL    H1748939   0.751   6.945   1.736 -0.2497  0.6028  0.1201
  402MOL    H1848940   0.840   7.072   1.684  0.9481  2.7934  2.4989
  402MOL    H1948941   0.564   7.106   1.810 -0.4466  0.1573  0.4391
  402MOL    C2048942   0.687   7.286   1.768 -0.0824 -0.3390 -0.0921
  402MOL    C2148943   0.578   7.390   1.735 -0.0681  0.3305  0.1732
  402MOL   Cl2248944   0.625   7.543   1.812  0.3859 -0.5883  0.1744
  402MOL    H2348945   0.769   7.309   1.700  0.3111 -0.6618  0.2718
  402MOL    H2448946   0.706   7.294   1.875 -1.3558 -1.0684  0.2056
  402MOL    H2548947   0.566   7.407   1.628 -1.5465  0.3980  0.3275
  402MOL    C2648948   0.443   7.342   1.791  0.0699 -0.0114 -0.8071
  402MOL    C2748949   0.333   7.449   1.790 -0.2766 -0.7415 -0.1959
  402MOL   Cl2848950   0.333   7.535   1.949 -0.1755 -0.1093  0.2179
  402MOL    H2948951   0.450   7.293   1.889 -2.3176  0.4340 -0.3803
  402MOL    H3048952   0.413   7.262   1.724  0.6675 -2.0599  1.3052
  402MOL    H3148953   0.365   7.524   1.718  1.4134 -0.5845  0.6906
  402MOL    C3248954   0.191   7.405   1.753  0.3606  0.6868  0.8291
  402MOL    C3348955   0.171   7.373   1.605  0.7853 -0.8798  0.5214
  402MOL   Cl3448956   0.182   7.527   1.516  0.0959 -0.0403 -0.0835
  402MOL    H3548957   0.124   7.489   1.769 -1.0631 -0.1153 -0.7984
  402MOL    H3648958   0.158   7.329   1.824 -2.3253  0.2087 -0.8699
  402MOL    H3748959   0.241   7.301   1.564  0.2592 -0.7775 -0.5766
  402MOL    C3848960   0.033   7.304   1.601  0.6658  0.2158 -0.8457
  402MOL    C3948961   0.017   7.232   1.469  0.0868 -0.4208 -0.1917
  402MOL   Cl4048962   8.461   7.351   1.363  0.3387 -0.0788 -0.0409
  402MOL    H4148963   8.486   7.384   1.623  0.9124  0.2359 -0.0770
  402MOL    H4248964   0.032   7.231   1.682 -2.3136  0.5626 -0.5178
  402MOL    H4348965   0.110   7.205   1.419  0.3356  0.3160 -0.1300
  402MOL    C4448966   8.455   7.101   1.486  0.0653 -0.7465 -0.0044
  402MOL    C4548967   8.456   6.997   1.374 -0.6514 -0.3034 -0.2626
  402MOL   Cl4648968   8.352   6.865   1.438 -0.6218 -0.0865 -0.0133
  402MOL    H4748969   8.353   7.134   1.510 -0.4864 -1.3773 -1.4656
  402MOL    H4848970   8.505   7.051   1.569  0.0842  0.1927  0.5581
  402MOL    H4948971   8.392   7.044   1.299 -0.4193  0.9257  0.3034
  402MOL    C5048972   0.070   6.940   1.331 -0.3792  0.0041  0.0661
  402MOL    C5148973   0.106   7.018   1.207  0.1703  0.0635  0.2180
  402MOL   Cl5248974   0.006   6.953   1.070 -0.0038 -0.5353 -0.3487
  402MOL    H5348975   0.066   6.832   1.317  2.3517 -0.4138  2.0608
  402MOL    H5448976   0.148   6.945   1.408  0.2113 -1.4831 -0.4318
  402MOL    H5548977   0.089   7.124   1.223 -1.3578  0.0140 -0.9875
  402MOL    C5648978   0.252   7.016   1.166 -0.3167  0.1727  0.4690
  402MOL    C5748979   0.362   7.074   1.265  0.1473 -0.7507  0.7597
  402MOL   Cl5848980   0.333   7.248   1.293 -0.0319 -0.1744 -0.0758
  402MOL    H5948981   0.273   7.069   1.073  1.6845 -1.8098 -0.2665
  402MOL    H6048982   0.281   6.911   1.157  1.2624  0.2916  3.2734
  402MOL    H6148983   0.339   7.028   1.361  0.6858  0.4633  1.4734
  402MOL    C6248984   0.507   7.062   1.222 -0.3680  0.3212 -0.4188
  402MOL    C6348985   0.560   6.913   1.229  0.1017 -0.5266 -0.3913
  402MOL   Cl6448986   0.527   6.829   1.380  0.2457 -0.3018 -0.6758
  402MOL    H6548987   0.584   7.121   1.273 -0.9822  0.7765 -0.0195
  402MOL    H6648988   0.512   7.092   1.117  1.8821 -2.2395 -1.1031
  402MOL    H6748989   0.502   6.849   1.163  0.8368  0.4491 -2.0227
  402MOL    C6848990   0.707   6.900   1.188 -0.5702 -0.1509  0.1702
  402MOL    C6948991   0.806   6.948   1.290 -0.6094  0.2464  0.9332
  402MOL   Cl7048992   0.853   7.116   1.258  0.3192 -0.1545  0.1755
  402MOL    H7148993   0.725   6.952   1.094 -0.1920 -0.3052  0.1545
  402MOL    H7248994   0.722   6.793   1.178 -2.1921 -0.3538 -0.2557
  402MOL    H7348995   0.763   6.960   1.389 -0.6982  0.6707  0.8466
  402MOL    C7448996   0.929   6.860   1.300 -0.1296  0.5516  0.6862
  402MOL    C7548997   0.910   6.735   1.381 -0.5044 -0.1268 -0.2986
  402MOL   Cl7648998   0.892   6.788   1.556 -0.0765 -0.2138 -0.4532
  402MOL    H7748999   1.014   6.909   1.348 -0.9616  1.0031  1.7451
  402MOL    H7849000   0.969   6.842   1.201  0.6496  0.6176  0.9867
  402MOL    H7949001   0.818   6.678   1.370 -0.0826 -0.6715 -1.0344
  402MOL    C8049002   1.025   6.632   1.379  0.3039 -0.5210  0.2923
  402MOL    C8149003   1.033   6.552   1.246  0.0827  0.3331  0.6289
  402MOL   Cl8249004   0.886   6.449   1.234  0.3537 -0.3907 -0.5786
  402MOL    H8349005   1.017   6.564   1.464  0.5585 -1.7461 -0.6633
  402MOL    H8449006   1.124   6.677   1.389 -0.4014  0.8659  1.2545
  402MOL    H8549007   1.033   6.617   1.159  1.0207  0.8732  1.0143
  402MOL    C8649008   1.161   6.458   1.235 -0.3491  0.7907 -0.4259
  402MOL    C8749009   1.194   6.424   1.085  0.1832 -0.3833 -0.5288
  402MOL   Cl8849010   1.248   6.577   1.012  0.4231 -0.2087  0.0691
  402MOL    H8949011   1.147   6.369   1.296  1.9613 -0.2974 -1.4270
  402MOL    H9049012   1.244   6.506   1.286  0.6928 -0.5877 -0.8054
  402MOL    H9149013   1.271   6.348   1.073  0.8120  0.3875 -1.5113
  402MOL    C9249014   1.085   6.360   1.000  0.2725  0.1105 -0.3306
  402MOL    C9349015   1.139   6.277   0.879 -0.6521  0.1198 -0.0586
  402MOL   Cl9449016   1.176   6.388   0.747 -0.3289  0.1725  0.0611
  402MOL    H9549017   1.014   6.434   0.963  2.3505  1.9707 -0.7490
  402MOL    H9649018   1.026   6.297   1.066 -0.4475  0.2499 -0.8351
  402MOL    H9749019   1.237   6.233   0.899 -0.3636  0.2849 -1.0527
  402MOL    C9849020   1.046   6.168   0.828  0.0978 -0.2068  0.2100
  402MOL    C9949021   1.120   6.047   0.779  0.0077 -0.6239 -0.1931
  402MOL  Cl10049022   1.229   6.095   0.644 -0.0064 -0.0190 -0.2719
  402MOL   H10149023   0.978   6.192   0.746 -0.3603 -0.5709  0.4773
  402MOL   H10249024   0.982   6.135   0.910  0.3926 -1.9463 -0.2438
  402MOL   H10349025   1.178   6.011   0.863 -0.4538 -0.4749  0.1942
  402MOL   C10449026   1.030   5.929   0.725 -0.2448  0.3300 -0.1199
  402MOL   C10549027   0.919   5.891   0.819 -0.1774 -0.5235 -0.1708
  402MOL  Cl10649028   0.980   5.815   0.969  0.2262 -0.0625  0.0684
  402MOL   H10749029   1.082   5.837   0.699  0.0282  0.3049  0.4930
  402MOL   H10849030   0.976   5.969   0.639 -2.6396 -0.7128  0.8507
  402MOL   H10949031   0.854   5.970   0.856 -1.1755 -1.1298 -0.5999
  402MOL   C11049032   0.828   5.786   0.749  0.4743 -0.3408  0.2282
  402MOL   C11149033   0.746   5.834   0.625  0.2780  0.0947 -0.0622
  402MOL  Cl11249034   0.608   5.936   0.677  0.1718  0.0405  0.1959
  402MOL   H11349035   0.759   5.737   0.818  1.2496 -1.8193 -0.0301
  402MOL   H11449036   0.886   5.700   0.716 -1.8372 -1.3507 -1.2980
  402MOL   H11549037   0.810   5.897   0.563  2.0133 -1.4895  0.0914
  402MOL   C11649038   0.694   5.722   0.547  0.4543 -0.0484 -0.6845
  402MOL   C11749039   0.680   5.751   0.396  0.2967  0.1946  0.1394
  402MOL  Cl11849040   0.633   5.603   0.310  0.3054  0.0336  0.1910
  402MOL   H11949041   0.599   5.678   0.576 -0.2455  1.7526 -0.2089
  402MOL   H12049042   0.766   5.641   0.540 -0.5281 -0.7947 -2.5917
  402MOL   H12149043   0.609   5.832   0.382 -1.2630 -1.5329 -2.2823
  402MOL   H12249044   0.781   5.778   0.363  1.3710 -3.9211 -0.2394
  403MOL     C149045   2.041   0.503   3.405  0.7407 -0.5696 -0.1381
  403MOL     C249046   2.187   0.466   3.378 -0.2349 -0.3955  0.3070
  403MOL    Cl349047   2.293   0.482   3.520  0.1888 -0.2436 -0.0958
  403MOL     H449048   1.974   0.455   3.334 -1.6610  0.6396  1.2528
  403MOL     H549049   1.998   0.476   3.501 -1.8084 -1.3512 -1.4389
  403MOL     H649050   2.195   0.361   3.349 -2.1863 -0.5133  0.1504
  403MOL     H749051   2.023   0.611   3.400 -0.5039 -0.6079  2.6525
  403MOL     C849052   2.239   0.551   3.259 -0.0132 -0.0323 -0.4340
  403MOL     C949053   2.191   0.519   3.116 -0.3941 -0.6711  0.3584
  403MOL   Cl1049054   2.262   0.356   3.068  0.0873  0.3837 -0.1201
  403MOL    H1149055   2.347   0.542   3.260 -0.0127 -0.0778 -1.0153
  403MOL    H1249056   2.211   0.654   3.281 -0.2358 -0.3814  0.9895
  403MOL    H1349057   2.083   0.506   3.126 -0.3551  0.0226  1.7527
  403MOL    C1449058   2.208   0.623   3.003  0.5465 -0.4311  0.6722
  403MOL    C1549059   2.159   0.590   2.859  0.1899  0.6761  0.7136
  403MOL   Cl1649060   2.238   0.695   2.735 -0.0009 -0.4109  0.1301
  403MOL    H1749061   2.313   0.642   2.980  0.6288 -0.2932  1.1726
  403MOL    H1849062   2.161   0.717   3.029  0.8837  0.3970 -1.5997
  403MOL    H1949063   2.207   0.493   2.841 -0.5175  0.5059 -0.2985
  403MOL    C2049064   2.008   0.584   2.840  0.3516 -0.1197  0.2953
  403MOL    C2149065   1.945   0.444   2.846  0.4761 -0.0755  0.1909
  403MOL   Cl2249066   1.986   0.348   2.700 -0.0586  0.4377  0.1624
  403MOL    H2349067   1.981   0.629   2.744  2.2729  0.0687 -0.1793
  403MOL    H2449068   1.965   0.644   2.920 -0.1454 -0.3591  0.2097
  403MOL    H2549069   1.985   0.375   2.920 -2.5544 -2.1217 -0.0078
  403MOL    C2649070   1.789   0.456   2.875  0.1566 -0.4084  0.2282
  403MOL    C2749071   1.711   0.323   2.864 -0.2910 -0.3068  0.2074
  403MOL   Cl2849072   1.538   0.364   2.890  0.5193 -0.2560 -0.3408
  403MOL    H2949073   1.744   0.532   2.812 -0.0920 -0.0778  0.7931
  403MOL    H3049074   1.775   0.498   2.975 -0.9615  0.0702 -0.1184
  403MOL    H3149075   1.721   0.294   2.759  0.1544 -3.0840  0.9969
  403MOL    C3249076   1.750   0.202   2.940  0.0721 -0.0828 -0.9653
  403MOL    C3349077   1.698   0.069   2.886  0.5273  0.4000 -0.4408
  403MOL   Cl3449078   1.693   8.473   3.020 -0.4802 -0.2497  0.2889
  403MOL    H3549079   1.720   0.206   3.044  1.6784  1.1687 -0.5360
  403MOL    H3649080   1.859   0.206   2.946  0.1451 -1.8211 -0.7050
  403MOL    H3749081   1.596   0.085   2.851 -0.3927 -0.4545  1.7651
  403MOL    C3849082   1.771   0.021   2.757 -0.3135 -0.2215  0.1604
  403MOL    C3949083   1.726   8.417   2.696  0.4098 -0.3689 -0.0422
  403MOL   Cl4049084   1.847   8.352   2.571 -0.0535  0.1332  0.1096
  403MOL    H4149085   1.877   0.008   2.780  0.1981  2.5259 -0.4896
  403MOL    H4249086   1.785   0.087   2.671 -0.5357 -0.6554 -0.2153
  403MOL    H4349087   1.732   8.343   2.776  1.0464 -2.5085 -2.0015
  403MOL    C4449088   1.586   8.417   2.636 -0.4037 -0.1244  0.2170
  403MOL    C4549089   1.570   8.510   2.511  0.0917  0.5299  0.1855
  403MOL   Cl4649090   1.542   0.144   2.569  0.0914 -0.1592  0.5552
  403MOL    H4749091   1.512   8.433   2.714 -0.6866 -2.3179  0.4236
  403MOL    H4849092   1.572   8.311   2.617 -0.4515  0.2559 -2.0448
  403MOL    H4949093   1.659   8.513   2.448 -0.4008  0.2175 -0.5226
  403MOL    C5049094   1.445   8.469   2.425 -0.5017  0.4877  0.1996
  403MOL    C5149095   1.427   0.028   2.290  0.4183  0.4806 -0.1186
  403MOL   Cl5249096   1.266   0.006   2.230 -0.4366 -0.5644  0.2334
  403MOL    H5349097   1.355   8.470   2.487 -1.7328  1.4628 -1.5813
  403MOL    H5449098   1.448   8.370   2.381  0.0869  0.3771  0.4758
  403MOL    H5549099   1.446   0.132   2.315 -3.6170  0.7735  2.1774
  403MOL    C5649100   1.528   8.520   2.185  0.0345  0.4459 -0.4328
  403MOL    C5749101   1.522   0.092   2.072 -0.5152 -0.1541  0.2233
  403MOL   Cl5849102   1.606   0.015   1.938 -0.2737  0.1305  0.0751
  403MOL    H5949103   1.496   8.423   2.148 -2.4969  1.0498  0.1041
  403MOL    H6049104   1.631   8.511   2.222 -0.8028 -1.1927  1.5854
  403MOL    H6149105   1.416   0.096   2.047 -0.6862  0.8871  1.0701
  403MOL    C6249106   1.579   0.239   2.096  0.5583  0.4143  0.0665
  403MOL    C6349107   1.590   0.334   1.972 -0.5116 -0.4260 -0.3734
  403MOL   Cl6449108   1.711   0.454   2.011  0.1899 -0.0599  0.3135
  403MOL    H6549109   1.678   0.232   2.142 -0.1117  0.7429  1.5549
  403MOL    H6649110   1.522   0.283   2.177  2.2158  2.1511  0.3345
  403MOL    H6749111   1.636   0.284   1.887  2.9774  0.8933  0.6335
  403MOL    C6849112   1.448   0.377   1.938 -0.3822  0.0839 -0.6885
  403MOL    C6949113   1.430   0.498   1.845 -0.1768 -0.1088  0.1684
  403MOL   Cl7049114   1.269   0.560   1.854 -0.1839 -0.3874  0.1048
  403MOL    H7149115   1.397   0.398   2.032  1.3253  3.0931 -0.3680
  403MOL    H7249116   1.390   0.301   1.886 -1.0164 -0.5607  0.9233
  403MOL    H7349117   1.504   0.575   1.867  0.0203  0.4853 -2.3695
  403MOL    C7449118   1.444   0.443   1.705 -0.1554 -0.2228 -0.5843
  403MOL    C7549119   1.432   0.540   1.581 -0.0045 -0.1453 -0.1315
  403MOL   Cl7649120   1.443   0.440   1.433  0.2481  0.3379 -0.0595
  403MOL    H7749121   1.378   0.363   1.672 -0.3373  0.3811 -1.7056
  403MOL    H7849122   1.541   0.395   1.713 -0.9302 -1.6482  0.5435
  403MOL    H7949123   1.331   0.580   1.570  0.5759  0.9624 -1.6235
  403MOL    C8049124   1.539   0.654   1.568  0.0129  0.8469 -0.0084
  403MOL    C8149125   1.484   0.745   1.457  0.1609 -0.2981 -0.2127
  403MOL   Cl8249126   1.631   0.815   1.379  0.2040 -0.0435 -0.0581
  403MOL    H8349127   1.633   0.605   1.542 -0.1675  0.7867 -0.5733
  403MOL    H8449128   1.565   0.706   1.660  0.1389 -1.3854  1.2567
  403MOL    H8549129   1.441   0.694   1.370  1.6061 -0.1636 -1.0368
  403MOL    C8649130   1.390   0.852   1.511 -0.3078  0.1397 -0.2044
  403MOL    C8749131   1.316   0.934   1.400 -0.6028 -0.2724  0.0049
  403MOL   Cl8849132   1.229   1.057   1.502 -0.0627  0.0762 -0.3357
  403MOL    H8949133   1.438   0.924   1.578  2.4852 -2.1264  0.3201
  403MOL    H9049134   1.315   0.800   1.571  0.9461  0.0777  1.3618
  403MOL    H9149135   1.389   0.984   1.336 -1.2565  0.7878  0.0738
  403MOL    C9249136   1.215   0.857   1.309 -0.0190 -0.4946 -0.1290
  403MOL    C9349137   1.123   0.922   1.202 -0.1106  0.2938 -0.0422
  403MOL   Cl9449138   1.214   1.053   1.117  0.2582  0.2265  0.4570
  403MOL    H9549139   1.170   0.773   1.362 -0.4800  0.3245  0.7820
  403MOL    H9649140   1.287   0.806   1.244 -1.3200 -1.1804 -1.0761
  403MOL    H9749141   1.112   0.849   1.122  0.0028 -0.5818  0.7287
  403MOL    C9849142   0.986   0.982   1.252 -0.4644 -0.0581 -0.7734
  403MOL    C9949143   0.883   0.878   1.311  0.4898  0.2079 -0.2780
  403MOL  Cl10049144   0.804   0.802   1.175  0.0652 -0.3525 -0.3848
  403MOL   H10149145   0.930   1.030   1.172  0.2602  2.4181  0.1364
  403MOL   H10249146   1.015   1.060   1.322 -1.8244 -0.2857  0.0516
  403MOL   H10349147   0.934   0.797   1.364 -1.5971  0.6750  2.5475
  403MOL   C10449148   0.771   0.944   1.393 -0.0378  0.2202 -0.4473
  403MOL   C10549149   0.804   0.968   1.545 -0.2412 -0.2707  0.3838
  403MOL  Cl10649150   0.830   0.809   1.630  0.6870  0.0774  0.0776
  403MOL   H10749151   0.685   0.877   1.384  0.9751 -0.9710 -1.3982
  403MOL   H10849152   0.742   1.043   1.359  0.0724  0.5259  0.3301
  403MOL   H10949153   0.897   1.019   1.571 -0.9752  1.1462  0.2668
  403MOL   C11049154   0.687   1.053   1.614  0.3616  0.1650 -0.2797
  403MOL   C11149155   0.665   1.203   1.575  0.0672  0.3261  0.2946
  403MOL  Cl11249156   0.827   1.290   1.611  0.5241  0.3718  0.1403
  403MOL   H11349157   0.696   1.040   1.722 -1.7282 -2.9914 -0.4313
  403MOL   H11449158   0.596   0.995   1.602  0.3890  0.3891 -1.6814
  403MOL   H11549159   0.646   1.207   1.468 -1.7442 -0.2380  0.5735
  403MOL   C11649160   0.536   1.268   1.642  0.5355  0.1529  0.2786
  403MOL   C11749161   0.527   1.413   1.622  0.5414  0.1142  0.9247
  403MOL  Cl11849162   0.522   1.453   1.456 -0.1872 -0.5946 -0.0913
  403MOL   H11949163   0.529   1.257   1.750 -3.6024  0.5270  0.1322
  403MOL   H12049164   0.441   1.231   1.604  0.5571  0.5056 -0.1243
  403MOL   H12149165   0.434   1.453   1.662  0.8305  2.4385 -0.6685
  403MOL   H12249166   0.613   1.465   1.664  1.0531 -1.1695  1.4975
  404MOL     C149167   8.160   7.715   7.387  0.2235  0.0473 -0.0056
  404MOL     C249168   8.315   7.702   7.380 -0.6099  0.7616  0.0518
  404MOL    Cl349169   8.382   7.788   7.237 -0.0201  0.4847  0.1424
  404MOL     H449170   8.108   7.688   7.295  0.5703  0.5237 -0.3486
  404MOL     H549171   8.111   7.653   7.462 -1.3026 -1.1144 -1.9285
  404MOL     H649172   8.354   7.756   7.466 -0.1121  0.8437 -0.2255
  404MOL     H749173   8.131   7.819   7.403  0.8555  0.2559 -0.1976
  404MOL     C849174   8.366   7.552   7.374  0.3411 -0.1180 -1.1919
  404MOL     C949175   8.384   7.469   7.506  0.2961  0.2536  0.0122
  404MOL   Cl1049176   8.223   7.441   7.580 -0.4692  0.0501  0.2752
  404MOL    H1149177   8.463   7.552   7.325  1.4515 -2.6565  0.8937
  404MOL    H1249178   8.302   7.497   7.305  2.2105 -3.6326 -0.2300
  404MOL    H1349179   8.422   7.370   7.480 -0.2387  0.0713 -0.0795
  404MOL    C1449180   8.485   7.544   7.598 -0.3320  0.0650  0.2648
  404MOL    C1549181   0.096   7.570   7.548 -0.0261 -0.2123  0.4510
  404MOL   Cl1649182   0.164   7.407   7.502  0.0174  0.0482 -0.2105
  404MOL    H1749183   8.486   7.501   7.698 -0.6785 -1.9934 -0.5824
  404MOL    H1849184   8.435   7.636   7.625 -1.0549  0.0549 -0.9865
  404MOL    H1949185   0.097   7.613   7.448 -0.2809 -1.6485 -0.1880
  404MOL    C2049186   0.179   7.641   7.652  0.4009  0.9363 -0.1611
  404MOL    C2149187   0.132   7.783   7.681 -0.3485  0.8931  0.2720
  404MOL   Cl2249188   0.111   7.879   7.528  0.0402 -0.4675  0.2823
  404MOL    H2349189   0.279   7.649   7.609  0.2032 -0.0920 -0.8148
  404MOL    H2449190   0.174   7.577   7.741 -2.4724  2.2362  0.6682
  404MOL    H2549191   0.030   7.767   7.715 -0.4565 -0.9724 -0.9167
  404MOL    C2649192   0.215   7.874   7.778 -0.2168 -0.0028 -0.2511
  404MOL    C2749193   0.261   7.804   7.906 -0.0379  0.2333  0.3295
  404MOL   Cl2849194   0.116   7.780   8.007 -0.0762 -0.4207 -0.0129
  404MOL    H2949195   0.159   7.962   7.807 -0.4627 -0.6136  1.2044
  404MOL    H3049196   0.307   7.906   7.730 -0.2782  1.0595  0.3480
  404MOL    H3149197   0.307   7.706   7.895 -1.6335 -0.5538  0.6287
  404MOL    C3249198   0.373   7.876   7.981  0.4814  0.2970  0.0117
  404MOL    C3349199   0.468   7.791   8.069 -0.0513 -0.6448  0.4288
  404MOL   Cl3449200   0.388   7.746   8.217 -0.2142 -0.2678 -0.2245
  404MOL    H3549201   0.340   7.957   8.046 -0.5042  0.0145 -0.1290
  404MOL    H3649202   0.437   7.928   7.910  0.0658 -1.6165 -1.8346
  404MOL    H3749203   0.498   7.697   8.023  2.2681  0.8956 -1.3540
  404MOL    C3849204   0.597   7.861   8.110  0.0325 -0.2116  0.2713
  404MOL    C3949205   0.682   7.913   7.989 -0.6102  0.1390 -0.4051
  404MOL   Cl4049206   0.734   7.764   7.904  0.3519 -0.2685  0.0359
  404MOL    H4149207   0.651   7.790   8.173  0.1219  0.0584  0.4941
  404MOL    H4249208   0.567   7.949   8.167  0.7349  0.0093  0.2997
  404MOL    H4349209   0.625   7.972   7.917 -0.6112  0.4366 -0.1613
  404MOL    C4449210   0.807   7.979   8.039  0.2452  0.2598 -0.0509
  404MOL    C4549211   0.795   8.096   8.140 -0.1915  0.2692 -0.1206
  404MOL   Cl4649212   0.701   8.236   8.074 -0.0092  0.1414 -0.2691
  404MOL    H4749213   0.873   8.008   7.957 -0.7688  1.1484 -0.5676
  404MOL    H4849214   0.857   7.901   8.095 -0.8500 -0.3053  0.1386
  404MOL    H4949215   0.739   8.057   8.225  1.1073 -0.5276  0.3764
  404MOL    C5049216   0.937   8.132   8.183  0.3101  0.5315 -0.0138
  404MOL    C5149217   0.966   8.183   8.324 -0.1721  0.7372 -0.2445
  404MOL   Cl5249218   0.971   8.041   8.431 -0.2774  0.1892  0.0279
  404MOL    H5349219   0.972   8.208   8.113 -3.8169  1.8148 -0.7619
  404MOL    H5449220   1.000   8.044   8.164  0.1989  0.3572  0.4118
  404MOL    H5549221   1.065   8.230   8.323  0.2045 -0.0429 -1.0666
  404MOL    C5649222   0.856   8.283   8.363 -0.7773  0.3871 -0.2899
  404MOL    C5749223   0.904   8.383   8.466 -0.3656  0.0612 -0.5091
  404MOL   Cl5849224   0.906   8.315   0.108  0.3547  0.2495 -0.1275
  404MOL    H5949225   0.768   8.228   8.394 -1.2140  0.6276 -1.0704
  404MOL    H6049226   0.838   8.339   8.271 -0.3019 -0.8576 -1.1485
  404MOL    H6149227   1.005   8.413   8.438 -0.5750 -0.4645 -1.8794
  404MOL    C6249228   0.811   8.507   8.460  0.1866 -1.4181 -0.3535
  404MOL    C6349229   0.847   0.089   8.359  0.6089  0.3391  0.8387
  404MOL   Cl6449230   0.989   0.182   8.408 -0.3256 -0.2997 -0.2700
  404MOL    H6549231   0.807   0.029   0.033  0.6432 -2.2027  0.0487
  404MOL    H6649232   0.708   8.473   8.451 -0.9869  1.5642  1.1023
  404MOL    H6749233   0.872   0.049   8.261  0.9609 -1.5072  1.6697
  404MOL    C6849234   0.729   0.187   8.347 -0.9082 -0.3263 -0.0608
  404MOL    C6949235   0.637   0.145   8.226 -0.1402 -0.2508  0.0374
  404MOL   Cl7049236   0.722   0.192   8.085 -0.1976  0.2358  0.1071
  404MOL    H7149237   0.766   0.289   8.341  1.2215 -0.7564  3.9121
  404MOL    H7249238   0.660   0.186   8.432 -1.3565  1.8892 -0.3854
  404MOL    H7349239   0.630   0.036   8.227 -2.0937 -0.1345  2.2838
  404MOL    C7449240   0.495   0.192   8.220  0.5549  0.5994 -0.5306
  404MOL    C7549241   0.454   0.337   8.163  0.0523  0.7790 -0.9440
  404MOL   Cl7649242   0.495   0.449   8.295  0.0932 -0.2772  0.2336
  404MOL    H7749243   0.463   0.182   8.323 -1.6300 -0.4856 -1.2974
  404MOL    H7849244   0.442   0.121   8.157  0.2068  1.0808 -0.7892
  404MOL    H7949245   0.511   0.370   8.076  0.2772  1.3142 -0.6057
  404MOL    C8049246   0.308   0.342   8.141  0.2047 -0.1254  0.0404
  404MOL    C8149247   0.253   0.474   8.079 -0.9041 -0.2656 -0.0447
  404MOL   Cl8249248   0.075   0.465   8.093  0.4553  0.1327  0.0732
  404MOL    H8349249   0.260   0.328   8.238  1.4979  0.7526  0.8304
  404MOL    H8449250   0.262   0.265   8.079 -0.6473  0.1908  0.2748
  404MOL    H8549251   0.290   0.550   8.148 -0.4230 -0.8877  0.3944
  404MOL    C8649252   0.295   0.494   7.929 -0.2755 -0.3409  0.4530
  404MOL    C8749253   0.259   0.638   7.886  0.2570  0.6215 -0.7335
  404MOL   Cl8849254   0.280   0.661   7.710  0.3803  0.1435  0.1538
  404MOL    H8949255   0.255   0.421   7.859  3.5280  1.3434 -3.6653
  404MOL    H9049256   0.401   0.475   7.914 -0.1539  0.4480  0.2978
  404MOL    H9149257   0.151   0.645   7.893  0.2583 -0.5433  0.6875
  404MOL    C9249258   0.329   0.755   7.957  0.6664  0.1422  0.2184
  404MOL    C9349259   0.267   0.898   7.961 -0.4372  1.0996 -0.2228
  404MOL   Cl9449260   0.344   0.978   8.106 -0.2686 -0.1425  0.2560
  404MOL    H9549261   0.427   0.755   7.910  0.6399 -1.2510  0.1644
  404MOL    H9649262   0.361   0.724   8.056 -0.9093 -0.1230  0.6618
  404MOL    H9749263   0.299   0.941   7.866 -1.2014 -0.1774 -1.0831
  404MOL    C9849264   0.116   0.911   7.968  0.1634  0.8762  0.2665
  404MOL    C9949265   0.066   1.058   7.948  0.8302 -0.3560  1.1636
  404MOL  Cl10049266   0.135   1.124   7.795  0.1214  0.1066  0.1325
  404MOL   H10149267   0.079   0.868   8.061 -0.3545 -3.4268 -1.8006
  404MOL   H10249268   0.060   0.844   7.902  0.6800 -0.1954  0.8992
  404MOL   H10349269   8.485   1.044   7.929  0.6605  0.6958  1.2663
  404MOL   C10449270   0.085   1.158   8.063 -0.5925 -0.7457  0.4814
  404MOL   C10549271   0.035   1.126   8.209  0.0013  0.9849  0.3468
  404MOL  Cl10649272   8.384   1.141   8.198  0.2283 -0.1775 -0.0801
  404MOL   H10749273   0.028   1.246   8.035  0.9371  0.6194  1.6088
  404MOL   H10849274   0.189   1.191   8.068 -2.0222  4.2198  0.0168
  404MOL   H10949275   0.062   1.023   8.230 -1.2941  0.1068 -2.0924
  404MOL   C11049276   0.103   1.217   8.301 -0.1136  0.4661 -0.4881
  404MOL   C11149277   0.030   1.235   8.439 -0.1895  0.8245  0.0727
  404MOL  Cl11249278   0.104   1.385   8.502 -0.1279  0.2040 -0.0577
  404MOL   H11349279   0.098   1.315   8.252 -1.9524  1.1805  1.0752
  404MOL   H11449280   0.203   1.181   8.324 -1.3199 -0.9002  2.8170
  404MOL   H11549281   8.448   1.256   8.431 -0.9046 -2.8490 -0.7720
  404MOL   C11649282   0.053   1.111   0.002 -0.0849 -0.3240 -0.5107
  404MOL   C11749283   0.023   1.129   0.147  0.2669  0.4578 -0.5443
  404MOL  Cl11849284   0.029   0.978   0.245 -0.0329 -0.1150  0.1608
  404MOL   H11949285   0.159   1.090   0.016 -0.2202 -1.3821 -0.9971
  404MOL   H12049286   0.001   1.021   8.493  4.4422 -3.3064  0.0236
  404MOL   H12149287   0.084   1.209   0.190  0.6314 -0.1550  0.0810
  404MOL   H12249288   8.443   1.156   0.147 -0.2330 -1.3933  1.0677
  405MOL     C149289   6.754   1.425   7.843 -0.1995  0.2251  0.7470
  405MOL     C249290   6.645   1.334   7.898 -0.0646  0.0825 -0.5329
  405MOL    Cl349291   6.639   1.172   7.808 -0.1936  0.2106 -0.3792
  405MOL     H449292   6.745   1.439   7.736 -0.2420  0.0633  0.7288
  405MOL     H549293   6.768   1.520   7.895  0.8008  0.4909 -0.0050
  405MOL     H649294   6.666   1.298   7.999 -0.1952  1.2205 -0.0868
  405MOL     H749295   6.848   1.374   7.860  0.0249  0.3440 -0.1565
  405MOL     C849296   6.505   1.395   7.911  0.3524 -0.0930 -0.2572
  405MOL     C949297   6.477   1.514   8.013 -0.9023 -0.0602  0.4789
  405MOL   Cl1049298   6.461   1.435   8.166  0.0230  0.0325 -0.1474
  405MOL    H1149299   6.430   1.317   7.925  1.2627 -0.7561  0.9332
  405MOL    H1249300   6.486   1.436   7.811 -0.1447  1.8841  0.6220
  405MOL    H1349301   6.569   1.572   8.028 -1.0966  1.5589 -3.8864
  405MOL    C1449302   6.358   1.605   7.988 -0.6274 -0.1312 -0.0391
  405MOL    C1549303   6.349   1.645   7.845  0.0549 -0.3448  0.9451
  405MOL   Cl1649304   6.507   1.711   7.795  0.0848  0.1280  0.0745
  405MOL    H1749305   6.363   1.689   8.056 -1.3989  0.1642 -0.3466
  405MOL    H1849306   6.262   1.559   8.011 -0.7487  0.4387  0.6048
  405MOL    H1949307   6.340   1.573   7.763  1.3532  4.0715 -3.3841
  405MOL    C2049308   6.241   1.763   7.822  0.1092  0.4628  0.1205
  405MOL    C2149309   6.088   1.718   7.810 -0.1826 -0.4586  0.2313
  405MOL   Cl2249310   6.065   1.610   7.672  0.0361 -0.0869  0.5873
  405MOL    H2349311   6.261   1.809   7.725 -0.0524  0.6684  0.1840
  405MOL    H2449312   6.263   1.840   7.896  1.0638 -0.8907  1.2525
  405MOL    H2549313   6.070   1.663   7.902 -0.6694 -1.1352 -0.2712
  405MOL    C2649314   5.992   1.840   7.796  0.0117  0.2967  0.0207
  405MOL    C2749315   5.840   1.810   7.800 -0.2575 -1.1072 -0.4683
  405MOL   Cl2849316   5.803   1.729   7.955 -0.0844 -0.0568  0.0197
  405MOL    H2949317   6.017   1.894   7.705  0.2973  1.8534  1.0156
  405MOL    H3049318   6.008   1.909   7.879 -0.0777  0.7354 -0.3261
  405MOL    H3149319   5.789   1.907   7.801  0.4637 -0.7162  0.9965
  405MOL    C3249320   5.783   1.735   7.679 -0.4296 -0.3430 -0.4317
  405MOL    C3349321   5.824   1.795   7.537 -0.1085  0.1416 -0.6229
  405MOL   Cl3449322   5.759   1.958   7.528 -0.0671 -0.1741 -0.1000
  405MOL    H3549323   5.674   1.736   7.683 -0.4449  1.4982 -0.6776
  405MOL    H3649324   5.806   1.630   7.693  0.9660  0.0558  0.3541
  405MOL    H3749325   5.930   1.793   7.512  0.4901 -0.4748  1.8240
  405MOL    C3849326   5.756   1.716   7.422 -0.4356 -0.6883 -0.1044
  405MOL    C3949327   5.821   1.579   7.381  0.5293 -0.3743 -0.0283
  405MOL   Cl4049328   5.993   1.611   7.322 -0.2182  0.1884  0.0756
  405MOL    H4149329   5.759   1.780   7.334  0.6832 -1.2915 -0.5183
  405MOL    H4249330   5.652   1.700   7.450 -0.2650  0.5114  1.2807
  405MOL    H4349331   5.832   1.512   7.466  0.7561  2.1788  2.0315
  405MOL    C4449332   5.746   1.505   7.277 -0.1096 -0.0002  0.2463
  405MOL    C4549333   5.803   1.366   7.241 -0.2059 -0.3003 -0.6788
  405MOL   Cl4649334   5.702   1.299   7.102 -0.1859  0.1163 -0.1583
  405MOL    H4749335   5.751   1.571   7.190  0.1347 -0.2733  0.0532
  405MOL    H4849336   5.645   1.489   7.313 -0.2484  0.0498 -0.1182
  405MOL    H4949337   5.903   1.388   7.203  0.8038 -0.5418  1.7113
  405MOL    C5049338   5.807   1.266   7.356 -0.1858  0.5645 -0.0287
  405MOL    C5149339   5.861   1.125   7.312  1.0755 -0.4127  0.1398
  405MOL   Cl5249340   5.870   1.029   7.460  0.0142  0.0165 -0.1022
  405MOL    H5349341   5.712   1.258   7.409  0.5340 -1.9359  0.9483
  405MOL    H5449342   5.864   1.306   7.441 -0.0978 -1.0259  0.6698
  405MOL    H5549343   5.795   1.084   7.235  3.2326  1.8006 -3.0672
  405MOL    C5649344   6.004   1.126   7.246  0.2447 -0.0550  0.0030
  405MOL    C5749345   6.066   0.989   7.215 -0.2921  0.0277 -0.5976
  405MOL   Cl5849346   6.222   1.024   7.131 -0.0002 -0.6238  0.4912
  405MOL    H5949347   6.071   1.185   7.308  0.9416 -0.2442 -0.5684
  405MOL    H6049348   6.008   1.184   7.153  0.8477  0.0081  0.0708
  405MOL    H6149349   6.087   0.934   7.307 -2.1739 -0.0958 -0.2319
  405MOL    C6249350   5.972   0.904   7.132  0.2968 -0.0370 -0.4335
  405MOL    C6349351   6.030   0.762   7.100 -0.7648 -0.0400 -0.8837
  405MOL   Cl6449352   5.899   0.664   7.030 -0.3052  0.2656 -0.1273
  405MOL    H6549353   5.952   0.950   7.035  1.0892  0.1967 -0.4982
  405MOL    H6649354   5.873   0.892   7.175 -0.2447  2.0862 -1.0087
  405MOL    H6749355   6.091   0.772   7.011  0.1097  1.2667 -0.1484
  405MOL    C6849356   6.107   0.680   7.206 -0.2948  0.4740 -0.4623
  405MOL    C6949357   6.018   0.596   7.301 -0.5466 -0.1481  0.1124
  405MOL   Cl7049358   5.899   0.701   7.390 -0.5678  0.1633 -0.1713
  405MOL    H7149359   6.173   0.744   7.265 -1.0217 -0.3735  1.3204
  405MOL    H7249360   6.169   0.612   7.148  0.7752  1.7140 -0.7918
  405MOL    H7349361   5.960   0.526   7.240 -1.8130  0.3424  0.7314
  405MOL    C7449362   6.080   0.495   7.399 -0.5817  1.1962  0.4483
  405MOL    C7549363   6.165   0.381   7.332 -1.5334  0.0966 -0.6230
  405MOL   Cl7649364   6.047   0.262   7.270 -0.0112  0.0311  0.2805
  405MOL    H7749365   6.000   0.443   7.453 -0.8632  1.3046  0.1313
  405MOL    H7849366   6.131   0.554   7.475  0.1919  2.4079 -0.9903
  405MOL    H7949367   6.226   0.417   7.249 -2.3205 -1.0699 -1.7247
  405MOL    C8049368   6.247   0.300   7.439 -0.1619 -0.3123  0.8770
  405MOL    C8149369   6.355   0.200   7.384  0.1984 -0.6342  0.3116
  405MOL   Cl8249370   6.431   0.133   7.530  0.0069 -0.2053 -0.1998
  405MOL    H8349371   6.180   0.243   7.503  0.4067  0.4967  2.2080
  405MOL    H8449372   6.297   0.370   7.505  0.1308  0.7706 -0.4714
  405MOL    H8549373   6.297   0.130   7.325 -1.3064  1.2501 -0.5074
  405MOL    C8649374   6.467   0.257   7.297 -0.9046 -0.2408  0.2255
  405MOL    C8749375   6.539   0.384   7.356 -0.3763 -0.0642  0.2234
  405MOL   Cl8849376   6.461   0.530   7.290  0.0559  0.0598  0.0483
  405MOL    H8949377   6.430   0.283   7.198 -3.0213  0.0387  1.0471
  405MOL    H9049378   6.536   0.175   7.280 -1.4000 -0.6126  0.0082
  405MOL    H9149379   6.524   0.392   7.464 -0.1676  0.0638  0.2425
  405MOL    C9249380   6.688   0.396   7.327  0.2539 -0.2030 -1.2849
  405MOL    C9349381   6.765   0.490   7.421 -0.6343  0.7566  0.7864
  405MOL   Cl9449382   6.749   0.668   7.384  0.0338 -0.1010 -0.1896
  405MOL    H9549383   6.701   0.409   7.219 -0.6080  0.8370 -1.2668
  405MOL    H9649384   6.724   0.293   7.335 -0.1904 -0.2722 -0.2010
  405MOL    H9749385   6.732   0.464   7.521  0.2822  0.3966  1.0008
  405MOL    C9849386   6.909   0.449   7.402 -0.3592 -0.4981 -0.4423
  405MOL    C9949387   6.997   0.519   7.505  0.4445  0.1508 -0.1483
  405MOL  Cl10049388   7.161   0.497   7.453  0.0315  0.3033  0.2590
  405MOL   H10149389   6.942   0.478   7.302 -0.9874 -1.3818 -0.9255
  405MOL   H10249390   6.927   0.343   7.421 -0.5150  0.0369  3.0301
  405MOL   H10349391   6.963   0.623   7.506 -0.2069 -0.0539 -0.7468
  405MOL   C10449392   6.989   0.457   7.648  0.3991  0.0800 -0.2941
  405MOL   C10549393   7.080   0.514   7.754  0.1103 -0.0598 -0.6579
  405MOL  Cl10649394   7.110   0.423   7.904 -0.0101 -0.1524 -0.2846
  405MOL   H10749395   7.005   0.349   7.644 -1.2875 -0.2795  1.6402
  405MOL   H10849396   6.886   0.470   7.682  0.9507  0.1041  1.4145
  405MOL   H10949397   7.180   0.519   7.712  0.7520 -2.8552  0.4573
  405MOL   C11049398   7.049   0.664   7.795  0.3005 -1.1756  0.2788
  405MOL   C11149399   6.928   0.695   7.885 -0.4759 -0.0832 -0.9267
  405MOL  Cl11249400   6.775   0.690   7.777 -0.0730  0.2014 -0.3473
  405MOL   H11349401   7.053   0.721   7.702  2.6200 -0.7719  0.5972
  405MOL   H11449402   7.132   0.692   7.860  0.6032  0.6840 -0.8601
  405MOL   H11549403   6.917   0.629   7.971 -0.5685  0.5176 -0.4774
  405MOL   C11649404   6.947   0.839   7.949 -0.4898  0.8034 -0.2818
  405MOL   C11749405   6.821   0.899   8.018  0.0666 -0.4569 -0.2860
  405MOL  Cl11849406   6.868   1.045   8.114 -0.2574 -0.1947  0.0796
  405MOL   H11949407   6.968   0.907   7.866  0.8764 -1.3456 -1.7286
  405MOL   H12049408   7.038   0.836   8.009 -0.5073 -1.1248 -0.3421
  405MOL   H12149409   6.751   0.925   7.938 -0.3184 -0.7493 -0.0483
  405MOL   H12249410   6.768   0.829   8.082 -1.1173 -1.1698 -1.9937
  406MOL     C149411   8.225   5.795   6.330  0.9117  0.1755  0.2583
  406MOL     C249412   8.259   5.800   6.187  0.0987 -0.2486 -0.9405
  406MOL    Cl349413   8.275   5.632   6.108 -0.2050 -0.2380 -0.2131
  406MOL     H449414   8.136   5.733   6.345  0.8559 -0.1240 -1.2059
  406MOL     H549415   8.306   5.758   6.394 -0.3998  0.6183  2.2186
  406MOL     H649416   8.166   5.849   6.158  0.1279  0.7098  0.5468
  406MOL     H749417   8.204   5.894   6.369 -1.3653  0.4212 -1.4994
  406MOL     C849418   8.379   5.884   6.137  0.0342  0.6102  0.2417
  406MOL     C949419   8.523   5.834   6.168 -0.4627  0.4088 -0.7545
  406MOL   Cl1049420   0.028   5.838   6.340  0.1024 -0.1766 -0.0066
  406MOL    H1149421   8.376   5.988   6.170 -2.4965  0.8390 -0.5586
  406MOL    H1249422   8.372   5.874   6.028  0.3424 -1.8041  0.4201
  406MOL    H1349423   0.012   5.731   6.136 -1.7841  0.7645 -2.6352
  406MOL    C1449424   0.107   5.914   6.100 -0.0567  0.1018 -0.0283
  406MOL    C1549425   0.134   5.883   5.952  0.3417 -0.5273  0.6251
  406MOL   Cl1649426   0.198   5.711   5.950 -0.0721  0.1416  0.3964
  406MOL    H1749427   0.201   5.912   6.156 -0.1656  2.8624  0.2868
  406MOL    H1849428   0.087   6.021   6.109  0.4133  0.2625 -0.9269
  406MOL    H1949429   0.048   5.870   5.887  0.6676 -0.9562  0.2777
  406MOL    C2049430   0.228   5.983   5.880 -0.2331  0.3903  0.0605
  406MOL    C2149431   0.374   5.990   5.948  0.9224  0.6745 -0.5482
  406MOL   Cl2249432   0.386   6.121   6.060  0.2232  0.7385  0.0781
  406MOL    H2349433   0.183   6.081   5.866 -1.6556 -0.1241  0.9720
  406MOL    H2449434   0.237   5.927   5.787  2.8640 -1.9016  1.6607
  406MOL    H2549435   0.401   5.893   5.989 -0.6369  0.7416  0.6636
  406MOL    C2649436   0.473   6.025   5.832 -0.1988  0.2669 -0.5490
  406MOL    C2749437   0.503   5.913   5.731  1.0066  0.1496  0.6199
  406MOL   Cl2849438   0.587   5.791   5.817 -0.3339 -0.1392  0.0322
  406MOL    H2949439   0.566   6.045   5.885 -1.0539  0.1819  1.0335
  406MOL    H3049440   0.435   6.117   5.787 -1.6604  0.0539  0.2165
  406MOL    H3149441   0.410   5.870   5.695 -0.0866  1.6208  1.6318
  406MOL    C3249442   0.603   5.971   5.625  0.2460  0.7034 -0.2317
  406MOL    C3349443   0.635   5.881   5.502 -0.2836 -0.1882  0.6727
  406MOL   Cl3449444   0.769   5.954   5.411 -0.0684 -0.3057  0.0314
  406MOL    H3549445   0.695   6.000   5.676  0.7775 -1.8646  0.3673
  406MOL    H3649446   0.563   6.061   5.579  1.9502  2.1947  1.1435
  406MOL    H3749447   0.681   5.785   5.524  1.2652  0.1541 -0.9800
  406MOL    C3849448   0.509   5.871   5.412  0.1864 -0.1251  0.5869
  406MOL    C3949449   0.522   5.768   5.295  0.4028 -0.1003  0.1814
  406MOL   Cl4049450   0.617   5.832   5.156 -0.1689 -0.1737 -0.0037
  406MOL    H4149451   0.476   5.970   5.380  0.1692 -0.5304 -0.6575
  406MOL    H4249452   0.422   5.848   5.474 -1.4064  0.6126 -1.3299
  406MOL    H4349453   0.582   5.681   5.319 -1.0791 -1.2993 -0.4085
  406MOL    C4449454   0.378   5.714   5.247 -0.6515 -0.3134 -0.3966
  406MOL    C4549455   0.282   5.828   5.198  0.1385 -0.0184 -0.1569
  406MOL   Cl4649456   0.214   5.926   5.334  0.0913 -0.0335  0.0531
  406MOL    H4749457   0.332   5.655   5.327 -1.4626  1.4026  0.4379
  406MOL    H4849458   0.395   5.636   5.173  1.0866 -0.1551 -0.1732
  406MOL    H4949459   0.337   5.899   5.136 -2.9293  0.9185 -1.9206
  406MOL    C5049460   0.169   5.767   5.119 -0.2117 -0.2096  0.2612
  406MOL    C5149461   0.082   5.867   5.043  0.0503  0.4737 -0.0490
  406MOL   Cl5249462   8.488   5.942   5.159 -0.0681  0.0113  0.3738
  406MOL    H5349463   0.108   5.699   5.178  0.2791 -0.7349  0.1709
  406MOL    H5449464   0.221   5.694   5.056 -1.7190 -1.1709  0.0939
  406MOL    H5549465   0.152   5.945   5.011  1.5903 -0.2895  1.3796
  406MOL    C5649466   0.004   5.799   4.929  0.2213  0.5246  0.5222
  406MOL    C5749467   8.437   5.885   4.839 -0.7878 -0.5008 -0.0604
  406MOL   Cl5849468   8.267   5.872   4.892  0.5265 -0.1402  0.5696
  406MOL    H5949469   8.470   5.719   4.973 -0.2329 -0.9121 -2.5874
  406MOL    H6049470   0.084   5.754   4.871  0.2876 -0.1820  1.1645
  406MOL    H6149471   8.448   5.992   4.857 -1.1175 -0.9926  3.4288
  406MOL    C6249472   8.455   5.849   4.693 -0.1666 -0.1043  0.0214
  406MOL    C6349473   0.041   5.927   4.619  0.5643 -0.1057  0.5368
  406MOL   Cl6449474   8.511   6.087   4.576  0.4494  0.1757 -0.0440
  406MOL    H6549475   8.358   5.871   4.650  0.4447 -1.0482 -1.9153
  406MOL    H6649476   8.445   5.741   4.683  0.6521 -0.4161  2.2677
  406MOL    H6749477   0.123   5.940   4.690  0.8505  1.1589 -0.0305
  406MOL    C6849478   0.091   5.847   4.497  0.0864  0.1288 -0.3541
  406MOL    C6949479   0.193   5.920   4.404  0.3433 -0.1618  0.3347
  406MOL   Cl7049480   0.264   5.806   4.291  0.2369 -0.1753 -0.2378
  406MOL    H7149481   0.003   5.825   4.437 -0.2983  3.3885 -1.0883
  406MOL    H7249482   0.139   5.762   4.546 -0.5263 -0.8164 -1.3660
  406MOL    H7349483   0.134   5.985   4.340 -0.0994 -0.5421  0.3547
  406MOL    C7449484   0.304   6.002   4.474  0.0935  0.4372  0.1571
  406MOL    C7549485   0.374   6.122   4.398  0.0216 -0.5865 -0.0186
  406MOL   Cl7649486   0.252   6.226   4.325  0.5166  0.6119 -0.2493
  406MOL    H7749487   0.375   5.924   4.500 -0.1756  0.4907  1.0494
  406MOL    H7849488   0.279   6.050   4.568  1.6414  0.5900  0.5080
  406MOL    H7949489   0.426   6.177   4.476 -0.6466  0.3307 -0.2146
  406MOL    C8049490   0.470   6.074   4.294 -1.0326 -0.0802  0.0275
  406MOL    C8149491   0.581   6.168   4.255  1.4975  0.3388 -0.0137
  406MOL   Cl8249492   0.519   6.305   4.152  0.1092  0.2194 -0.1781
  406MOL    H8349493   0.417   6.049   4.203  1.9115 -2.6682 -1.0810
  406MOL    H8449494   0.509   5.979   4.332 -0.9749 -0.5325 -1.1442
  406MOL    H8549495   0.610   6.207   4.353  0.6204  1.6956 -0.2871
  406MOL    C8649496   0.686   6.105   4.163 -0.2252 -0.3530  0.0526
  406MOL    C8749497   0.771   5.999   4.240 -0.1792  0.0230 -0.2301
  406MOL   Cl8849498   0.828   6.068   4.390  0.1423  0.2430  0.2481
  406MOL    H8949499   0.746   6.180   4.111 -0.5186 -1.1736 -1.5085
  406MOL    H9049500   0.635   6.058   4.079 -0.2864  1.4645 -0.9544
  406MOL    H9149501   0.704   5.922   4.279 -1.8550  0.4121 -2.2808
  406MOL    C9249502   0.884   5.930   4.152  0.0684  0.6017  0.1885
  406MOL    C9349503   0.823   5.880   4.020 -0.0665  0.6279 -0.1777
  406MOL   Cl9449504   0.681   5.772   4.030  0.1096 -0.0571 -0.2604
  406MOL    H9549505   0.927   5.844   4.204  0.1852  1.3152  1.2960
  406MOL    H9649506   0.962   6.006   4.143  0.1637  0.3981 -0.7454
  406MOL    H9749507   0.789   5.971   3.970  0.5957  1.2605  0.5259
  406MOL    C9849508   0.906   5.824   3.904 -0.2381 -0.0997  0.0943
  406MOL    C9949509   0.964   5.685   3.938  0.0559  0.1533 -0.0360
  406MOL  Cl10049510   1.114   5.711   4.023 -0.3250 -0.8233  0.1655
  406MOL   H10149511   0.990   5.889   3.879  0.8172 -1.1052  0.9899
  406MOL   H10249512   0.855   5.819   3.808  1.3495 -0.1704 -0.7720
  406MOL   H10349513   0.903   5.629   4.010  1.6922 -0.2920  1.0141
  406MOL   C10449514   0.989   5.579   3.821  0.1308 -0.3324  0.4333
  406MOL   C10549515   0.863   5.537   3.738 -0.6625  0.1838  0.2294
  406MOL  Cl10649516   0.732   5.480   3.839  0.1289 -0.0218 -0.3318
  406MOL   H10749517   1.021   5.486   3.867 -3.7492 -1.8170  0.3059
  406MOL   H10849518   1.063   5.612   3.749 -0.4871  0.8771  0.3353
  406MOL   H10949519   0.833   5.620   3.675 -0.0072  1.3020  1.3664
  406MOL   C11049520   0.886   5.410   3.650  0.5543 -0.6142  0.3097
  406MOL   C11149521   0.977   5.450   3.536  0.0134 -0.0149  0.5333
  406MOL  Cl11249522   0.914   5.587   3.435  0.1674 -0.0238  0.4372
  406MOL   H11349523   0.794   5.371   3.607 -0.5130  1.6212  0.4856
  406MOL   H11449524   0.924   5.328   3.710 -1.2661 -1.1882  0.7127
  406MOL   H11549525   1.072   5.489   3.572  0.7761  1.4490 -2.8491
  406MOL   C11649526   0.999   5.328   3.453  0.6108  0.3492  0.0064
  406MOL   C11749527   1.082   5.221   3.530  0.4008  0.0658  0.0239
  406MOL  Cl11849528   1.243   5.274   3.559 -0.2449 -0.0678 -0.4091
  406MOL   H11949529   1.048   5.354   3.359  2.9071  0.6779  1.2493
  406MOL   H12049530   0.905   5.282   3.423 -0.3345  1.2225  1.5658
  406MOL   H12149531   1.048   5.184   3.627  2.1025 -1.1768  0.1787
  406MOL   H12249532   1.094   5.132   3.467 -0.0987  1.5760 -2.2693
  407MOL     C149533   0.483   4.781   1.266  0.2226  0.0038 -0.1586
  407MOL     C249534   0.516   4.731   1.403  0.6648 -0.2354 -0.1062
  407MOL    Cl349535   0.593   4.853   1.505 -0.4337 -0.1383  0.0571
  407MOL     H449536   0.417   4.867   1.274  0.9182  0.6080 -0.8481
  407MOL     H549537   0.573   4.823   1.221  2.2387 -2.7005  1.2380
  407MOL     H649538   0.426   4.698   1.456  1.5514 -0.5427  1.2338
  407MOL     H749539   0.445   4.704   1.198  0.8973 -1.6138  1.2454
  407MOL     C849540   0.613   4.613   1.414  0.5564  0.3391  0.1638
  407MOL     C949541   0.575   4.490   1.331  1.0273 -0.6783 -0.2148
  407MOL   Cl1049542   0.416   4.444   1.385  0.0237 -0.1901  0.3229
  407MOL    H1149543   0.614   4.592   1.521 -0.0360  2.4437  0.6127
  407MOL    H1249544   0.714   4.642   1.386  0.4280  1.2093  0.5664
  407MOL    H1349545   0.561   4.512   1.225 -2.7011  0.5210  0.4536
  407MOL    C1449546   0.677   4.379   1.354 -0.6588  0.7667  0.1185
  407MOL    C1549547   0.821   4.395   1.301  0.1066 -0.3368 -0.6776
  407MOL   Cl1649548   0.814   4.451   1.134  0.0403  0.0040  0.1995
  407MOL    H1749549   0.629   4.294   1.307 -1.0799  0.6831  0.6892
  407MOL    H1849550   0.670   4.345   1.458 -0.7863 -0.3984 -0.2707
  407MOL    H1949551   0.872   4.477   1.351  2.1161 -1.9944  0.0754
  407MOL    C2049552   0.915   4.270   1.321  0.6586  0.0907  0.2682
  407MOL    C2149553   0.952   4.232   1.462  0.1210  0.0189  0.2934
  407MOL   Cl2249554   1.054   4.368   1.536  0.0940  0.2249 -0.5003
  407MOL    H2349555   1.001   4.287   1.257 -1.1974 -0.7774 -2.5392
  407MOL    H2449556   0.864   4.195   1.262 -0.9065  2.2257 -1.1701
  407MOL    H2549557   0.861   4.211   1.519 -0.7059  1.0359 -0.6481
  407MOL    C2649558   1.033   4.095   1.472 -0.0194  0.3718 -0.5994
  407MOL    C2749559   1.013   3.990   1.360  0.4626 -0.3463  0.2609
  407MOL   Cl2849560   0.842   3.937   1.332 -0.0426 -0.1645  0.2995
  407MOL    H2949561   1.007   4.045   1.565  1.7939  1.4833  0.5359
  407MOL    H3049562   1.140   4.114   1.476  0.8120 -4.0438  0.6962
  407MOL    H3149563   1.043   4.050   1.274  1.4850  0.9550  1.5006
  407MOL    C3249564   1.108   3.862   1.381 -0.5672  0.3559  0.0988
  407MOL    C3349565   1.089   3.760   1.267  0.4017 -0.6886 -0.1339
  407MOL   Cl3449566   1.120   3.596   1.328  0.2016  0.0041  0.0721
  407MOL    H3549567   1.077   3.808   1.471  1.0243  0.2356  0.5818
  407MOL    H3649568   1.215   3.883   1.376 -0.3066 -0.9345  0.1551
  407MOL    H3749569   0.989   3.762   1.226  0.9060 -2.4617 -1.5252
  407MOL    C3849570   1.196   3.762   1.156  0.5236  0.0762 -0.2090
  407MOL    C3949571   1.137   3.721   1.023 -0.1430  0.7870 -0.4175
  407MOL   Cl4049572   1.001   3.833   0.982  0.1951 -0.0650  0.2604
  407MOL    H4149573   1.292   3.715   1.179  0.5521  1.4785  2.7657
  407MOL    H4249574   1.218   3.869   1.153  0.4001  0.0749 -1.1843
  407MOL    H4349575   1.218   3.742   0.954  0.4148  0.9831  0.2964
  407MOL    C4449576   1.088   3.577   1.005 -0.8262  0.3699 -0.4674
  407MOL    C4549577   1.195   3.467   1.011  0.7889  0.0683  0.0319
  407MOL   Cl4649578   1.311   3.483   0.869  0.0660 -0.1456  0.1837
  407MOL    H4749579   1.032   3.556   0.914 -0.8738 -1.4342 -0.0401
  407MOL    H4849580   1.013   3.560   1.082 -1.5092 -1.7204 -1.5713
  407MOL    H4949581   1.265   3.468   1.095 -0.2846 -0.8725  0.9449
  407MOL    C5049582   1.126   3.331   1.009  0.2095  0.9277 -0.1251
  407MOL    C5149583   1.219   3.211   1.043  0.2705  0.3406  0.1849
  407MOL   Cl5249584   1.159   3.065   0.967 -0.2560  0.1348 -0.3686
  407MOL    H5349585   1.066   3.308   0.921 -0.5753 -1.0762  0.9124
  407MOL    H5449586   1.047   3.338   1.083 -0.1930 -0.2731 -0.4377
  407MOL    H5549587   1.309   3.233   0.986  1.0611 -1.3555  0.7656
  407MOL    C5649588   1.257   3.179   1.192 -0.2203 -0.4698  0.5198
  407MOL    C5749589   1.141   3.136   1.283 -0.3559 -0.4605  0.3002
  407MOL   Cl5849590   1.167   3.221   1.441 -0.0711 -0.1798 -0.0295
  407MOL    H5949591   1.281   3.278   1.230 -0.5778 -0.6272  1.1777
  407MOL    H6049592   1.336   3.108   1.219 -1.0674 -1.1524  1.2829
  407MOL    H6149593   1.044   3.175   1.251 -0.1477  0.1955  0.4619
  407MOL    C6249594   1.129   2.987   1.306 -0.3209 -0.5782  0.2969
  407MOL    C6349595   0.981   2.934   1.299 -0.2626 -0.2117  0.0440
  407MOL   Cl6449596   0.877   3.029   1.406  0.0402 -0.2139  0.6750
  407MOL    H6549597   1.173   2.948   1.397  0.6949 -1.5291 -0.5791
  407MOL    H6649598   1.189   2.931   1.233 -0.1706  0.5605 -0.4627
  407MOL    H6749599   0.945   2.954   1.197 -1.4310 -2.4772 -0.0248
  407MOL    C6849600   0.970   2.785   1.324 -0.1485  0.6317 -0.2761
  407MOL    C6949601   0.831   2.717   1.308 -0.2487  0.0040 -0.4966
  407MOL   Cl7049602   0.832   2.570   1.413 -0.1148 -0.0016  0.6366
  407MOL    H7149603   0.998   2.773   1.429 -1.4524  3.0226  0.4074
  407MOL    H7249604   1.042   2.724   1.270 -0.2964  0.8962 -0.7778
  407MOL    H7349605   0.745   2.780   1.332  1.6280  1.8478  1.6637
  407MOL    C7449606   0.803   2.672   1.167 -0.5151  0.7327  0.3639
  407MOL    C7549607   0.654   2.637   1.127  0.4008 -0.1703  0.9404
  407MOL   Cl7649608   0.602   2.483   1.198  0.1769 -0.1359  0.5058
  407MOL    H7749609   0.863   2.581   1.154  0.4549  1.3437  0.5270
  407MOL    H7849610   0.838   2.741   1.090 -2.8949  0.7773 -0.7036
  407MOL    H7949611   0.589   2.718   1.161 -0.5180 -0.7376  0.5386
  407MOL    C8049612   0.639   2.621   0.976  0.0980  0.1134 -0.0779
  407MOL    C8149613   0.500   2.575   0.919  0.3140  0.5596 -0.3643
  407MOL   Cl8249614   0.536   2.499   0.762 -0.1480 -0.5188 -0.4565
  407MOL    H8349615   0.714   2.548   0.944 -0.3950 -1.0678  1.4067
  407MOL    H8449616   0.668   2.715   0.930 -1.1752  0.2983 -0.5233
  407MOL    H8549617   0.461   2.491   0.977 -0.9465  1.0255 -0.5032
  407MOL    C8649618   0.389   2.682   0.902 -0.6488 -0.6202 -0.2268
  407MOL    C8749619   0.246   2.643   0.859 -0.1724 -0.2162 -0.0767
  407MOL   Cl8849620   0.158   2.783   0.828 -0.3577  0.0595  0.1713
  407MOL    H8949621   0.427   2.754   0.830 -0.9750 -0.8945 -0.6795
  407MOL    H9049622   0.380   2.746   0.990 -0.1842  0.4664 -0.9611
  407MOL    H9149623   0.248   2.593   0.763  1.9218  1.8598 -1.1655
  407MOL    C9249624   0.170   2.548   0.959  0.2285  0.1981  0.2115
  407MOL    C9349625   0.143   2.613   1.098 -0.0857 -0.2897 -0.5764
  407MOL   Cl9449626   0.275   2.578   1.208  0.0359 -0.1109 -0.1202
  407MOL    H9549627   0.224   2.455   0.975  1.6905  0.8403 -0.9098
  407MOL    H9649628   0.070   2.532   0.920 -0.4037  0.5275  1.6559
  407MOL    H9749629   0.127   2.720   1.091 -0.4975 -0.4550 -2.3579
  407MOL    C9849630   0.012   2.553   1.164 -0.5926 -0.2604 -0.4323
  407MOL    C9949631   8.483   2.644   1.279  0.4575 -0.0467  0.4129
  407MOL  Cl10049632   8.369   2.542   1.375 -0.1197 -0.0700 -0.1784
  407MOL   H10149633   0.024   2.449   1.195 -2.1574 -0.5550 -0.7913
  407MOL   H10249634   8.467   2.548   1.082  1.5843  1.6495 -2.4951
  407MOL   H10349635   0.042   2.670   1.344  2.3249 -1.7309 -1.2591
  407MOL   C10449636   8.408   2.769   1.235 -0.0024  0.0400 -0.4531
  407MOL   C10549637   8.345   2.852   1.353  0.0894  0.9113  0.6890
  407MOL  Cl10649638   8.279   3.003   1.285 -0.4628  0.0075 -0.1960
  407MOL   H10749639   8.331   2.742   1.163 -0.8448 -2.7596  1.3823
  407MOL   H10849640   8.481   2.831   1.184 -1.6042  0.2277 -2.5856
  407MOL   H10949641   8.255   2.801   1.388  0.6647  0.0403  0.9173
  407MOL   C11049642   8.444   2.875   1.466 -0.5061  0.4980 -0.2016
  407MOL   C11149643   8.395   2.968   1.583 -0.8027 -0.2885  0.8894
  407MOL  Cl11249644   8.427   3.138   1.540  0.1078 -0.0504 -0.1628
  407MOL   H11349645   0.016   2.915   1.437  1.5916 -2.2036  2.6545
  407MOL   H11449646   8.446   2.777   1.514  1.7861  0.2195 -0.7887
  407MOL   H11549647   8.289   2.962   1.604 -1.2056 -0.5118 -1.1214
  407MOL   C11649648   8.472   2.946   1.715  0.1702  0.1182 -0.1107
  407MOL   C11749649   8.403   2.994   1.841  0.0540  0.3660 -0.4393
  407MOL  Cl11849650   8.507   2.980   1.978  0.2132  0.0382  0.6231
  407MOL   H11949651   0.048   2.987   1.720 -0.2184  0.9897  0.5869
  407MOL   H12049652   8.495   2.840   1.731 -2.2377 -0.2066  1.4275
  407MOL   H12149653   8.357   3.093   1.837 -1.5252 -0.4111 -2.9614
  407MOL   H12249654   8.319   2.927   1.862 -1.7671  3.0596  1.2408
  408MOL     C149655   3.411   1.772   1.362 -0.1684 -0.0346  0.3336
  408MOL     C249656   3.354   1.632   1.352  0.8396 -0.2107  0.3642
  408MOL    Cl349657   3.470   1.523   1.431  0.1433  0.1367  0.1070
  408MOL     H449658   3.422   1.797   1.467 -0.2404  1.9640 -0.1135
  408MOL     H549659   3.508   1.781   1.313  0.2404 -0.8577  0.9709
  408MOL     H649660   3.268   1.619   1.417 -0.1726  0.0512 -0.9057
  408MOL     H749661   3.340   1.845   1.322  0.2620 -0.0147 -0.4147
  408MOL     C849662   3.325   1.586   1.210 -0.1149  0.3171  0.3998
  408MOL     C949663   3.244   1.679   1.122 -0.9165  0.3767 -0.1730
  408MOL   Cl1049664   3.107   1.750   1.203  0.1825 -0.1524 -0.1017
  408MOL    H1149665   3.272   1.491   1.217 -2.1627  1.0987 -3.2072
  408MOL    H1249666   3.419   1.563   1.160  0.4203  1.3373  0.9097
  408MOL    H1349667   3.308   1.765   1.106  0.5235 -0.9380 -1.6578
  408MOL    C1449668   3.190   1.626   0.986  0.6980  1.1611 -0.1283
  408MOL    C1549669   3.165   1.740   0.881  0.0675 -0.9933  0.6021
  408MOL   Cl1649670   3.068   1.683   0.743 -0.0941  0.0346  0.0357
  408MOL    H1749671   3.094   1.576   1.000  0.9155  0.9847  0.7495
  408MOL    H1849672   3.255   1.547   0.948 -2.2520 -2.1170  1.3671
  408MOL    H1949673   3.104   1.817   0.930  0.1475 -0.0859 -0.6874
  408MOL    C2049674   3.297   1.795   0.822 -0.1174 -0.5273  0.9067
  408MOL    C2149675   3.307   1.944   0.795 -0.5179 -0.3006 -0.1745
  408MOL   Cl2249676   3.309   2.032   0.949 -0.1570 -0.0601 -0.3283
  408MOL    H2349677   3.323   1.741   0.731  3.0965 -0.2848  1.6174
  408MOL    H2449678   3.385   1.761   0.878  1.1041  1.8002  0.4501
  408MOL    H2549679   3.407   1.951   0.752 -1.3738 -2.2698 -2.6073
  408MOL    C2649680   3.194   2.003   0.712 -0.0476  0.5920  0.2734
  408MOL    C2749681   3.196   1.963   0.566 -0.8388 -0.5945  0.5309
  408MOL   Cl2849682   3.344   2.016   0.487  0.6192 -0.2404 -0.2658
  408MOL    H2949683   3.213   2.110   0.713 -2.1694  1.0362 -1.4888
  408MOL    H3049684   3.096   1.998   0.760 -0.0443 -0.6830  0.1631
  408MOL    H3149685   3.205   1.854   0.564  0.8160 -0.4683  0.7994
  408MOL    C3249686   3.070   2.011   0.484 -0.0607  0.4042  0.4347
  408MOL    C3349687   3.063   1.973   0.341  0.0545  0.3904 -0.2114
  408MOL   Cl3449688   2.972   2.100   0.247  0.4370 -0.0196 -0.0063
  408MOL    H3549689   3.072   2.120   0.480 -1.2453  0.3896 -1.0225
  408MOL    H3649690   2.979   1.991   0.541 -0.4056  1.7341  0.3666
  408MOL    H3749691   3.166   1.979   0.305 -0.5442  0.8207 -1.8708
  408MOL    C3849692   2.989   1.844   0.307 -0.3290  0.9406  0.2366
  408MOL    C3949693   3.039   1.706   0.370  0.3740  0.1517 -0.3590
  408MOL   Cl4049694   3.207   1.680   0.333  0.2341 -0.2601  0.2934
  408MOL    H4149695   2.990   1.830   0.199  3.3892  1.8892  0.0790
  408MOL    H4249696   2.885   1.863   0.335 -1.6205 -2.8908 -1.6351
  408MOL    H4349697   3.019   1.724   0.475  0.8462 -1.0945 -0.0483
  408MOL    C4449698   2.967   1.580   0.297 -0.6195 -0.8877 -0.3269
  408MOL    C4549699   2.825   1.570   0.342  0.2995 -0.2489 -0.3016
  408MOL   Cl4649700   2.828   1.547   0.521 -0.3401 -0.2147 -0.1234
  408MOL    H4749701   3.025   1.489   0.312  1.0866  0.3469  0.6468
  408MOL    H4849702   2.961   1.608   0.192 -0.0875 -2.7548 -0.8769
  408MOL    H4949703   2.786   1.668   0.313 -1.1445 -1.2520 -1.8383
  408MOL    C5049704   2.751   1.459   0.256  0.6638  0.0872 -0.5314
  408MOL    C5149705   2.618   1.507   0.195  0.1396  0.2375 -0.7782
  408MOL   Cl5249706   2.650   1.642   0.079  0.2266 -0.0824 -0.1961
  408MOL    H5349707   2.715   1.382   0.324  0.7867  0.4006 -0.1141
  408MOL    H5449708   2.812   1.408   0.181 -0.0556 -0.5222 -0.7133
  408MOL    H5549709   2.575   1.430   0.131 -1.9130  0.7943 -0.1035
  408MOL    C5649710   2.508   1.541   0.297  0.4528  0.2484  0.3051
  408MOL    C5749711   2.389   1.632   0.249 -0.9805  0.6523 -0.5475
  408MOL   Cl5849712   2.287   1.671   0.392  0.1102  0.0877  0.0215
  408MOL    H5949713   2.543   1.591   0.386 -0.0018  2.5224 -0.7548
  408MOL    H6049714   2.459   1.446   0.323  2.0201 -1.0205 -1.2372
  408MOL    H6149715   2.419   1.728   0.208  0.7288  0.1880 -0.4337
  408MOL    C6249716   2.303   1.550   0.151 -0.3061  0.2005  0.4358
  408MOL    C6349717   2.192   1.627   0.084  0.4615 -0.5576 -0.2542
  408MOL   Cl6449718   2.062   1.529   0.022  0.2640 -0.3129  0.0585
  408MOL    H6549719   2.263   1.470   0.213 -2.7998 -1.1155 -2.7170
  408MOL    H6649720   2.371   1.492   0.088 -1.4915 -1.9294  1.0753
  408MOL    H6749721   2.143   1.687   0.161  0.3546 -0.5526 -0.3264
  408MOL    C6849722   2.242   1.717   8.498 -0.0857  0.5972 -0.3883
  408MOL    C6949723   2.168   1.860   8.497 -0.6531  0.1393  0.2253
  408MOL   Cl7049724   2.212   1.940   0.125 -0.1012  0.2299 -0.0395
  408MOL    H7149725   2.244   1.674   8.398  1.6692  0.4192 -0.2907
  408MOL    H7249726   2.348   1.736   8.517 -0.6146  2.6111  0.6284
  408MOL    H7349727   2.215   1.917   8.417 -1.3701 -0.1964 -0.4431
  408MOL    C7449728   2.011   1.874   8.464  0.8337  0.1411  0.1943
  408MOL    C7549729   1.962   1.824   8.317  0.0707 -0.1226 -0.1123
  408MOL   Cl7649730   2.011   1.943   8.204 -0.1539 -0.3237 -0.2198
  408MOL    H7749731   1.968   1.974   8.471  0.2940 -0.1111  0.5664
  408MOL    H7849732   1.970   1.803   0.011  2.3748 -0.1898  0.7511
  408MOL    H7949733   2.011   1.736   8.277 -0.3255 -0.2189 -0.3899
  408MOL    C8049734   1.800   1.824   8.310 -0.2366 -0.2269  0.0934
  408MOL    C8149735   1.734   1.699   8.379 -0.5200  0.1170  0.1553
  408MOL   Cl8249736   1.788   1.540   8.314 -0.0848  0.1141  0.3051
  408MOL    H8349737   1.767   1.820   8.206 -1.6961  2.6804  0.4082
  408MOL    H8449738   1.750   1.908   8.357  2.1545  1.4282 -0.2091
  408MOL    H8549739   1.773   1.703   8.480  0.0120  3.2030 -0.1266
  408MOL    C8649740   1.580   1.696   8.390  0.2032  0.3400 -0.0216
  408MOL    C8749741   1.492   1.720   8.264 -0.1935  0.2853 -0.2879
  408MOL   Cl8849742   1.484   1.888   8.205  0.4757 -0.3394 -0.4619
  408MOL    H8949743   1.556   1.775   8.461  0.2605 -0.0660  0.4546
  408MOL    H9049744   1.558   1.601   8.439 -1.7753  1.1114  0.6409
  408MOL    H9149745   1.544   1.657   8.193 -0.0314 -0.0842  0.1575
  408MOL    C9249746   1.348   1.677   8.280  0.1811 -0.1356 -0.3704
  408MOL    C9349747   1.317   1.537   8.321  0.2628 -0.0661  0.0510
  408MOL   Cl9449748   1.380   1.422   8.197  0.2532  0.1021 -0.1444
  408MOL    H9549749   1.311   1.698   8.180  0.6286  1.2751 -0.2554
  408MOL    H9649750   1.304   1.746   8.352 -1.3341  0.0720 -1.4581
  408MOL    H9749751   1.369   1.521   8.415 -0.1843  0.8510  0.4628
  408MOL    C9849752   1.165   1.503   8.332 -0.4220  0.2714  0.3801
  408MOL    C9949753   1.092   1.574   8.443  0.0671  0.4088 -0.5287
  408MOL  Cl10049754   1.192   1.577   0.072 -0.5552 -0.0131 -0.0294
  408MOL   H10149755   1.152   1.395   8.331 -1.5299  0.3950 -2.4541
  408MOL   H10249756   1.113   1.523   8.238  1.9822  0.9324 -0.8545
  408MOL   H10349757   1.082   1.678   8.412 -0.7456  0.6794  0.6093
  408MOL   C10449758   0.958   1.504   8.475 -0.1197  0.0833  0.1364
  408MOL   C10549759   0.856   1.514   8.362  0.5255 -0.0749  0.3586
  408MOL  Cl10649760   0.817   1.680   8.318 -0.0385  0.2999 -0.1191
  408MOL   H10749761   0.919   1.551   0.040  0.2223  0.8992 -0.1370
  408MOL   H10849762   0.973   1.398   8.496 -0.6143 -0.4170 -1.9202
  408MOL   H10949763   0.900   1.467   8.274  1.0494 -0.1647  0.6655
  408MOL   C11049764   0.733   1.440   8.390 -0.5464  0.3935  0.0257
  408MOL   C11149765   0.641   1.404   8.263 -0.3058  0.2333  0.0462
  408MOL  Cl11249766   0.474   1.382   8.319  0.3621  0.2390 -0.1308
  408MOL   H11349767   0.666   1.494   8.458 -0.3479 -0.2557  0.7374
  408MOL   H11449768   0.748   1.348   8.446  0.2071 -0.4025 -1.4456
  408MOL   H11549769   0.628   1.489   8.196 -1.1749 -1.5629 -2.1480
  408MOL   C11649770   0.682   1.274   8.184  0.4315 -0.4009 -0.8806
  408MOL   C11749771   0.626   1.266   8.042  0.0112  0.1847  0.1005
  408MOL  Cl11849772   0.700   1.404   7.944  0.1155  0.2523  0.2086
  408MOL   H11949773   0.660   1.191   8.250 -1.4108 -0.3033 -1.3658
  408MOL   H12049774   0.791   1.267   8.179  0.2837 -3.7724 -0.5042
  408MOL   H12149775   0.662   1.184   7.979  1.1689  1.1975 -0.5796
  408MOL   H12249776   0.518   1.278   8.033  0.1126  2.7212  1.6599
  409MOL     C149777   2.201   8.216   1.616  0.4727 -0.3648  0.3030
  409MOL     C249778   2.292   8.333   1.586  0.1320 -0.0361 -0.3791
  409MOL    Cl349779   2.204   8.430   1.465  0.0600 -0.1873 -0.1783
  409MOL     H449780   2.238   8.154   1.698 -0.7742 -0.6683  0.6446
  409MOL     H549781   2.111   8.249   1.667  0.3301 -0.2398 -0.0356
  409MOL     H649782   2.287   8.394   1.677 -1.8320  2.7471 -2.2599
  409MOL     H749783   2.179   8.157   1.527 -1.5109 -0.4826  0.8485
  409MOL     C849784   2.430   8.297   1.533  0.0089  0.5061 -0.3403
  409MOL     C949785   2.519   8.204   1.616  0.3168 -0.0558  1.2049
  409MOL   Cl1049786   2.508   8.252   1.787  0.2957  0.0780 -0.1138
  409MOL    H1149787   2.489   8.386   1.510  1.5418 -0.2166  0.7709
  409MOL    H1249788   2.412   8.254   1.434  0.6181  1.3953 -0.8497
  409MOL    H1349789   2.467   8.108   1.619 -0.2691  0.1726 -0.5707
  409MOL    C1449790   2.665   8.196   1.563 -0.4959  0.3552  0.1950
  409MOL    C1549791   2.767   8.307   1.590 -0.0220  0.3726  0.9437
  409MOL   Cl1649792   2.882   8.316   1.457 -0.2434  0.1912 -0.0757
  409MOL    H1749793   2.646   8.171   1.458 -0.4540  1.0726  0.0145
  409MOL    H1849794   2.709   8.103   1.598 -0.6867  0.5707  1.0102
  409MOL    H1949795   2.716   8.403   1.595 -0.0675  0.3624  0.7170
  409MOL    C2049796   2.843   8.276   1.719 -0.2372 -0.1930 -0.1015
  409MOL    C2149797   2.922   8.399   1.766  0.3477  0.2788  0.6294
  409MOL   Cl2249798   3.035   8.332   1.882  0.1069 -0.1748 -0.1780
  409MOL    H2349799   2.906   8.188   1.705  0.0454 -0.0734  0.4291
  409MOL    H2449800   2.774   8.250   1.799  1.2852 -1.9317  0.6669
  409MOL    H2549801   2.998   8.424   1.692  1.6605 -0.1919  1.7967
  409MOL    C2649802   2.831   8.510   1.813  0.1107 -0.6028 -0.0598
  409MOL    C2749803   2.893   0.124   1.849  0.2721 -0.1961 -0.1251
  409MOL   Cl2849804   2.764   0.220   1.933  0.1314 -0.2661  0.2081
  409MOL    H2949805   2.773   8.489   1.903 -2.4658  1.7906 -1.1074
  409MOL    H3049806   2.751   0.012   1.745  1.2676  2.0272 -0.3900
  409MOL    H3149807   2.974   0.118   1.922 -0.1141 -1.0488  0.2471
  409MOL    C3249808   2.942   0.192   1.715  0.3160 -0.1333 -0.4152
  409MOL    C3349809   2.989   0.334   1.718 -0.1762  0.7391 -1.4863
  409MOL   Cl3449810   2.998   0.401   1.550  0.2210  0.2193 -0.4311
  409MOL    H3549811   2.858   0.186   1.646  0.2213  0.2423 -0.3324
  409MOL    H3649812   3.016   0.133   1.661  0.1743 -1.0445  0.3870
  409MOL    H3749813   2.907   0.387   1.767 -0.4487  0.1338 -1.2877
  409MOL    C3849814   3.117   0.372   1.799 -0.0308  0.2145 -0.6729
  409MOL    C3949815   3.125   0.520   1.844 -0.0292  0.0821 -0.2321
  409MOL   Cl4049816   3.300   0.552   1.861  0.4517 -0.1124  0.2686
  409MOL    H4149817   3.198   0.348   1.731  2.0231  0.5334  1.6142
  409MOL    H4249818   3.144   0.317   1.889 -1.3417 -0.6529 -0.7900
  409MOL    H4349819   3.098   0.580   1.758 -1.2614 -0.8309 -0.4809
  409MOL    C4449820   3.048   0.558   1.977  0.2482  0.1441  0.7163
  409MOL    C4549821   3.003   0.709   1.996 -0.0517  0.0912  0.0592
  409MOL   Cl4649822   2.895   0.748   1.859 -0.2791  0.0201  0.1674
  409MOL    H4749823   3.089   0.514   2.068 -1.8470  0.1983  1.7243
  409MOL    H4849824   2.950   0.511   1.974  0.5557 -0.5552  1.3840
  409MOL    H4949825   2.945   0.716   2.088 -0.1311  2.5314 -0.1290
  409MOL    C5049826   3.113   0.817   2.004 -0.8706  0.2366 -1.1751
  409MOL    C5149827   3.203   0.808   2.129  0.3880 -0.1810 -0.3168
  409MOL   Cl5249828   3.103   0.820   2.282  0.2948 -0.1702  0.0986
  409MOL    H5349829   3.066   0.916   1.997  0.9540  1.1246 -1.0753
  409MOL    H5449830   3.177   0.797   1.918 -0.8487 -1.7124 -0.7181
  409MOL    H5549831   3.245   0.708   2.135 -2.8361 -1.6563 -1.1549
  409MOL    C5649832   3.322   0.899   2.147 -0.7012  0.5346 -0.2498
  409MOL    C5749833   3.287   1.043   2.201 -0.4928 -0.1682  0.5397
  409MOL   Cl5849834   3.197   1.136   2.080  0.4604  0.4433 -0.1226
  409MOL    H5949835   3.381   0.914   2.056 -2.3492  2.4977 -1.0260
  409MOL    H6049836   3.385   0.845   2.218 -0.3790 -0.5001 -1.3007
  409MOL    H6149837   3.217   1.050   2.284  0.2472 -1.2907  1.2705
  409MOL    C6249838   3.404   1.124   2.252 -0.2537 -0.2334  0.0648
  409MOL    C6349839   3.366   1.203   2.377  0.0044 -0.2128  0.1627
  409MOL   Cl6449840   3.486   1.331   2.401 -0.0151 -0.1649  0.1596
  409MOL    H6549841   3.435   1.202   2.182 -0.6962  1.3978  1.6605
  409MOL    H6649842   3.489   1.058   2.270 -2.2910 -2.6454  1.2884
  409MOL    H6749843   3.268   1.249   2.360  0.3276  0.8675  1.1607
  409MOL    C6849844   3.365   1.107   2.501  0.6748  0.0488 -0.7676
  409MOL    C6949845   3.335   1.184   2.634  0.0537  0.5377  0.3914
  409MOL   Cl7049846   3.378   1.087   2.776  0.4549 -0.1267  0.0816
  409MOL    H7149847   3.458   1.054   2.516  1.1361  1.6242  2.2345
  409MOL    H7249848   3.292   1.027   2.486 -0.4467  1.0886 -0.9546
  409MOL    H7349849   3.401   1.270   2.644 -2.2799  2.2365  1.6369
  409MOL    C7449850   3.184   1.229   2.650 -0.0444  0.0740 -0.3964
  409MOL    C7549851   3.140   1.295   2.783  0.2861 -0.0193 -0.1517
  409MOL   Cl7649852   2.962   1.316   2.792 -0.1696  0.0829  0.2097
  409MOL    H7749853   3.125   1.138   2.638  0.7662 -0.8579  2.3831
  409MOL    H7849854   3.157   1.296   2.568 -0.6530 -0.4433 -0.6191
  409MOL    H7949855   3.168   1.235   2.869 -1.2662  1.2439  1.2782
  409MOL    C8049856   3.212   1.432   2.817  0.2470 -0.5830 -0.5441
  409MOL    C8149857   3.169   1.501   2.951 -0.2523 -0.0281 -0.5152
  409MOL   Cl8249858   3.294   1.628   2.989  0.1262  0.0728  0.2578
  409MOL    H8349859   3.176   1.508   2.748 -0.6771  0.5553  1.1556
  409MOL    H8449860   3.320   1.427   2.800  0.1717  0.5770 -1.4033
  409MOL    H8549861   3.082   1.561   2.924 -0.2234  0.7828  1.1422
  409MOL    C8649862   3.145   1.404   3.075 -0.6086  0.5667  0.1872
  409MOL    C8749863   3.268   1.374   3.167  0.9535 -0.0096 -0.0803
  409MOL   Cl8849864   3.378   1.260   3.092 -0.0094 -0.1716  0.2111
  409MOL    H8949865   3.090   1.313   3.051  0.3789  0.1916 -0.7281
  409MOL    H9049866   3.076   1.456   3.140 -1.6550 -0.2679 -0.2377
  409MOL    H9149867   3.336   1.457   3.186 -0.3004  1.2227 -0.8729
  409MOL    C9249868   3.224   1.304   3.302  0.0069 -0.0259  0.9857
  409MOL    C9349869   3.159   1.403   3.400 -0.1469 -0.1072  0.2769
  409MOL   Cl9449870   3.260   1.554   3.425  0.2464  0.0321  0.0887
  409MOL    H9549871   3.319   1.265   3.337  0.6611  1.1898  0.6022
  409MOL    H9649872   3.174   1.208   3.295 -0.2383  0.1361  0.4208
  409MOL    H9749873   3.063   1.430   3.356 -0.7824 -1.4967  0.7972
  409MOL    C9849874   3.144   1.338   3.532  0.2172  0.1448 -0.3961
  409MOL    C9949875   3.065   1.419   3.639  0.3468 -1.1486 -0.3733
  409MOL  Cl10049876   3.063   1.345   3.804  0.2636 -0.4323 -0.1348
  409MOL   H10149877   3.249   1.336   3.561  0.3623  2.3419 -0.6690
  409MOL   H10249878   3.099   1.239   3.521  0.0531 -0.1669  2.6612
  409MOL   H10349879   3.119   1.514   3.644 -0.9387 -0.4134 -0.1224
  409MOL   C10449880   2.921   1.443   3.602  0.1718  0.0519  0.1436
  409MOL   C10549881   2.849   1.540   3.700 -0.2576 -0.2198  0.0714
  409MOL  Cl10649882   2.670   1.528   3.679  0.6477  0.2003 -0.4563
  409MOL   H10749883   2.862   1.351   3.605 -0.9908  0.6221 -2.8799
  409MOL   H10849884   2.915   1.483   3.500  1.0210 -0.3118 -0.0552
  409MOL   H10949885   2.866   1.504   3.802  0.4812 -0.2911 -0.0692
  409MOL   C11049886   2.894   1.686   3.692 -0.4746 -0.1800 -0.8379
  409MOL   C11149887   2.927   1.747   3.829  0.4900  0.0395 -0.6460
  409MOL  Cl11249888   2.768   1.768   3.918  0.1280 -0.1442  0.1059
  409MOL   H11349889   2.816   1.746   3.644 -0.7088 -0.6174 -1.0012
  409MOL   H11449890   2.981   1.712   3.631  1.2539  2.4832  2.6162
  409MOL   H11549891   2.979   1.671   3.886 -1.4451  0.1235  1.2899
  409MOL   C11649892   2.997   1.877   3.808 -0.3019 -1.0480 -0.4455
  409MOL   C11749893   3.010   1.946   3.939 -0.2564 -0.4781 -0.2459
  409MOL  Cl11849894   3.122   2.086   3.931 -0.2513 -0.0357  0.1132
  409MOL   H11949895   2.935   1.943   3.747  0.5949 -0.2515 -0.5179
  409MOL   H12049896   3.089   1.861   3.751  0.2658 -1.0745  0.4640
  409MOL   H12149897   2.915   1.975   3.984 -0.2323 -1.1864  0.2748
  409MOL   H12249898   3.063   1.873   4.000 -1.7246 -0.5968  0.9084
   8.52530   8.52530   8.52530
