Control file title. For DL_FIELD 4.10
49896
    1MOL     O1    1   4.227   2.541   0.719 -0.5353  0.5195 -0.2445
    1MOL     C2    2   4.278   2.441   0.639 -0.0689 -0.7923  0.3245
    1MOL     C3    3   4.288   2.484   0.495 -0.9925  0.2024 -0.4043
    1MOL     O4    4   4.248   2.384   0.389  0.0087 -0.1972 -0.7770
    1MOL     C5    5   4.339   2.306   0.341  0.4271  0.0588  0.0198
    1MOL     O6    6   4.450   2.290   0.375 -0.4783 -0.3917 -0.7015
    1MOL     C7    7   4.278   2.210   0.244 -0.3665 -0.5876  0.0623
    1MOL     C8    8   4.143   2.172   0.248 -0.7237  0.2001  0.7773
    1MOL     C9    9   4.103   2.058   0.186  0.4619  0.2309  0.4353
    1MOL    C10   10   4.192   1.980   0.106  0.0924 -0.1961 -0.3485
    1MOL    C11   11   4.147   1.863   0.019 -0.1178  0.2097  0.2182
    1MOL    O12   12   4.213   1.811   8.211  0.0924  0.2148 -0.0153
    1MOL    O13   13   4.018   1.835   0.044  0.2128 -0.5986  0.4700
    1MOL    C14   14   4.326   2.024   0.095  0.2847  0.7657 -0.2242
    1MOL    C15   15   4.369   2.137   0.162  0.7925 -0.5997 -0.4328
    1MOL    H16   16   4.377   2.414   0.675  0.7659  0.8845 -0.6537
    1MOL    H17   17   4.215   2.353   0.651 -1.4495 -0.1274 -1.7293
    1MOL    H18   18   4.389   2.516   0.471 -0.7839  0.1054  0.3464
    1MOL    H19   19   4.226   2.572   0.478  0.1347  1.2115  0.6553
    1MOL    H20   20   4.076   2.218   0.319 -0.4456  0.4600  0.8728
    1MOL    H21   21   4.001   2.022   0.191  0.1791  0.8422 -0.6339
    1MOL    H22   22   4.389   1.959   0.036  0.5670  1.3120 -0.5339
    1MOL    H23   23   4.474   2.161   0.151  0.7559 -0.9397 -1.7451
    1MOL    H24   24   4.279   2.553   0.798 -0.3861  0.3218 -0.3109
    1MOL    O25   25   3.959   1.720   8.237  0.4116  0.6971 -0.4485
    1MOL    C26   26   3.861   1.775   8.149 -0.1096 -0.1585  0.2045
    1MOL    C27   27   3.728   1.707   8.182  0.1907  0.3606  0.3751
    1MOL    O28   28   3.730   1.574   8.159  0.9794 -0.2672 -0.1421
    1MOL    C29   29   3.694   1.516   8.044 -0.0295 -0.2336 -0.5611
    1MOL    O30   30   3.663   1.582   7.942  0.1773  0.5185  0.0715
    1MOL    C31   31   3.691   1.366   8.060 -0.2446 -0.2025  0.3765
    1MOL    C32   32   3.734   1.297   8.175 -0.1100  0.2194  0.0642
    1MOL    C33   33   3.730   1.155   8.172 -0.5940  0.1107 -0.2261
    1MOL    C34   34   3.680   1.077   8.060 -0.0040  0.0602  0.4237
    1MOL    C35   35   3.667   0.930   8.061  0.5047 -0.4486  0.2293
    1MOL    O36   36   3.718   0.862   8.147  0.5804 -0.0250  0.0385
    1MOL    O37   37   3.585   0.887   7.963  0.4150 -0.1292 -0.0249
    1MOL    C38   38   3.651   1.152   7.943  0.2073  0.5032  0.3004
    1MOL    C39   39   3.652   1.294   7.950  0.1122 -0.3392 -0.6410
    1MOL    H40   40   3.842   1.878   8.179 -0.0695 -0.1659  0.2544
    1MOL    H41   41   3.893   1.784   8.046 -1.1618 -1.7166 -0.2746
    1MOL    H42   42   3.650   1.758   8.125 -0.4946  0.3012  1.2654
    1MOL    H43   43   3.715   1.722   0.013 -2.9604 -0.5683  0.1592
    1MOL    H44   44   3.760   1.356   8.262 -0.0368  1.2089 -0.6255
    1MOL    H45   45   3.763   1.098   8.257 -0.1128 -0.1059 -0.5543
    1MOL    H46   46   3.626   1.107   7.849  0.1507 -1.0745  1.0596
    1MOL    H47   47   3.613   1.354   7.869 -1.4708  0.8673  0.9797
    1MOL    O48   48   3.544   0.741   7.962  0.4371  0.2437  0.4524
    1MOL    C49   49   3.409   0.731   8.024 -0.5929  0.4419  0.5236
    1MOL    C50   50   3.430   0.739   8.173  0.0382 -0.2186  0.5377
    1MOL    O51   51   3.397   0.874   8.213  0.1787 -0.0069 -0.1330
    1MOL    C52   52   3.279   0.899   0.003 -0.2915  0.6888  0.6768
    1MOL    O53   53   3.201   0.816   0.052  0.5503  0.4310  0.3125
    1MOL    C54   54   3.259   1.047   0.021 -0.6749  1.1011  0.0631
    1MOL    C55   55   3.328   1.132   8.205 -0.3969  0.1594  0.2157
    1MOL    C56   56   3.320   1.271   8.217  0.6853  0.0375  0.4003
    1MOL    C57   57   3.236   1.327   0.044  0.4711  0.7534  0.5626
    1MOL    C58   58   3.237   1.478   0.056  0.4443  0.0251 -0.0741
    1MOL    O59   59   3.320   1.550   0.001  1.0074  0.3432  0.5600
    1MOL    O60   60   3.137   1.536   0.138  0.6345 -0.1033 -0.5444
    1MOL    C61   61   3.173   1.247   0.136 -0.1454  0.4959  1.0214
    1MOL    C62   62   3.182   1.105   0.124 -0.3402 -1.1492 -0.0462
    1MOL    H63   63   3.337   0.803   7.983 -2.1839  0.1665  2.7331
    1MOL    H64   64   3.361   0.633   8.017  1.7127 -0.7191  0.4205
    1MOL    H65   65   3.529   0.701   8.197  1.0285  1.3806 -0.8814
    1MOL    H66   66   3.364   0.662   8.213 -1.7025  1.3216  0.6588
    1MOL    H67   67   3.390   1.096   8.124 -2.2844 -0.9118 -0.8018
    1MOL    H68   68   3.373   1.334   8.147  3.5010 -1.1034  1.4405
    1MOL    H69   69   3.112   1.283   0.217 -1.7509 -1.3138  0.6591
    1MOL    H70   70   3.138   1.044   0.201 -1.6560 -1.0648 -0.7231
    1MOL    O71   71   3.139   1.686   0.129  0.7336  0.1012  0.2954
    1MOL    C72   72   3.224   1.731   0.236  0.0655 -0.3995 -0.4347
    1MOL    C73   73   3.229   1.889   0.263 -0.5188 -1.0054  0.3465
    1MOL    O74   74   3.338   1.936   0.339  0.3039 -0.1216  0.0250
    1MOL    C75   75   3.465   1.922   0.294 -0.3097  0.9359  0.4450
    1MOL    O76   76   3.501   1.856   0.194 -0.1105 -0.3917 -0.4097
    1MOL    C77   77   3.561   2.005   0.371 -0.1868  0.3188 -1.0975
    1MOL    C78   78   3.697   1.984   0.351  0.2473 -0.0609  1.0087
    1MOL    C79   79   3.789   2.058   0.429 -0.0374 -0.1735 -0.0190
    1MOL    C80   80   3.751   2.166   0.510  0.2506  0.0709  0.4944
    1MOL    C81   81   3.854   2.264   0.560  0.0058 -0.2013 -0.4461
    1MOL    O82   82   3.976   2.248   0.553  0.0758  0.4250  0.4536
    1MOL    O83   83   3.805   2.389   0.562 -0.1174  0.3244  0.1996
    1MOL    C84   84   3.614   2.184   0.525 -1.1219  0.9206 -0.2981
    1MOL    C85   85   3.521   2.105   0.458 -0.1230  1.0940 -0.0979
    1MOL    H86   86   3.191   1.679   0.325 -0.4826  0.3762 -0.1816
    1MOL    H87   87   3.323   1.704   0.198  1.1704 -1.2600  2.8665
    1MOL    H88   88   3.134   1.928   0.299  0.5378 -0.0780  2.1600
    1MOL    H89   89   3.233   1.931   0.162 -2.0724 -0.5811  0.4438
    1MOL    H90   90   3.742   1.910   0.287 -1.7024  0.2022 -0.7335
    1MOL    H91   91   3.895   2.040   0.422  0.3134  1.6600  0.5390
    1MOL    H92   92   3.577   2.260   0.593  0.5064  0.2694  1.3785
    1MOL    H93   93   3.415   2.120   0.472 -0.1207 -0.5162  1.8582
    1MOL    O94   94   3.889   2.500   0.599  0.7299 -0.7309  0.8031
    1MOL    C95   95   3.957   2.555   0.489 -0.1658  0.3476 -0.8392
    1MOL    C96   96   3.861   2.620   0.391  0.3177  0.2820 -0.0945
    1MOL    O97   97   3.827   2.520   0.295  0.1261  0.4567  0.6070
    1MOL    C98   98   3.871   2.531   0.167 -0.6065 -0.3162  0.0528
    1MOL    O99   99   3.942   2.625   0.130 -0.3839  0.6220  0.1872
    1MOL   C100  100   3.822   2.414   0.083 -0.4301  0.5939  0.1311
    1MOL   C101  101   3.828   2.439   8.216  0.2610  0.4934  0.2596
    1MOL   C102  102   3.792   2.333   8.136 -0.0761  0.4066  0.5713
    1MOL   C103  103   3.725   2.220   8.193  0.0509  0.4582  0.3453
    1MOL   C104  104   3.667   2.109   8.104  0.0236  0.1004 -0.1698
    1MOL   O105  105   3.624   2.001   8.149  0.0347  0.0368  0.1533
    1MOL   O106  106   3.662   2.143   7.977 -0.4901  0.2398  0.1067
    1MOL   C107  107   3.708   2.203   0.056 -0.5800  0.3840  0.0945
    1MOL   C108  108   3.769   2.296   0.138 -0.6877  0.7184 -0.7772
    1MOL   H109  109   4.008   2.634   0.543 -0.9045  0.2582  0.0106
    1MOL   H110  110   4.024   2.478   0.452 -0.7988 -0.7803  0.2997
    1MOL   H111  111   3.894   2.710   0.339  3.6372 -1.3758 -1.0305
    1MOL   H112  112   3.777   2.658   0.448  0.9485 -2.2062  2.6320
    1MOL   H113  113   3.871   2.528   8.174  0.6655  0.0406 -0.2830
    1MOL   H114  114   3.807   2.338   8.029 -2.3039 -0.7015  0.1720
    1MOL   H115  115   3.668   2.113   0.102  2.3997 -1.2333 -0.3929
    1MOL   H116  116   3.769   2.282   0.245  1.0904 -1.2056 -0.9994
    1MOL   O117  117   3.572   2.047   7.895  0.1032 -0.4312 -0.8104
    1MOL   C118  118   3.655   1.953   7.833  0.1412 -0.2008  0.2256
    1MOL   C119  119   3.584   1.904   7.699 -0.4976  0.3937 -0.5491
    1MOL   O120  120   3.611   1.769   7.663  0.6036 -1.1615 -0.5719
    1MOL   C121  121   3.732   1.750   7.596  0.3267 -0.5194  0.0263
    1MOL   O122  122   3.799   1.846   7.557  0.1225 -0.2104  0.0906
    1MOL   C123  123   3.754   1.605   7.566  0.5889  0.5446 -0.2015
    1MOL   C124  124   3.869   1.565   7.492  0.0393 -0.3997  0.0274
    1MOL   C125  125   3.883   1.436   7.443  0.6184 -0.4943 -0.0541
    1MOL   C126  126   3.788   1.331   7.474 -0.1215 -0.5280 -0.8398
    1MOL   C127  127   3.801   1.199   7.411 -0.3923 -0.4421  0.5017
    1MOL   O128  128   3.903   1.166   7.345 -0.2303 -0.8080  0.4115
    1MOL   O129  129   3.701   1.114   7.420 -0.1108 -0.2359 -0.1001
    1MOL   C130  130   3.682   1.368   7.567  0.0949  0.0756 -0.3959
    1MOL   C131  131   3.666   1.503   7.610  0.0667  0.7481  0.1772
    1MOL   H132  132   3.750   1.998   7.805  0.0846  0.1394  0.5765
    1MOL   H133  133   3.669   1.860   7.889 -0.2808 -0.0859  0.5217
    1MOL   H134  134   3.584   1.967   7.610  1.5072  0.2191 -0.6914
    1MOL   H135  135   3.477   1.892   7.717 -0.4269 -0.2446 -0.5115
    1MOL   H136  136   3.943   1.639   7.464 -1.7700  1.8134  0.8898
    1MOL   H137  137   3.963   1.407   7.377 -0.2995 -0.7091 -1.0927
    1MOL   H138  138   3.611   1.290   7.591  0.8244 -0.9232 -1.4284
    1MOL   H139  139   3.581   1.529   7.672 -2.0859 -0.4227 -2.1697
    1MOL   O140  140   3.723   0.972   7.377  0.4258 -0.2764 -0.2177
    1MOL   C141  141   3.676   0.963   7.241 -0.4510 -0.1178 -0.3108
    1MOL   C142  142   3.682   0.818   7.180  0.4746 -0.3612 -0.2858
    1MOL   O143  143   3.575   0.740   7.230  0.6990 -0.0116 -0.5418
    1MOL   C144  144   3.453   0.751   7.170  0.1298 -0.2753 -0.6996
    1MOL   O145  145   3.431   0.820   7.077 -0.1492  0.2396  0.1257
    1MOL   C146  146   3.342   0.655   7.223  0.0277 -0.4207 -0.1956
    1MOL   C147  147   3.202   0.696   7.216 -0.3813  0.0286  0.5465
    1MOL   C148  148   3.101   0.611   7.263 -0.3603  0.1017  0.5571
    1MOL   C149  149   3.132   0.491   7.327  0.1338 -0.4310 -0.0746
    1MOL   C150  150   3.025   0.399   7.370  0.1942  0.5254 -0.0026
    1MOL   O151  151   2.919   0.434   7.421 -0.0783 -0.6401  0.2259
    1MOL   O152  152   3.064   0.272   7.345  0.5905 -0.1513 -0.5661
    1MOL   C153  153   3.265   0.469   7.352  0.2830  0.3571  0.1385
    1MOL   C154  154   3.374   0.544   7.303  0.0178  0.8220 -0.2786
    1MOL   H155  155   3.575   1.001   7.231  0.0725  1.6858  1.0042
    1MOL   H156  156   3.741   1.026   7.180 -0.9415  0.3192 -0.3781
    1MOL   H157  157   3.777   0.775   7.213  0.6014  0.6543  0.7234
    1MOL   H158  158   3.684   0.819   7.071  1.3291 -2.8305 -0.3206
    1MOL   H159  159   3.178   0.788   7.164  0.4538 -0.3806 -0.5946
    1MOL   H160  160   2.995   0.631   7.251 -0.6123 -0.1866  2.2403
    1MOL   H161  161   3.292   0.375   7.397  0.7037 -0.2878 -1.4234
    1MOL   H162  162   3.474   0.505   7.315 -0.7067 -0.5094  1.6980
    1MOL   O163  163   2.973   0.159   7.387  0.5077 -0.1887  1.0710
    1MOL   C164  164   2.896   0.109   7.272  0.4587  0.0918 -0.1137
    1MOL   C165  165   2.993   0.042   7.173  0.0424 -0.8720  0.5915
    1MOL   O166  166   3.054   0.143   7.091 -0.0187 -0.1594 -0.6245
    1MOL   C167  167   3.165   0.113   7.010  0.4001  0.1944  0.3766
    1MOL   O168  168   3.211   8.275   7.014  0.1124 -0.1168 -0.4944
    1MOL   C169  169   3.213   0.229   6.924  0.2256 -0.9727  0.9311
    1MOL   C170  170   3.199   0.365   6.965  0.0320 -0.3693 -0.4735
    1MOL   C171  171   3.266   0.466   6.901  0.5191  0.8586  0.5016
    1MOL   C172  172   3.342   0.441   6.781  0.0217 -0.2669  0.1184
    1MOL   C173  173   3.402   0.554   6.705  0.6581 -0.2420  0.8549
    1MOL   O174  174   3.481   0.543   6.613  0.1317  0.2607 -0.2070
    1MOL   O175  175   3.337   0.675   6.745 -0.7645 -0.0290  0.2369
    1MOL   C176  176   3.345   0.310   6.733 -0.3029 -0.3247  0.3784
    1MOL   C177  177   3.286   0.208   6.804 -0.1377 -0.1348  0.2193
    1MOL   H178  178   2.824   0.040   7.315 -0.1123  0.3650 -0.6285
    1MOL   H179  179   2.831   0.186   7.231 -0.6264 -0.9370 -0.3642
    1MOL   H180  180   2.938   8.249   7.108 -1.0219  1.0630 -0.6239
    1MOL   H181  181   3.072   8.267   7.228  2.2432  0.7346 -1.0090
    1MOL   H182  182   3.128   0.387   7.043 -0.3634  0.5993 -1.1008
    1MOL   H183  183   3.235   0.564   6.933 -0.6011  1.0861 -1.2002
    1MOL   H184  184   3.397   0.290   6.640 -0.2695  1.8056 -0.0924
    1MOL   H185  185   3.275   0.114   6.752 -3.4387 -0.0365  0.6652
    1MOL   O186  186   3.387   0.797   6.664 -0.4537  0.5636 -0.1345
    1MOL   C187  187   3.501   0.856   6.730  0.3079  0.6842  0.1008
    1MOL   C188  188   3.553   0.977   6.643  0.3798 -0.0196  0.2349
    1MOL   O189  189   3.594   1.076   6.739 -0.8142 -0.4387 -0.4307
    1MOL   C190  190   3.582   1.202   6.708 -0.2311  0.3732 -0.3043
    1MOL   O191  191   3.525   1.243   6.608 -0.2658  0.0827 -0.2509
    1MOL   C192  192   3.654   1.295   6.803  0.2604 -0.1596 -0.2656
    1MOL   C193  193   3.659   1.436   6.781  0.1388  1.0359 -0.3411
    1MOL   C194  194   3.731   1.520   6.861  0.5252 -0.4666  0.0937
    1MOL   C195  195   3.802   1.475   6.977 -0.6294 -0.1450  0.2911
    1MOL   C196  196   3.893   1.562   7.059 -0.0682 -1.1243  0.6631
    1MOL   O197  197   3.971   1.516   7.151 -0.2728 -0.5545  0.9677
    1MOL   O198  198   3.879   1.696   7.027 -0.4054 -0.0646  0.2026
    1MOL   C199  199   3.785   1.337   6.999  0.0031  0.6063 -0.3259
    1MOL   C200  200   3.714   1.247   6.917 -0.0723 -0.4446  0.1663
    1MOL   H201  201   3.469   0.905   6.822 -2.2073  2.0400 -1.4632
    1MOL   H202  202   3.574   0.781   6.761  1.5205  1.5464 -0.5862
    1MOL   H203  203   3.476   1.018   6.578 -0.2780 -0.6609  0.6006
    1MOL   H204  204   3.616   0.932   6.566 -1.0581 -1.8666  0.1029
    1MOL   H205  205   3.617   1.463   6.685  0.5251  0.2363 -0.7405
    1MOL   H206  206   3.723   1.626   6.841  2.8403 -0.5552 -1.3981
    1MOL   H207  207   3.833   1.285   7.081 -0.1156 -1.3725 -1.4694
    1MOL   H208  208   3.731   1.144   6.944  1.1121  0.5325  3.4712
    1MOL   O209  209   3.969   1.780   7.113  0.6495  0.4833  0.7835
    1MOL   C210  210   3.884   1.840   7.214  0.0965 -0.1787  0.1874
    1MOL   C211  211   3.835   1.987   7.166  0.7970 -0.4036 -0.1441
    1MOL   O212  212   3.774   2.056   7.276  0.0793  0.7424  0.0526
    1MOL   C213  213   3.845   2.108   7.372  0.2133  0.0518 -0.2007
    1MOL   O214  214   3.970   2.097   7.368  1.0418  0.0596 -1.0764
    1MOL   C215  215   3.762   2.182   7.478 -0.9701  0.2624 -0.2487
    1MOL   C216  216   3.822   2.220   7.602  0.2839 -0.5335  0.1528
    1MOL   C217  217   3.746   2.285   7.701  0.1359  0.1149 -0.3068
    1MOL   C218  218   3.607   2.311   7.677 -0.0789 -0.4215 -0.2949
    1MOL   C219  219   3.520   2.376   7.779 -0.9439  0.5610 -0.0565
    1MOL   O220  220   3.394   2.381   7.775 -0.2180 -0.3036 -0.8686
    1MOL   O221  221   3.593   2.422   7.883 -0.6999 -0.0538 -1.1077
    1MOL   C222  222   3.549   2.289   7.552 -0.0430  0.5626 -0.4880
    1MOL   C223  223   3.629   2.226   7.453  0.4196 -0.1847  0.0733
    1MOL   H224  224   3.806   1.774   7.252  0.4255 -0.8821 -0.3325
    1MOL   H225  225   3.950   1.852   7.300 -0.5858  1.9834  0.4179
    1MOL   H226  226   3.751   1.978   7.097  0.4852  1.6525 -0.0606
    1MOL   H227  227   3.912   2.054   7.129  2.1758 -1.5072  0.6958
    1MOL   H228  228   3.927   2.197   7.619  1.2903  2.1321 -2.0521
    1MOL   H229  229   3.799   2.295   7.795 -1.0136  1.0887  0.2436
    1MOL   H230  230   3.445   2.309   7.529 -0.2613 -0.1169 -0.1038
    1MOL   H231  231   3.598   2.200   7.352  0.3852 -1.1091  0.3164
    1MOL   O232  232   3.516   2.514   7.967  0.0619 -0.5044  0.1598
    1MOL   C233  233   3.535   2.649   7.917  0.3307  0.7312 -0.4181
    1MOL   C234  234   3.686   2.694   7.920  0.3133 -0.5298 -0.0553
    1MOL   O235  235   3.762   2.645   7.810  0.3381 -0.2796 -0.1458
    1MOL   C236  236   3.787   2.734   7.710  0.2586  0.0043 -0.2471
    1MOL   O237  237   3.756   2.853   7.715 -0.2275 -0.1071  0.2227
    1MOL   C238  238   3.860   2.674   7.597 -0.1406 -0.2040  0.5658
    1MOL   C239  239   3.866   2.745   7.475 -0.4761 -0.5628 -0.8469
    1MOL   C240  240   3.935   2.691   7.366 -0.6249 -0.1842 -0.2146
    1MOL   C241  241   3.988   2.559   7.374 -0.1871  0.1969 -0.0564
    1MOL   C242  242   4.049   2.504   7.254 -0.4908 -0.3093 -0.0928
    1MOL   O243  243   4.052   2.564   7.149 -0.6472 -0.2811  0.3772
    1MOL   O244  244   4.099   2.378   7.278  0.1221  0.0873 -0.0695
    1MOL   C245  245   3.968   2.484   7.490 -0.8065  0.1938  0.1076
    1MOL   C246  246   3.909   2.544   7.603  0.2790 -0.4702 -0.4846
    1MOL   H247  247   3.491   2.647   7.817  0.0607  0.8016 -0.3006
    1MOL   H248  248   3.483   2.710   7.991  0.1229  1.4605 -1.1580
    1MOL   H249  249   3.734   2.647   8.006 -0.7059  0.0967  0.8568
    1MOL   H250  250   3.704   2.799   7.942  1.1372 -0.7432  0.3093
    1MOL   H251  251   3.828   2.845   7.466  0.8792 -0.1313 -1.9815
    1MOL   H252  252   3.940   2.750   7.276 -1.4136  0.7127  0.3150
    1MOL   H253  253   4.008   2.383   7.493 -0.9164  0.1787  1.3303
    1MOL   H254  254   3.907   2.486   7.694 -1.0553  0.6699  0.2397
    1MOL   O255  255   4.185   2.322   7.169  0.3637  0.5741  0.2456
    1MOL   C256  256   4.106   2.258   7.070 -0.4113  0.5108  0.4724
    1MOL   C257  257   4.183   2.154   6.991  0.9419  0.1802  0.0866
    1MOL   O258  258   4.104   2.066   6.923  0.3988 -0.4421  0.0357
    1MOL   C259  259   4.169   1.958   6.868  0.2188 -0.6093  0.0071
    1MOL   O260  260   4.286   1.932   6.889 -0.2153 -0.0009 -0.4631
    1MOL   C261  261   4.084   1.869   6.780  0.1137 -0.1012  0.0837
    1MOL   C262  262   3.949   1.903   6.753  0.2162  0.2069 -0.0125
    1MOL   C263  263   3.868   1.828   6.660  0.3005 -0.2199 -0.0182
    1MOL   C264  264   3.924   1.715   6.598  0.9064  0.8578 -0.1498
    1MOL   C265  265   3.850   1.642   6.488  0.1662 -0.4000 -0.2807
    1MOL   O266  266   3.901   1.557   6.422  0.1550  0.5537  0.1361
    1MOL   O267  267   3.726   1.691   6.470 -0.2580  0.1289  0.1550
    1MOL   C268  268   4.056   1.677   6.633  0.4807  0.7766  0.0684
    1MOL   C269  269   4.136   1.758   6.716 -0.1706  0.6224 -0.2253
    1MOL   H270  270   4.023   2.206   7.118  0.3992 -0.6985  0.5629
    1MOL   H271  271   4.063   2.327   6.997 -1.3229  0.7619  1.2332
    1MOL   H272  272   4.246   2.094   7.057 -1.1114 -0.1493  1.8038
    1MOL   H273  273   4.257   2.195   6.922  1.8640  3.2923  2.7719
    1MOL   H274  274   3.894   1.990   6.787  0.6930  1.2129 -1.7343
    1MOL   H275  275   3.765   1.860   6.648  0.9701  1.6872 -1.0161
    1MOL   H276  276   4.107   1.592   6.590 -0.2827 -0.4443  1.5503
    1MOL   H277  277   4.239   1.729   6.729  0.5175  3.1551  0.2040
    1MOL   O278  278   3.650   1.598   6.370 -0.1222  0.1543  0.1674
    1MOL   C279  279   3.633   1.668   6.250  0.0148  0.8693 -0.3855
    1MOL   C280  280   3.566   1.803   6.273  0.1579 -0.3293 -0.5492
    1MOL   O281  281   3.423   1.795   6.256 -0.3142  1.1171  0.0439
    1MOL   C282  282   3.346   1.898   6.210 -0.2366  0.1029  0.3943
    1MOL   O283  283   3.397   1.996   6.158  0.0498  0.3091  0.1906
    1MOL   C284  284   3.199   1.873   6.219  0.0523 -0.5102  0.7223
    1MOL   C285  285   3.110   1.974   6.197 -0.2306  0.0589 -0.2338
    1MOL   C286  286   2.973   1.954   6.191  0.0153 -0.2746 -0.0484
    1MOL   C287  287   2.925   1.831   6.223 -0.5659 -0.2713  0.5647
    1MOL   C288  288   2.784   1.805   6.240 -0.4034 -0.3400  0.8528
    1MOL   O289  289   2.749   1.700   6.286 -0.4013  0.0840 -0.3283
    1MOL   O290  290   2.705   1.893   6.188 -0.2294  0.0322 -0.0881
    1MOL   C291  291   3.017   1.723   6.243 -0.5044 -0.1361 -0.3117
    1MOL   C292  292   3.155   1.743   6.245 -0.0756  0.5458  0.6464
    1MOL   H293  293   3.732   1.692   6.211  1.1941 -0.5147  1.6660
    1MOL   H294  294   3.572   1.624   6.172  0.8451  1.6592 -1.4922
    1MOL   H295  295   3.611   1.871   6.200  0.4697  1.5152  1.3127
    1MOL   H296  296   3.597   1.858   6.362 -1.8138 -1.5060  0.9128
    1MOL   H297  297   3.153   2.069   6.166  1.3733 -0.9824 -1.3203
    1MOL   H298  298   2.905   2.032   6.159 -0.7512 -0.2998  1.4516
    1MOL   H299  299   2.978   1.623   6.254 -1.1741  0.1137 -0.3923
    1MOL   H300  300   3.220   1.658   6.258 -0.8073 -0.6080 -2.6329
    1MOL   O301  301   2.565   1.858   6.222 -0.1738  0.1511  0.6427
    1MOL   C302  302   2.496   1.828   6.102 -0.2214  0.7896 -0.2696
    1MOL   C303  303   2.369   1.754   6.136  0.0663 -0.2550  0.0390
    1MOL   O304  304   2.268   1.849   6.170 -0.0735  0.3314 -0.0314
    1MOL   C305  305   2.147   1.806   6.212 -0.8241  0.6593 -0.2364
    1MOL   O306  306   2.129   1.687   6.240  0.1319 -0.5230  0.3336
    1MOL   C307  307   2.050   1.911   6.210 -0.4075  0.4168 -0.1482
    1MOL   C308  308   2.080   2.048   6.197  0.2092 -0.1046 -0.1049
    1MOL   C309  309   1.980   2.144   6.205 -0.3984 -0.6869 -0.7454
    1MOL   C310  310   1.845   2.104   6.229 -0.1109 -0.4823  0.4398
    1MOL   C311  311   1.742   2.206   6.244  0.5686  0.2630  0.0667
    1MOL   O312  312   1.763   2.323   6.222 -0.4635 -0.5442  0.4331
    1MOL   O313  313   1.618   2.154   6.271 -0.0508 -0.1383  0.1959
    1MOL   C314  314   1.817   1.965   6.237 -0.3190  0.0358  0.0019
    1MOL   C315  315   1.919   1.871   6.231 -0.1722 -0.1711  0.2517
    1MOL   H316  316   2.474   1.919   6.046 -0.0355  1.9774  1.5473
    1MOL   H317  317   2.545   1.756   6.036 -1.1990 -1.8943  1.7948
    1MOL   H318  318   2.395   1.685   6.216  0.4282  1.1499  1.1539
    1MOL   H319  319   2.331   1.700   6.049  1.1935  0.4011 -0.8841
    1MOL   H320  320   2.182   2.083   6.185  0.5524 -1.2262 -0.5382
    1MOL   H321  321   2.007   2.247   6.188 -1.7258 -0.4211 -1.2796
    1MOL   H322  322   1.719   1.922   6.249 -0.5845  0.7924  0.5199
    1MOL   H323  323   1.889   1.768   6.232  3.0541 -1.1719 -0.3719
    1MOL   O324  324   1.497   2.254   6.250  0.1917 -0.1947 -0.7594
    1MOL   C325  325   1.446   2.279   6.382 -0.1067 -0.7152 -0.3258
    1MOL   C326  326   1.344   2.390   6.370 -0.8766  0.0736 -0.0636
    1MOL   O327  327   1.260   2.396   6.488  0.5244  0.4930 -0.3560
    1MOL   C328  328   1.180   2.495   6.509  1.6246  0.2065  0.1873
    1MOL   O329  329   1.166   2.593   6.431  0.3604  0.6406  0.2632
    1MOL   C330  330   1.119   2.491   6.649  0.1258 -0.1529 -0.5141
    1MOL   C331  331   1.022   2.586   6.677  0.0287 -0.1551  0.3987
    1MOL   C332  332   0.969   2.593   6.807  0.2805  0.0932 -0.0430
    1MOL   C333  333   1.006   2.507   6.912  0.0442 -0.2143 -0.0513
    1MOL   C334  334   0.962   2.534   7.055 -0.3176  0.9289 -0.2191
    1MOL   O335  335   0.901   2.630   7.092  0.7458  0.2450  0.1541
    1MOL   O336  336   0.993   2.440   7.144 -0.2327  0.4194  0.8256
    1MOL   C337  337   1.090   2.400   6.870  0.0778  0.2899  0.2013
    1MOL   C338  338   1.152   2.389   6.741  0.8959 -0.8077 -0.5868
    1MOL   H339  339   1.416   2.187   6.431 -0.4054 -0.7649 -0.6036
    1MOL   H340  340   1.532   2.311   6.442  1.0049  2.5296 -3.4744
    1MOL   H341  341   1.279   2.374   6.284 -0.3152  1.4662 -0.7784
    1MOL   H342  342   1.402   2.482   6.357  0.5980 -0.6558  1.2776
    1MOL   H343  343   1.004   2.658   6.599 -0.5975  1.3766  1.9172
    1MOL   H344  344   0.902   2.675   6.824 -0.1623 -0.4579  0.9243
    1MOL   H345  345   1.109   2.327   6.947 -3.3239 -0.0265  0.7938
    1MOL   H346  346   1.223   2.311   6.716 -0.1507 -1.9800  0.0299
    1MOL   O347  347   0.966   2.482   7.293 -0.3676  0.2831  0.2980
    1MOL   C348  348   0.845   2.416   7.331  0.1476 -0.5548 -0.4218
    1MOL   C349  349   0.810   2.468   7.477  0.2411  0.0302 -0.7087
    1MOL   O350  350   0.773   2.353   7.542 -0.3944 -0.2751 -0.1421
    1MOL   C351  351   0.636   2.310   7.527  0.3129 -0.6519  0.4595
    1MOL   O352  352   0.554   2.366   7.454  0.0367  0.0428  0.6933
    1MOL   C353  353   0.605   2.186   7.602  0.1386  0.6201 -0.1783
    1MOL   C354  354   0.653   2.159   7.730  0.2015  0.5772  0.7421
    1MOL   C355  355   0.616   2.043   7.804 -0.5692  0.4180 -0.6907
    1MOL   C356  356   0.530   1.950   7.746  0.1752 -0.3082  0.0847
    1MOL   C357  357   0.476   1.839   7.828 -0.4751  0.4608  0.0583
    1MOL   O358  358   0.465   1.832   7.949  0.0811  0.0184 -0.1371
    1MOL   O359  359   0.434   1.734   7.744  0.8403  0.0395 -0.7119
    1MOL   C360  360   0.483   1.973   7.615  0.3388  0.7046  0.3639
    1MOL   C361  361   0.518   2.088   7.549 -0.4094 -0.6607  0.2487
    1MOL   H362  362   0.764   2.431   7.259  1.4402  2.5013 -1.2824
    1MOL   H363  363   0.865   2.309   7.342  2.2864  0.0903  2.3646
    1MOL   H364  364   0.731   2.543   7.474  0.3293  0.2184  1.1885
    1MOL   H365  365   0.900   2.518   7.514  0.1746  0.1660 -0.7327
    1MOL   H366  366   0.712   2.237   7.776  0.8093  0.4582  0.1738
    1MOL   H367  367   0.650   2.028   7.905  1.2847 -1.6226 -1.5797
    1MOL   H368  368   0.396   1.919   7.582 -0.3643  1.9873  0.0744
    1MOL   H369  369   0.468   2.111   7.456  1.0021 -1.7314 -0.7899
    1MOL   O370  370   0.389   1.613   7.815  0.0704 -0.2116  0.1236
    1MOL   C371  371   0.250   1.619   7.833  0.6299  0.0012  0.5514
    1MOL   C372  372   0.159   1.620   7.701  0.1376  0.0285 -0.1652
    1MOL   O373  373   0.154   1.749   7.644  0.0690  0.3059 -0.4769
    1MOL   C374  374   0.088   1.846   7.724  0.4906 -0.9789  0.1277
    1MOL   O375  375   0.037   1.822   7.831  0.6090 -0.1318  0.9980
    1MOL   C376  376   0.094   1.980   7.658 -0.4718 -0.2607 -0.6088
    1MOL   C377  377   0.165   2.007   7.540 -0.7414  0.4505 -0.0594
    1MOL   C378  378   0.161   2.137   7.475 -0.1302  0.1064 -0.2317
    1MOL   C379  379   0.080   2.238   7.536  0.4882  0.0980 -0.1694
    1MOL   C380  380   0.084   2.381   7.493  0.4392  0.0616 -0.6845
    1MOL   O381  381   0.034   2.469   7.559  0.1260 -0.1113  0.0290
    1MOL   O382  382   0.155   2.410   7.384 -0.3179  0.2625  0.1359
    1MOL   C383  383   0.005   2.208   7.655  0.0467  0.1016 -0.4175
    1MOL   C384  384   0.006   2.080   7.712  0.4011  0.4385 -0.6942
    1MOL   H385  385   0.214   1.534   7.890  1.0516 -0.7436 -0.2731
    1MOL   H386  386   0.237   1.703   7.901 -0.6887  1.0980 -0.9986
    1MOL   H387  387   0.055   1.602   7.728  0.8790 -3.1897  0.7172
    1MOL   H388  388   0.203   1.561   7.621 -0.0186 -0.2553 -0.0398
    1MOL   H389  389   0.227   1.931   7.494 -0.6851 -0.0544  0.8421
    1MOL   H390  390   0.220   2.154   7.387 -1.5215 -0.0877 -1.2285
    1MOL   H391  391   8.221   2.289   7.697  1.9792  0.5980  1.4702
    1MOL   H392  392   8.215   2.059   7.795 -0.8223 -0.8241 -1.9645
    1MOL   O393  393   0.175   2.556   7.359  0.3955  0.5367 -0.3182
    1MOL   C394  394   0.311   2.591   7.364  0.4752  0.3160 -0.7318
    1MOL   C395  395   0.360   2.635   7.507  0.2716 -0.3701 -0.3009
    1MOL   O396  396   0.351   2.533   7.605 -0.4522  0.3459 -0.1468
    1MOL   C397  397   0.396   2.554   7.726  0.0312  0.2664 -0.0995
    1MOL   O398  398   0.471   2.648   7.754 -0.0742 -0.4030 -0.3027
    1MOL   C399  399   0.362   2.446   7.824  0.4966 -0.3681  0.4961
    1MOL   C400  400   0.323   2.314   7.784  0.2278  0.4965  0.3004
    1MOL   C401  401   0.289   2.215   7.882 -0.3297  0.1352 -0.3306
    1MOL   C402  402   0.290   2.254   8.019  0.4416 -0.2334 -0.5246
    1MOL   C403  403   0.249   2.158   8.122 -0.3523 -0.3128  0.0056
    1MOL   O404  404   0.234   2.191   8.243 -0.2075  0.6195  0.2509
    1MOL   O405  405   0.223   2.035   8.078  0.1668  0.2846 -0.6220
    1MOL   C406  406   0.324   2.381   8.056  0.0015 -0.0463 -0.2218
    1MOL   C407  407   0.358   2.476   7.964  0.2137 -0.6775  0.3546
    1MOL   H408  408   0.371   2.509   7.322  1.6148  1.2463 -0.9462
    1MOL   H409  409   0.328   2.679   7.302  0.3915  1.4335  0.8115
    1MOL   H410  410   0.291   2.713   7.538 -2.5003 -1.7464 -2.7922
    1MOL   H411  411   0.461   2.676   7.501 -0.1648  0.7107 -0.3106
    1MOL   H412  412   0.332   2.285   7.680  0.3036 -1.2349  0.7664
    1MOL   H413  413   0.265   2.113   7.856  0.2358 -0.1849  0.3844
    1MOL   H414  414   0.327   2.397   8.163 -0.8527 -0.9561 -0.0559
    1MOL   H415  415   0.402   2.569   7.996 -1.3271 -0.6631  2.5487
    1MOL   O416  416   0.175   1.934   8.187  0.5381  0.3243  0.0130
    1MOL   C417  417   0.036   1.923   8.178 -0.1658 -0.1878 -0.3124
    1MOL   C418  418   8.233   2.035   8.257  0.7034  0.4855 -0.0480
    1MOL   O419  419   8.195   2.147   8.173  0.3337  0.3717  0.2775
    1MOL   C420  420   8.165   2.270   8.233 -0.3892 -1.2472  0.7686
    1MOL   O421  421   8.140   2.282   0.077  0.5048  0.2462 -0.0370
    1MOL   C422  422   8.193   2.384   8.140  0.1255  0.2607  0.3327
    1MOL   C423  423   8.179   2.521   8.175  0.2142  0.6583 -0.9603
    1MOL   C424  424   8.206   2.632   8.087 -0.0561 -0.4375 -0.5108
    1MOL   C425  425   8.243   2.605   7.953  0.4058  0.0823 -0.3659
    1MOL   C426  426   0.001   2.722   7.864 -0.7504  0.5484  0.1416
    1MOL   O427  427   8.250   2.835   7.897 -0.2015  0.5289  0.4118
    1MOL   O428  428   0.054   2.690   7.745  0.2312  0.3809  0.5207
    1MOL   C429  429   8.252   2.470   7.912  0.4738  0.5028 -0.9532
    1MOL   C430  430   8.231   2.361   8.004 -0.4480  0.3673 -0.3132
    1MOL   H431  431   8.261   1.908   8.082  1.4934  2.4203 -1.6271
    1MOL   H432  432   0.017   1.831   8.233  1.2773  0.3287  1.0939
    1MOL   H433  433   0.022   2.067   0.063  3.0317 -2.0340 -0.8485
    1MOL   H434  434   8.138   1.998   0.022  0.3843 -1.6095 -2.5848
    1MOL   H435  435   8.153   2.542   0.003 -0.1212  1.9570 -1.2974
    1MOL   H436  436   8.193   2.731   8.127  0.0410  0.2410 -2.1570
    1MOL   H437  437   0.010   2.453   7.811  0.0322  0.5963 -1.1181
    1MOL   H438  438   8.253   2.262   7.966  1.8551  1.1915 -1.2106
    1MOL   O439  439   0.093   2.806   7.667 -0.3077 -0.1581 -0.1682
    1MOL   C440  440   8.261   2.843   7.587  0.0565  0.6256  0.7209
    1MOL   C441  441   0.020   2.953   7.493  0.6511 -0.6549 -0.0217
    1MOL   O442  442   0.089   2.899   7.372 -0.2696 -0.6485 -0.4620
    1MOL   C443  443   0.160   2.979   7.304  0.8659  0.0470  0.1870
    1MOL   O444  444   0.192   3.099   7.334  0.2102 -0.6071  0.6288
    1MOL   C445  445   0.203   2.920   7.176 -0.1252 -0.4504 -0.1129
    1MOL   C446  446   0.286   2.994   7.091 -0.2218 -0.1025  0.1437
    1MOL   C447  447   0.306   2.953   6.958  1.1588 -0.9960  0.6327
    1MOL   C448  448   0.246   2.838   6.909  0.1708 -0.1110 -0.0302
    1MOL   C449  449   0.261   2.805   6.764  0.5480  0.4040 -0.1622
    1MOL   O450  450   0.336   2.852   6.675 -0.1136 -0.3755 -0.1708
    1MOL   O451  451   0.170   2.717   6.725  0.0858 -0.3089  0.5782
    1MOL   C452  452   0.163   2.759   6.997  0.3111 -0.2875 -0.0562
    1MOL   C453  453   0.149   2.795   7.131  0.1982 -0.2709 -0.7028
    1MOL   H454  454   8.225   2.747   7.550 -0.3294  0.5936  1.1630
    1MOL   H455  455   8.179   2.863   7.657  1.0685 -2.1062  2.7548
    1MOL   H456  456   0.082   3.035   7.531  0.0958 -0.0340 -0.4584
    1MOL   H457  457   8.201   2.994   7.458 -0.8269 -3.5448  0.4092
    1MOL   H458  458   0.325   3.088   7.129  0.3623 -0.4405  0.3798
    1MOL   H459  459   0.360   3.016   6.889 -1.0265  0.3603  0.1221
    1MOL   H460  460   0.127   2.666   6.956  1.1523 -1.4173  1.7141
    1MOL   H461  461   0.096   2.726   7.195 -0.4510  1.6664  0.9268
    1MOL   H462  462   0.190   2.690   6.636  0.6115 -0.0419  0.6127
    2MOL     O1  463   3.380   3.546   7.700 -0.3518 -0.4596  0.0318
    2MOL     C2  464   3.287   3.536   7.593  0.8628 -0.3196 -0.6823
    2MOL     C3  465   3.211   3.396   7.594  0.5373 -1.0753 -0.6961
    2MOL     O4  466   3.276   3.299   7.507 -0.8901 -0.0669  0.0108
    2MOL     C5  467   3.287   3.319   7.375  0.1854 -0.6517 -0.0230
    2MOL     O6  468   3.228   3.410   7.310 -0.2643 -0.5383  0.4394
    2MOL     C7  469   3.380   3.217   7.306  0.3112 -0.1277  0.5600
    2MOL     C8  470   3.413   3.095   7.364 -0.4151  0.2702 -0.3331
    2MOL     C9  471   3.497   3.004   7.299 -0.0295  1.0467  0.4986
    2MOL    C10  472   3.554   3.037   7.175 -0.3133  0.3850 -0.4628
    2MOL    C11  473   3.648   2.937   7.114  0.0740  0.1120  0.2215
    2MOL    O12  474   3.685   2.833   7.167 -0.2032  0.8176 -0.0783
    2MOL    O13  475   3.701   2.975   7.002 -0.6387  0.5278  0.7277
    2MOL    C14  476   3.529   3.163   7.119  0.1595  0.3865  0.1240
    2MOL    C15  477   3.439   3.251   7.181  0.2611  0.7343  0.6264
    2MOL    H16  478   3.226   3.626   7.601 -0.3641 -1.1447 -0.5823
    2MOL    H17  479   3.335   3.554   7.496  0.6024 -0.4953 -0.8442
    2MOL    H18  480   3.109   3.405   7.558 -1.4550 -2.3597  4.3033
    2MOL    H19  481   3.182   3.366   7.694 -0.3996  1.7660 -0.0570
    2MOL    H20  482   3.363   3.060   7.453  2.8561  0.0232  1.4847
    2MOL    H21  483   3.509   2.909   7.349 -0.4420 -0.0503 -1.4428
    2MOL    H22  484   3.583   3.195   7.031  0.1838  1.0222  0.3632
    2MOL    H23  485   3.424   3.343   7.127 -0.2305  0.2411 -0.0877
    2MOL    H24  486   3.419   3.464   7.726  2.0760  0.7069  0.2357
    2MOL    O25  487   3.827   2.901   6.970  0.7430  1.1154 -0.1330
    2MOL    C26  488   3.935   2.985   7.001  0.4000  0.0079  0.0312
    2MOL    C27  489   4.064   2.906   7.028 -0.1495  0.3876  0.0254
    2MOL    O28  490   4.130   2.877   6.905  0.2907 -0.5854 -0.1672
    2MOL    C29  491   4.261   2.852   6.895  0.0740  0.3317 -0.0097
    2MOL    O30  492   4.334   2.848   6.991 -0.1985  0.3139  0.4807
    2MOL    C31  493   4.307   2.835   6.758 -0.3729 -0.6057  0.1934
    2MOL    C32  494   4.445   2.814   6.743 -0.2958 -0.9429 -0.3015
    2MOL    C33  495   4.504   2.814   6.615 -0.1413 -0.7199 -0.4979
    2MOL    C34  496   4.425   2.839   6.497 -0.6551 -0.3141  0.0753
    2MOL    C35  497   4.489   2.839   6.364  0.3335  0.3328 -0.3342
    2MOL    O36  498   4.606   2.839   6.340  0.4841 -0.1643  0.5010
    2MOL    O37  499   4.390   2.832   6.263  0.3078  0.2857 -0.0038
    2MOL    C38  500   4.289   2.872   6.521 -0.3071  0.3089  0.2243
    2MOL    C39  501   4.225   2.873   6.648 -0.1776  0.4159 -0.1640
    2MOL    H40  502   3.952   3.077   6.944  0.0162  1.0743  1.6105
    2MOL    H41  503   3.912   3.018   7.102 -0.8728  0.2369 -0.3262
    2MOL    H42  504   4.041   2.816   7.084  1.0518  0.2663  0.3467
    2MOL    H43  505   4.134   2.968   7.084  0.2040 -0.5501  0.6322
    2MOL    H44  506   4.505   2.789   6.829  0.1466  0.7680 -0.0910
    2MOL    H45  507   4.608   2.794   6.600  0.2367  1.5104 -0.9919
    2MOL    H46  508   4.237   2.909   6.435  0.9656 -2.1217 -1.6556
    2MOL    H47  509   4.122   2.904   6.658 -0.8470 -1.8174  0.1783
    2MOL    O48  510   4.448   2.859   6.124  0.0284  0.6238  0.5801
    2MOL    C49  511   4.456   2.734   6.057 -0.0335  0.3130 -0.0436
    2MOL    C50  512   4.321   2.696   5.986  0.4821 -0.2821  0.1213
    2MOL    O51  513   4.296   2.778   5.875  0.6315  0.0758  0.1752
    2MOL    C52  514   4.342   2.735   5.756 -0.4147 -0.4289  0.2363
    2MOL    O53  515   4.437   2.658   5.744  0.3501  0.4112 -0.1640
    2MOL    C54  516   4.265   2.786   5.639 -0.0009 -0.0345  0.0076
    2MOL    C55  517   4.157   2.874   5.642  0.7928 -0.4398  0.1175
    2MOL    C56  518   4.079   2.907   5.529  0.2712  0.0726 -0.1688
    2MOL    C57  519   4.128   2.864   5.404 -0.0161  0.2503  0.2194
    2MOL    C58  520   4.067   2.899   5.272 -0.2232  0.6656 -0.4261
    2MOL    O59  521   4.118   2.872   5.167  0.6643 -0.2464  0.1312
    2MOL    O60  522   3.940   2.945   5.290  0.4125 -0.4062  0.4880
    2MOL    C61  523   4.246   2.784   5.398  0.1054  0.0757  0.1429
    2MOL    C62  524   4.315   2.741   5.513  0.2722 -0.0937 -1.2172
    2MOL    H63  525   4.521   2.736   5.969 -0.1132 -0.2476 -0.1175
    2MOL    H64  526   4.498   2.657   6.122 -1.2821  0.6468  1.1795
    2MOL    H65  527   4.253   2.710   6.071 -0.4457  2.0643 -0.9562
    2MOL    H66  528   4.307   2.589   5.974 -0.4245 -0.1404 -0.1283
    2MOL    H67  529   4.127   2.901   5.742 -0.6044  1.1237 -0.7109
    2MOL    H68  530   3.989   2.966   5.541 -0.2678 -0.7576 -0.0910
    2MOL    H69  531   4.292   2.763   5.302  0.9656  0.9476  0.3486
    2MOL    H70  532   4.406   2.684   5.499 -0.3074 -0.9961 -1.3945
    2MOL    O71  533   3.873   2.990   5.159  1.0577 -0.2323  0.5523
    2MOL    C72  534   3.797   2.877   5.120 -0.2571 -0.1495  0.1955
    2MOL    C73  535   3.755   2.874   4.975 -0.7973  0.1245  0.1955
    2MOL    O74  536   3.725   2.749   4.919 -0.3505 -0.2481 -0.4625
    2MOL    C75  537   3.619   2.680   4.954  0.1037  0.4105 -0.6548
    2MOL    O76  538   3.537   2.721   5.036  0.2221  0.4362 -0.5832
    2MOL    C77  539   3.622   2.538   4.894 -0.5067  0.1619 -0.4803
    2MOL    C78  540   3.505   2.459   4.921  0.4945 -0.3714  0.6366
    2MOL    C79  541   3.508   2.328   4.876 -0.3859  0.1056  0.2948
    2MOL    C80  542   3.621   2.265   4.816  0.5536  0.3969  0.2587
    2MOL    C81  543   3.617   2.121   4.763  0.6755 -0.1156  0.7123
    2MOL    O82  544   3.511   2.059   4.759 -0.2182  1.0507  0.3655
    2MOL    O83  545   3.725   2.087   4.696  0.1172  0.5219  0.1904
    2MOL    C84  546   3.735   2.345   4.801 -0.5767  1.1615 -0.2767
    2MOL    C85  547   3.738   2.479   4.836  0.4444 -0.4706 -0.0651
    2MOL    H86  548   3.862   2.790   5.134  0.5586  0.2936 -0.7393
    2MOL    H87  549   3.723   2.860   5.198  3.1029 -2.1725  3.1161
    2MOL    H88  550   3.832   2.906   4.905 -0.8711 -1.1710 -0.4889
    2MOL    H89  551   3.666   2.936   4.968  0.3130  1.6037 -1.3388
    2MOL    H90  552   3.413   2.496   4.965  0.2120 -1.8916  1.3572
    2MOL    H91  553   3.420   2.268   4.895  1.1318 -2.0435  0.7582
    2MOL    H92  554   3.825   2.311   4.751 -0.7823  0.6664 -0.3181
    2MOL    H93  555   3.825   2.544   4.827 -1.5461  2.3394  0.2384
    2MOL    O94  556   3.705   1.961   4.613  0.2468  0.0366 -0.0866
    2MOL    C95  557   3.696   2.002   4.480  0.5721  0.0714 -0.3393
    2MOL    C96  558   3.839   2.015   4.420  0.6638 -0.3941  0.2799
    2MOL    O97  559   3.892   2.130   4.470  0.6892 -0.1675  0.1535
    2MOL    C98  560   4.022   2.135   4.508 -0.1209 -0.0214 -0.9526
    2MOL    O99  561   4.107   2.048   4.498  0.1994  0.4930  0.1367
    2MOL   C100  562   4.047   2.263   4.579  0.1258  0.1076 -0.0608
    2MOL   C101  563   3.973   2.381   4.546 -0.1756 -0.0264  0.3526
    2MOL   C102  564   4.009   2.504   4.608  0.3634  0.0805  0.4855
    2MOL   C103  565   4.110   2.510   4.710 -0.2433  0.6058 -0.0031
    2MOL   C104  566   4.129   2.633   4.782  0.5392  0.1580 -0.1121
    2MOL   O105  567   4.220   2.635   4.869  0.1741 -0.2854  0.2432
    2MOL   O106  568   4.043   2.732   4.750  0.0797  0.5513  0.5507
    2MOL   C107  569   4.176   2.389   4.744 -0.4026 -0.5964  0.4519
    2MOL   C108  570   4.147   2.269   4.678  0.0140  0.2968 -0.0735
    2MOL   H109  571   3.654   1.919   4.424  1.4680 -1.0219  0.5776
    2MOL   H110  572   3.635   2.092   4.468 -2.3498 -1.5369  1.6622
    2MOL   H111  573   3.820   2.012   4.313 -6.0651 -1.2479  1.2533
    2MOL   H112  574   3.899   1.926   4.439  0.4464 -1.1516 -2.3614
    2MOL   H113  575   3.909   2.381   4.459  0.0021 -2.0440  0.1970
    2MOL   H114  576   3.952   2.588   4.572 -1.2283 -0.6618  1.2020
    2MOL   H115  577   4.250   2.390   4.822  1.9909  2.9057 -1.7496
    2MOL   H116  578   4.198   2.181   4.712 -1.9978 -0.2147  1.7150
    2MOL   O117  579   4.064   2.848   4.838  0.2887  0.0492 -0.4263
    2MOL   C118  580   4.132   2.954   4.766 -0.3460  0.2494  0.8277
    2MOL   C119  581   4.136   3.075   4.855 -0.1413 -0.3115  0.6460
    2MOL   O120  582   4.243   3.062   4.954 -0.3781 -0.3011  0.3307
    2MOL   C121  583   4.257   3.159   5.042 -0.0188 -0.4044  0.3158
    2MOL   O122  584   4.205   3.270   5.042 -0.4455  0.0808  0.3561
    2MOL   C123  585   4.357   3.124   5.138 -0.5833  0.0662  0.5101
    2MOL   C124  586   4.398   3.216   5.231  0.4872 -0.2997 -1.1151
    2MOL   C125  587   4.511   3.194   5.316 -0.0289  0.9509 -0.8696
    2MOL   C126  588   4.570   3.067   5.320 -0.5760  0.8413 -0.2346
    2MOL   C127  589   4.699   3.035   5.393  0.8602  0.2751  0.4732
    2MOL   O128  590   4.763   2.928   5.388  0.4548  0.3018 -0.1128
    2MOL   O129  591   4.729   3.125   5.475  0.6375 -0.2117  0.1247
    2MOL   C130  592   4.517   2.970   5.237  0.1116  0.1085 -0.1056
    2MOL   C131  593   4.423   2.995   5.138 -0.1500  0.2778  0.2477
    2MOL   H132  594   4.231   2.931   4.725 -0.3735  0.4926  0.6243
    2MOL   H133  595   4.069   2.984   4.683  1.0781 -0.0633 -0.3884
    2MOL   H134  596   4.051   3.079   4.922  0.2499  2.5532  1.0499
    2MOL   H135  597   4.149   3.167   4.797  1.4882 -1.5457 -1.0202
    2MOL   H136  598   4.351   3.313   5.242  0.1712 -0.6320  0.5724
    2MOL   H137  599   4.555   3.266   5.384 -1.7602  0.1073  1.2345
    2MOL   H138  600   4.567   2.874   5.226  0.4449  0.3358 -0.5901
    2MOL   H139  601   4.394   2.921   5.065 -0.9530  1.7090 -0.9122
    2MOL   O140  602   4.851   3.100   5.560 -0.2725 -0.0350  0.0622
    2MOL   C141  603   4.951   3.205   5.534 -0.3521  0.4995  0.1785
    2MOL   C142  604   4.893   3.340   5.575  0.0517  0.2986 -0.0951
    2MOL   O143  605   4.990   3.434   5.534 -0.0121  0.3593  0.2378
    2MOL   C144  606   4.952   3.556   5.510 -0.7031  0.1574  0.0412
    2MOL   O145  607   4.851   3.608   5.557  0.5005  0.3187  0.0717
    2MOL   C146  608   5.047   3.637   5.427 -0.0683  0.6279  0.3011
    2MOL   C147  609   5.031   3.774   5.418  0.3434  0.5447  0.4065
    2MOL   C148  610   5.132   3.849   5.349  0.0156  0.2526 -0.0381
    2MOL   C149  611   5.231   3.780   5.271 -1.2725 -0.3505  0.0453
    2MOL   C150  612   5.335   3.850   5.181 -0.7784  0.0032  0.1554
    2MOL   O151  613   5.429   3.790   5.121  0.4175  0.4338  0.2738
    2MOL   O152  614   5.313   3.977   5.164 -0.5801 -0.1503  0.2077
    2MOL   C153  615   5.232   3.641   5.270 -0.0925 -0.1355 -0.1054
    2MOL   C154  616   5.147   3.570   5.354  0.0682 -0.1573 -0.2061
    2MOL   H155  617   5.045   3.190   5.586 -0.5244 -1.6443 -0.0812
    2MOL   H156  618   4.973   3.211   5.427  0.1281  1.7072  0.3342
    2MOL   H157  619   4.883   3.337   5.684 -2.9694 -1.7604 -0.3680
    2MOL   H158  620   4.796   3.366   5.531 -0.7365  0.5064  1.7226
    2MOL   H159  621   4.945   3.823   5.460  1.1799  0.6430  2.0787
    2MOL   H160  622   5.125   3.956   5.336 -0.7299  0.4650  1.9540
    2MOL   H161  623   5.295   3.588   5.200 -1.3475 -1.4099 -0.2902
    2MOL   H162  624   5.157   3.463   5.346  0.6016 -0.2783  1.7776
    2MOL   O163  625   5.415   4.050   5.076 -0.0484 -0.0732  0.3868
    2MOL   C164  626   5.513   4.096   5.164  0.8212 -0.1559 -0.1225
    2MOL   C165  627   5.594   4.215   5.109 -0.3124 -0.0845 -0.0216
    2MOL   O166  628   5.504   4.326   5.094 -0.0688  0.1362 -0.4820
    2MOL   C167  629   5.468   4.402   5.202 -0.0680 -0.5739  0.6770
    2MOL   O168  630   5.532   4.413   5.305  0.5118 -0.6142 -0.1925
    2MOL   C169  631   5.353   4.488   5.173  0.6481 -0.6201 -0.0423
    2MOL   C170  632   5.323   4.530   5.043 -0.1172  0.0120 -0.3925
    2MOL   C171  633   5.225   4.626   5.016  1.0206  0.2938  0.3616
    2MOL   C172  634   5.139   4.681   5.112  0.1003  0.0884 -0.5063
    2MOL   C173  635   5.020   4.773   5.083 -0.3422  0.4275 -0.6860
    2MOL   O174  636   4.946   4.821   5.171  0.2213 -0.3490  0.1193
    2MOL   O175  637   5.000   4.788   4.947 -0.3965 -0.1828 -0.7127
    2MOL   C176  638   5.163   4.638   5.245  0.7260 -0.2846 -0.8566
    2MOL   C177  639   5.266   4.544   5.273  0.1793  0.8149  0.2590
    2MOL   H178  640   5.468   4.131   5.257 -0.2185  2.6106 -1.5950
    2MOL   H179  641   5.586   4.022   5.194  1.0362  0.1561  0.1403
    2MOL   H180  642   5.659   4.185   5.026 -0.1499  2.8049 -0.9990
    2MOL   H181  643   5.671   4.240   5.182  0.3193 -0.5019 -0.5388
    2MOL   H182  644   5.383   4.492   4.962  0.4921  2.3970 -1.1054
    2MOL   H183  645   5.201   4.644   4.913  1.0029 -0.1011  0.2969
    2MOL   H184  646   5.113   4.672   5.334  1.3934 -3.4354  0.8043
    2MOL   H185  647   5.294   4.512   5.373  0.7945 -0.2645 -0.2484
    2MOL   O186  648   4.883   4.872   4.908 -0.3826 -0.8317  0.4964
    2MOL   C187  649   4.773   4.788   4.875 -0.1016  0.0393  0.0393
    2MOL   C188  650   4.788   4.721   4.733 -0.4733 -0.3654  0.7422
    2MOL   O189  651   4.883   4.612   4.740  0.3884  0.3210 -0.5214
    2MOL   C190  652   4.842   4.492   4.766 -0.1653  0.1699 -0.2897
    2MOL   O191  653   4.722   4.461   4.788  0.2318  0.0106  0.0658
    2MOL   C192  654   4.956   4.387   4.769  0.2224  0.1428  0.0407
    2MOL   C193  655   4.919   4.260   4.796 -0.0980  0.4660  0.2958
    2MOL   C194  656   5.015   4.155   4.804 -0.2387  0.4651 -1.1037
    2MOL   C195  657   5.148   4.186   4.784  0.1838  0.5153  0.2711
    2MOL   C196  658   5.253   4.090   4.799  0.4746  1.0548  0.3047
    2MOL   O197  659   5.370   4.109   4.763 -0.0967 -0.7343 -0.2660
    2MOL   O198  660   5.213   3.984   4.871 -0.1569  0.5996  0.0057
    2MOL   C199  661   5.188   4.316   4.745  0.1312 -0.1174  0.1081
    2MOL   C200  662   5.091   4.411   4.747 -0.0352 -0.8414 -0.9980
    2MOL   H201  663   4.741   4.713   4.947 -1.4017  0.6606  0.1186
    2MOL   H202  664   4.690   4.858   4.880 -1.1101 -1.2508  2.0045
    2MOL   H203  665   4.830   4.789   4.658  0.1374 -1.9606 -0.3767
    2MOL   H204  666   4.689   4.683   4.707 -0.1870 -0.8797  0.3979
    2MOL   H205  667   4.818   4.227   4.815  0.6109 -1.1003  1.5456
    2MOL   H206  668   4.978   4.058   4.835 -0.0491  0.7951  0.1810
    2MOL   H207  669   5.286   4.361   4.741  1.5467 -3.0432  0.3502
    2MOL   H208  670   5.127   4.511   4.726  0.0966 -1.0337 -1.6805
    2MOL   O209  671   5.315   3.866   4.870  0.2164  0.0683  0.1699
    2MOL   C210  672   5.272   3.771   4.782 -0.2207  0.5244  0.0705
    2MOL   C211  673   5.213   3.655   4.870  0.3516  0.4933  0.3701
    2MOL   O212  674   5.139   3.561   4.788  0.1505 -0.5322 -0.1173
    2MOL   C213  675   5.068   3.470   4.854 -0.1311  0.7132  0.1885
    2MOL   O214  676   5.068   3.434   4.972 -0.0534 -0.3930  0.4306
    2MOL   C215  677   4.965   3.411   4.770 -0.2046  0.0272  0.2953
    2MOL   C216  678   4.936   3.277   4.791  0.0953  0.4031  0.2610
    2MOL   C217  679   4.842   3.213   4.704 -0.6906  0.0152  0.1893
    2MOL   C218  680   4.774   3.289   4.604 -0.1470  0.1447  0.0816
    2MOL   C219  681   4.688   3.217   4.508  0.3112  0.0123 -0.3205
    2MOL   O220  682   4.670   3.098   4.513 -0.1739  0.1434  0.3952
    2MOL   O221  683   4.633   3.288   4.417 -0.3767 -0.1066  0.6976
    2MOL   C222  684   4.809   3.427   4.583 -0.5673 -0.4475 -0.4120
    2MOL   C223  685   4.907   3.482   4.666 -0.3011  0.2733  0.5872
    2MOL   H224  686   5.198   3.810   4.713 -1.8543 -0.5283  1.1769
    2MOL   H225  687   5.354   3.728   4.725  0.4430 -0.3176  1.6214
    2MOL   H226  688   5.136   3.690   4.940  0.5543  0.0090  0.8377
    2MOL   H227  689   5.286   3.599   4.929 -0.6511 -2.6995 -1.3517
    2MOL   H228  690   4.969   3.225   4.879 -0.4230 -0.9627 -0.3277
    2MOL   H229  691   4.819   3.107   4.713 -0.2235 -0.5239 -4.1112
    2MOL   H230  692   4.760   3.488   4.509  0.8661 -1.8163 -2.5283
    2MOL   H231  693   4.928   3.587   4.652  0.9611 -0.1349 -0.7644
    2MOL   O232  694   4.549   3.199   4.321  0.4287 -0.0535 -0.4550
    2MOL   C233  695   4.621   3.162   4.202  0.2553 -0.2497 -0.2800
    2MOL   C234  696   4.628   3.293   4.114 -0.2845  0.4971  0.3325
    2MOL   O235  697   4.509   3.303   4.033 -0.7018 -0.0805  0.3122
    2MOL   C236  698   4.402   3.371   4.079  0.5943 -0.1814 -0.5380
    2MOL   O237  699   4.399   3.416   4.192  0.2373 -0.1914  0.1695
    2MOL   C238  700   4.292   3.381   3.980 -0.2113  0.7105 -0.2034
    2MOL   C239  701   4.160   3.422   4.030  0.1557 -0.1076  0.2378
    2MOL   C240  702   4.053   3.417   3.938  0.4879  0.3466 -0.4820
    2MOL   C241  703   4.064   3.377   3.804  0.2594  0.2249 -0.6235
    2MOL   C242  704   3.952   3.380   3.709  0.2302  0.5283 -0.7853
    2MOL   O243  705   3.843   3.444   3.719  0.3669 -0.7711  0.2498
    2MOL   O244  706   3.971   3.301   3.600 -0.1880 -0.2920  0.7867
    2MOL   C245  707   4.194   3.340   3.764  0.0008  0.1635  0.2068
    2MOL   C246  708   4.309   3.335   3.844 -0.2093  0.0117 -0.2755
    2MOL   H247  709   4.718   3.118   4.221 -0.1043 -0.2170  1.8374
    2MOL   H248  710   4.576   3.085   4.139  1.5209 -0.2062 -1.2378
    2MOL   H249  711   4.718   3.279   4.054 -0.4952  3.9965 -0.9462
    2MOL   H250  712   4.636   3.379   4.181  0.6127  0.6926 -0.0241
    2MOL   H251  713   4.153   3.467   4.128 -0.0101 -0.5246  0.4201
    2MOL   H252  714   3.955   3.447   3.972  0.6554  0.0281  0.2957
    2MOL   H253  715   4.198   3.298   3.665  1.2614 -1.1123  0.7843
    2MOL   H254  716   4.405   3.301   3.806  0.9301  2.2929  0.4745
    2MOL   O255  717   3.901   3.352   3.474  0.0814 -0.0173  0.3043
    2MOL   C256  718   4.006   3.381   3.387  0.2927 -0.5306 -0.4598
    2MOL   C257  719   3.964   3.372   3.241  0.1412  0.4720 -0.2304
    2MOL   O258  720   3.901   3.484   3.196  0.0068  0.0216 -0.7795
    2MOL   C259  721   3.964   3.601   3.177 -0.1382  0.0667 -0.9323
    2MOL   O260  722   4.087   3.616   3.189 -0.1222 -0.0064 -0.3021
    2MOL   C261  723   3.871   3.717   3.140  0.0727  0.3302  0.2123
    2MOL   C262  724   3.729   3.694   3.123 -0.4989  0.2551 -0.3022
    2MOL   C263  725   3.646   3.808   3.104 -0.5108 -0.2678  0.2724
    2MOL   C264  726   3.702   3.939   3.089 -0.5888 -0.3340 -0.5624
    2MOL   C265  727   3.615   4.054   3.050  0.6649 -0.0501 -0.5913
    2MOL   O266  728   3.493   4.050   3.033 -0.0511  0.1464  0.2329
    2MOL   O267  729   3.682   4.168   3.035 -0.0461  0.1918 -0.4822
    2MOL   C268  730   3.840   3.959   3.111 -0.3431 -0.0840 -0.1064
    2MOL   C269  731   3.918   3.844   3.120 -0.2076 -0.2520  0.6535
    2MOL   H270  732   4.050   3.481   3.400  0.6800 -0.6489 -0.8435
    2MOL   H271  733   4.086   3.308   3.394 -0.5267 -1.4170 -0.3386
    2MOL   H272  734   3.904   3.288   3.206 -1.2831  1.5135 -0.3926
    2MOL   H273  735   4.054   3.368   3.179 -0.9090 -0.0051 -1.7680
    2MOL   H274  736   3.688   3.595   3.133  0.1815 -0.2281 -1.9751
    2MOL   H275  737   3.539   3.799   3.087 -0.4320  0.3899 -0.5626
    2MOL   H276  738   3.885   4.056   3.122 -0.1725 -0.3449  1.5510
    2MOL   H277  739   4.025   3.854   3.126 -0.1824  0.8489 -1.1634
    2MOL   O278  740   3.593   4.274   2.978 -0.1045 -0.3012  0.3678
    2MOL   C279  741   3.523   4.347   3.076 -0.5978 -0.9233  0.0140
    2MOL   C280  742   3.598   4.444   3.170  0.2055 -0.0676  0.4846
    2MOL   O281  743   3.685   4.379   3.262 -0.3859 -0.3162 -0.3584
    2MOL   C282  744   3.694   4.418   3.393 -0.2063 -0.3905  0.6272
    2MOL   O283  745   3.613   4.496   3.445  0.1241 -0.5870  0.2121
    2MOL   C284  746   3.813   4.364   3.459  0.3784 -0.2590  0.8308
    2MOL   C285  747   3.876   4.253   3.399  0.4520 -0.3627 -0.4019
    2MOL   C286  748   3.977   4.188   3.474  0.0413 -0.1986 -0.1523
    2MOL   C287  749   4.019   4.234   3.604 -0.1197  0.0238 -0.9628
    2MOL   C288  750   4.130   4.162   3.669  0.1230  0.0568 -0.3096
    2MOL   O289  751   4.153   4.041   3.643  0.7745  0.0958 -0.2565
    2MOL   O290  752   4.203   4.233   3.756 -0.0769  0.1132 -0.0534
    2MOL   C291  753   3.955   4.348   3.662 -0.3424 -0.1331  0.7698
    2MOL   C292  754   3.852   4.412   3.587 -0.2774  0.7076 -0.0782
    2MOL   H293  755   3.435   4.394   3.033  0.0177  1.7658  1.5939
    2MOL   H294  756   3.472   4.273   3.138 -0.6463  1.2033  2.5646
    2MOL   H295  757   3.522   4.506   3.218 -0.5970 -0.1816 -0.6401
    2MOL   H296  758   3.653   4.509   3.102 -1.9343  1.0048 -0.2461
    2MOL   H297  759   3.856   4.218   3.299  0.4350 -1.8288  0.1133
    2MOL   H298  760   4.020   4.102   3.426  0.8425 -0.4574  1.0225
    2MOL   H299  761   3.975   4.381   3.762  0.6786 -2.0798  1.2420
    2MOL   H300  762   3.798   4.486   3.644 -1.0657  0.9120 -1.0903
    2MOL   O301  763   4.294   4.145   3.830 -0.1624 -0.1230  0.7316
    2MOL   C302  764   4.421   4.150   3.771  0.5032 -0.1047  0.3876
    2MOL   C303  765   4.505   4.034   3.812 -0.0834 -0.0639 -0.4094
    2MOL   O304  766   4.646   4.054   3.821 -0.0305 -0.1394 -0.6010
    2MOL   C305  767   4.728   4.040   3.711  0.0521 -0.3794  0.2912
    2MOL   O306  768   4.696   3.998   3.601 -0.0445 -0.0007 -0.2117
    2MOL   C307  769   4.869   4.082   3.731 -0.4633 -0.2637 -0.1876
    2MOL   C308  770   4.946   4.143   3.632  0.1184 -0.2111 -0.3808
    2MOL   C309  771   5.079   4.183   3.660 -0.1405 -0.1770 -0.9957
    2MOL   C310  772   5.141   4.136   3.776 -0.1069 -0.4021  0.9349
    2MOL   C311  773   5.286   4.165   3.785 -1.1012 -0.0540 -0.5174
    2MOL   O312  774   5.350   4.132   3.884 -0.4296  0.5705  0.0181
    2MOL   O313  775   5.348   4.213   3.668 -0.0673  0.1697 -0.5905
    2MOL   C314  776   5.066   4.068   3.874 -0.4940 -0.1930  0.3725
    2MOL   C315  777   4.931   4.045   3.849 -0.0473 -0.1908 -0.4940
    2MOL   H316  778   4.418   4.147   3.662  0.6365  0.4705  0.3681
    2MOL   H317  779   4.465   4.247   3.793 -1.0204  0.2497  1.9683
    2MOL   H318  780   4.486   3.955   3.738 -1.2404 -0.9703  0.8273
    2MOL   H319  781   4.478   3.992   3.909  2.8960  1.1128  0.9672
    2MOL   H320  782   4.904   4.173   3.537  0.3585  1.0148 -0.1124
    2MOL   H321  783   5.134   4.234   3.582 -0.5362  1.3603 -0.2875
    2MOL   H322  784   5.113   4.052   3.970 -0.0688 -1.7184 -0.0740
    2MOL   H323  785   4.877   3.997   3.929 -0.2641  1.0476  0.1126
    2MOL   O324  786   5.500   4.198   3.676  0.2450 -0.0437 -0.6451
    2MOL   C325  787   5.535   4.088   3.591 -0.6005  0.8540  0.5715
    2MOL   C326  788   5.691   4.078   3.559  0.3837 -0.4389  0.0254
    2MOL   O327  789   5.733   4.192   3.489  0.0695  1.0205  0.0613
    2MOL   C328  790   5.862   4.242   3.506  0.0044  0.7549 -0.6694
    2MOL   O329  791   5.943   4.200   3.588  0.2311  0.2070 -0.5245
    2MOL   C330  792   5.894   4.355   3.416  0.3968 -0.1850 -0.3958
    2MOL   C331  793   5.999   4.441   3.444  0.7560 -0.3520 -0.2787
    2MOL   C332  794   6.027   4.556   3.361 -0.4448 -1.0791  0.0383
    2MOL   C333  795   5.949   4.576   3.244 -0.3281 -0.2850  0.1329
    2MOL   C334  796   5.963   4.696   3.163 -0.0884 -0.1172  0.0105
    2MOL   O335  797   6.073   4.758   3.158 -0.3372  0.0825  0.2017
    2MOL   O336  798   5.860   4.738   3.097  0.0344 -0.4192 -0.5652
    2MOL   C337  799   5.844   4.484   3.221  0.2346 -0.8485 -0.2451
    2MOL   C338  800   5.815   4.377   3.301  0.2757 -0.3393 -0.8690
    2MOL   H339  801   5.496   3.999   3.640 -0.7672 -0.1021 -1.2452
    2MOL   H340  802   5.481   4.094   3.497 -1.2705 -0.7753  0.8391
    2MOL   H341  803   5.712   3.989   3.500  0.0300 -0.2094 -0.4520
    2MOL   H342  804   5.737   4.065   3.657  2.2359  1.6897 -0.5078
    2MOL   H343  805   6.056   4.424   3.534  1.6653 -0.0296 -0.7933
    2MOL   H344  806   6.103   4.626   3.395  0.9315 -3.4357  2.0143
    2MOL   H345  807   5.786   4.482   3.130 -0.9141 -2.2966  0.5045
    2MOL   H346  808   5.728   4.315   3.287 -1.3703  2.0417 -1.5235
    2MOL   O347  809   5.882   4.868   3.039 -0.4312  0.2101  0.0074
    2MOL   C348  810   5.915   4.846   2.902 -0.3145 -0.3573  0.4864
    2MOL   C349  811   5.899   4.982   2.826 -0.4136 -0.1651  0.0897
    2MOL   O350  812   6.006   5.066   2.866  0.0602  0.1892  0.3638
    2MOL   C351  813   6.110   5.097   2.786  0.0179  0.5641  0.2087
    2MOL   O352  814   6.110   5.074   2.665  0.1745 -0.4299  0.3278
    2MOL   C353  815   6.207   5.188   2.853 -0.3375  0.0942  0.1154
    2MOL   C354  816   6.324   5.240   2.789 -1.1570 -0.0169 -0.1577
    2MOL   C355  817   6.422   5.321   2.857  0.1012  0.5835 -0.6555
    2MOL   C356  818   6.409   5.334   3.000 -0.4134 -0.2094  0.5567
    2MOL   C357  819   6.507   5.411   3.077 -0.4317 -0.4160 -1.0888
    2MOL   O358  820   6.477   5.474   3.182  0.5506 -0.5414  0.3803
    2MOL   O359  821   6.630   5.399   3.024 -0.4369  0.2524  0.3888
    2MOL   C360  822   6.293   5.285   3.059 -0.3981  0.3470 -0.0736
    2MOL   C361  823   6.193   5.216   2.995  0.3692 -0.4118  0.8306
    2MOL   H362  824   6.016   4.811   2.883  0.3345  0.6594  2.0142
    2MOL   H363  825   5.849   4.771   2.859  0.2327 -0.3953 -0.3084
    2MOL   H364  826   5.804   5.023   2.859 -1.6273 -0.6969 -2.6043
    2MOL   H365  827   5.896   4.965   2.718  1.4503 -0.6947  0.1094
    2MOL   H366  828   6.338   5.221   2.683 -0.7305 -1.6911  0.1919
    2MOL   H367  829   6.511   5.365   2.816  1.0515  3.0549  3.6900
    2MOL   H368  830   6.297   5.286   3.167 -0.8513  1.2119 -0.0652
    2MOL   H369  831   6.110   5.172   3.048  0.3050  0.8276  1.7671
    2MOL   O370  832   6.739   5.427   3.125 -0.0592 -0.0996  0.4431
    2MOL   C371  833   6.795   5.556   3.092  0.5528  0.5809 -0.2046
    2MOL   C372  834   6.894   5.531   2.982  0.0803 -0.0751 -0.5869
    2MOL   O373  835   6.951   5.652   2.925  0.0830  0.1003 -0.7255
    2MOL   C374  836   7.043   5.724   2.996  0.3953 -0.0810 -0.5930
    2MOL   O375  837   7.051   5.716   3.115  0.3920  0.0570  0.1195
    2MOL   C376  838   7.131   5.804   2.911  0.0773  0.1304 -0.3827
    2MOL   C377  839   7.228   5.893   2.963  0.3348  0.1537  0.2205
    2MOL   C378  840   7.317   5.970   2.881  0.4243 -0.4299  0.8161
    2MOL   C379  841   7.285   5.972   2.743 -0.2394  0.2025 -0.5639
    2MOL   C380  842   7.348   6.073   2.652  0.0292  0.0331 -0.6996
    2MOL   O381  843   7.358   6.053   2.529 -0.2640  0.5236 -0.1468
    2MOL   O382  844   7.392   6.191   2.706  0.0183  0.1179 -0.6426
    2MOL   C383  845   7.187   5.885   2.692  0.5835 -0.9083  0.4948
    2MOL   C384  846   7.111   5.799   2.771  0.6814  0.2071 -0.0205
    2MOL   H385  847   6.708   5.612   3.057 -1.4949 -0.3765  3.1368
    2MOL   H386  848   6.831   5.590   3.189 -0.2821 -0.7874  0.6141
    2MOL   H387  849   6.840   5.485   2.899 -0.3262  0.9562 -0.9016
    2MOL   H388  850   6.972   5.467   3.022 -1.3108 -1.4160  0.0492
    2MOL   H389  851   7.242   5.903   3.070 -0.7515  1.7826  0.2386
    2MOL   H390  852   7.393   6.037   2.918 -0.5575  1.3452 -0.3508
    2MOL   H391  853   7.162   5.888   2.587  0.6190 -0.2934  0.4980
    2MOL   H392  854   7.032   5.740   2.727  0.4664  0.8948 -0.5521
    2MOL   O393  855   7.452   6.286   2.609 -0.1867  0.0633  0.3616
    2MOL   C394  856   7.577   6.316   2.658 -1.0434 -0.3262 -0.4760
    2MOL   C395  857   7.568   6.440   2.748  0.0901  0.0659 -0.6843
    2MOL   O396  858   7.493   6.404   2.863  0.8389 -0.7177  0.0186
    2MOL   C397  859   7.536   6.329   2.966 -0.3215  0.3789 -0.3485
    2MOL   O398  860   7.659   6.298   2.982 -0.3914  0.1714 -0.1748
    2MOL   C399  861   7.431   6.276   3.052  0.4506  0.0754 -0.5936
    2MOL   C400  862   7.295   6.290   3.024  0.8419  0.1456 -0.5873
    2MOL   C401  863   7.198   6.225   3.101 -0.0911 -0.7979  0.3190
    2MOL   C402  864   7.233   6.152   3.210  0.7881  0.1018 -0.1436
    2MOL   C403  865   7.135   6.080   3.301  0.7990  0.4194 -0.1630
    2MOL   O404  866   7.169   5.990   3.379  0.1888  0.1976  0.6387
    2MOL   O405  867   7.005   6.130   3.292  0.1304 -0.8737  0.2946
    2MOL   C406  868   7.368   6.146   3.249  0.3251  0.1353 -0.5485
    2MOL   C407  869   7.469   6.204   3.166 -0.0134 -0.1485  0.3800
    2MOL   H408  870   7.617   6.230   2.713 -2.8091  0.0042  1.3975
    2MOL   H409  871   7.649   6.325   2.577  0.0010 -3.6262  0.0017
    2MOL   H410  872   7.523   6.523   2.694 -0.0473  0.7568  0.4681
    2MOL   H411  873   7.662   6.479   2.788 -0.1412  0.5056 -0.5643
    2MOL   H412  874   7.259   6.346   2.939 -0.2402 -0.6341 -0.6425
    2MOL   H413  875   7.094   6.245   3.077  0.2662 -0.7478 -1.2813
    2MOL   H414  876   7.408   6.098   3.337  0.6336  1.3230 -0.0313
    2MOL   H415  877   7.573   6.196   3.194  0.2052  0.8260 -0.1135
    2MOL   O416  878   6.911   6.064   3.382 -0.3463  0.1793 -0.2955
    2MOL   C417  879   6.832   5.969   3.314  0.8934  0.0807  0.2311
    2MOL   C418  880   6.743   6.029   3.200  0.1088  0.2431 -0.6749
    2MOL   O419  881   6.809   6.027   3.072  1.1173 -0.6642  0.6709
    2MOL   C420  882   6.841   6.136   3.020  0.7894  0.1169 -0.4405
    2MOL   O421  883   6.858   6.240   3.082  0.3101 -0.0204  0.0772
    2MOL   C422  884   6.862   6.109   2.877  0.7849 -0.2400  0.5343
    2MOL   C423  885   6.843   5.977   2.816 -0.0841 -0.2293  0.3393
    2MOL   C424  886   6.842   5.953   2.675  0.7708 -0.2487  0.5153
    2MOL   C425  887   6.891   6.061   2.595  0.0424  0.0998  0.2853
    2MOL   C426  888   6.898   6.038   2.447 -0.2823 -0.2294 -0.4244
    2MOL   O427  889   6.889   5.926   2.395  0.0499 -0.0789  0.4531
    2MOL   O428  890   6.914   6.153   2.371 -0.5297 -0.0394 -0.1793
    2MOL   C429  891   6.921   6.184   2.650  0.2022 -0.0054  0.8195
    2MOL   C430  892   6.888   6.212   2.787 -0.0491  0.3928 -0.5522
    2MOL   H431  893   6.876   5.873   3.283  1.2907 -0.1803  1.5950
    2MOL   H432  894   6.758   5.953   3.391 -0.1257 -0.0666 -0.7594
    2MOL   H433  895   6.716   6.130   3.230  2.1503  0.5201  0.3750
    2MOL   H434  896   6.650   5.973   3.197 -0.1200  0.1708  3.7008
    2MOL   H435  897   6.817   5.891   2.876 -0.9982  1.3491  2.2770
    2MOL   H436  898   6.814   5.857   2.634  1.5569 -0.6966  1.0230
    2MOL   H437  899   6.966   6.264   2.593  1.6331  1.2534  3.5935
    2MOL   H438  900   6.913   6.309   2.827  1.7670 -0.0939 -0.4444
    2MOL   O439  901   6.903   6.130   2.233  0.1931 -0.4256  0.0172
    2MOL   C440  902   7.035   6.119   2.178 -0.8296 -0.3710 -0.6460
    2MOL   C441  903   7.042   6.045   2.043  1.0364 -0.0934 -0.2135
    2MOL   O442  904   6.999   6.120   1.929  0.4990  0.1134  0.2599
    2MOL   C443  905   7.089   6.177   1.855  0.4086  0.2932 -0.0627
    2MOL   O444  906   7.206   6.164   1.869  0.2700 -0.7401 -0.1069
    2MOL   C445  907   7.021   6.258   1.756  0.4053 -0.0887 -0.3038
    2MOL   C446  908   6.895   6.241   1.703 -0.4940 -0.2604  0.0733
    2MOL   C447  909   6.846   6.324   1.599 -0.1456  0.4897 -0.1327
    2MOL   C448  910   6.929   6.417   1.543  0.0074  0.3254 -0.6364
    2MOL   C449  911   6.882   6.506   1.432  0.8589  0.5177  0.2706
    2MOL   O450  912   6.772   6.491   1.383 -0.3009 -0.5189 -0.1495
    2MOL   O451  913   6.970   6.592   1.382  0.0790  0.1700 -0.5956
    2MOL   C452  914   7.057   6.437   1.593 -0.5806  0.4282 -0.3206
    2MOL   C453  915   7.106   6.363   1.704  0.0133  0.8784  0.3143
    2MOL   H454  916   7.092   6.212   2.182  0.6078 -1.2736  0.7647
    2MOL   H455  917   7.090   6.058   2.250 -0.6514 -1.3668 -1.6263
    2MOL   H456  918   6.978   5.957   2.051 -0.6742  1.2020  0.6458
    2MOL   H457  919   7.137   5.996   2.021 -0.2905 -2.5940 -0.6248
    2MOL   H458  920   6.826   6.168   1.742 -1.1042  1.0781  1.5401
    2MOL   H459  921   6.765   6.291   1.537  1.0253 -0.7137 -1.0618
    2MOL   H460  922   7.117   6.519   1.558 -1.1532  1.1875  0.4702
    2MOL   H461  923   7.206   6.394   1.731  1.1069 -1.0163 -1.3617
    2MOL   H462  924   6.946   6.625   1.297 -1.5086  1.6742  0.4010
    3MOL     O1  925   0.286   0.168   6.192 -0.4523  0.1641 -0.7939
    3MOL     C2  926   0.222   0.243   6.294 -0.4772 -0.3408  0.6465
    3MOL     C3  927   0.256   0.203   6.439 -0.7959  0.4528 -0.0994
    3MOL     O4  928   0.250   0.311   6.524  0.8441 -0.4864 -0.5510
    3MOL     C5  929   0.132   0.344   6.590  0.2709  0.7059 -0.2330
    3MOL     O6  930   0.026   0.285   6.582 -0.9758  0.1717  0.1948
    3MOL     C7  931   0.138   0.472   6.665 -0.4203 -0.0766 -0.0357
    3MOL     C8  932   0.023   0.549   6.699 -0.2507  0.9015  1.0183
    3MOL     C9  933   0.034   0.675   6.763  0.5572 -0.2286  0.0650
    3MOL    C10  934   0.164   0.729   6.792  0.2325  0.6002 -0.3203
    3MOL    C11  935   0.184   0.866   6.849 -0.6202  0.0890 -0.8539
    3MOL    O12  936   0.292   0.930   6.843 -0.6671 -0.0418 -0.0573
    3MOL    O13  937   0.075   0.929   6.873 -0.2520 -0.3499 -0.0084
    3MOL    C14  938   0.278   0.647   6.759  0.4668 -0.9916  0.3942
    3MOL    C15  939   0.268   0.524   6.692  0.5456 -0.1348 -0.2533
    3MOL    H16  940   0.247   0.347   6.277 -0.1493 -0.9756 -3.2000
    3MOL    H17  941   0.113   0.239   6.282 -0.3873 -2.0215  0.2626
    3MOL    H18  942   0.359   0.169   6.433 -0.7527  0.2207  1.6997
    3MOL    H19  943   0.218   0.110   6.482  0.8207  1.6750  4.2216
    3MOL    H20  944   8.203   0.510   6.666  0.1152 -0.5662  1.6585
    3MOL    H21  945   8.219   0.733   6.774  0.5027 -0.5567  1.4953
    3MOL    H22  946   0.381   0.673   6.777 -0.0717 -0.7680  3.3817
    3MOL    H23  947   0.352   0.460   6.668 -0.4777 -1.8794  0.6998
    3MOL    H24  948   0.226   0.123   6.134  2.6008 -3.6776 -1.2140
    3MOL    O25  949   0.073   1.069   6.941 -0.8926 -0.9940  0.5679
    3MOL    C26  950   0.089   1.168   6.841 -0.0993  0.2545  0.3769
    3MOL    C27  951   0.059   1.305   6.893  0.2498 -0.5697 -0.0957
    3MOL    O28  952   8.191   1.319   6.909  0.3946  0.1197 -0.5906
    3MOL    C29  953   8.147   1.441   6.910 -0.5644 -0.5597  0.1359
    3MOL    O30  954   8.211   1.538   6.871  0.3838 -0.1093  0.0499
    3MOL    C31  955   8.003   1.456   6.957 -0.5886  0.1204  0.3660
    3MOL    C32  956   7.936   1.580   6.933  0.1636  1.4872 -0.4260
    3MOL    C33  957   7.797   1.597   6.951 -0.7096  0.1529  0.0558
    3MOL    C34  958   7.727   1.493   7.012  0.2404  0.1560 -0.7956
    3MOL    C35  959   7.587   1.506   7.045 -0.1458 -0.4440  0.9178
    3MOL    O36  960   7.522   1.423   7.107  0.3238 -0.2452  0.4999
    3MOL    O37  961   7.523   1.620   6.992 -0.5030 -1.2228  0.0999
    3MOL    C38  962   7.798   1.371   7.033 -0.4363 -0.0088 -0.5178
    3MOL    C39  963   7.933   1.349   7.015  0.2033 -0.3500  0.0163
    3MOL    H40  964   0.185   1.171   6.789  0.3377  0.8093  1.2103
    3MOL    H41  965   0.019   1.147   6.759  0.4495 -0.0454 -0.0181
    3MOL    H42  966   0.106   1.381   6.830 -0.5494  1.0226  1.2081
    3MOL    H43  967   0.103   1.317   6.992 -0.1475  2.6821 -0.2695
    3MOL    H44  968   7.991   1.660   6.886 -1.5522  3.1044  0.2687
    3MOL    H45  969   7.742   1.688   6.931 -0.2236  0.7011  1.2191
    3MOL    H46  970   7.740   1.290   7.073  2.0348 -1.5731 -0.0188
    3MOL    H47  971   7.969   1.251   7.044  1.4862  0.2152  0.3235
    3MOL    O48  972   7.388   1.652   7.052 -0.0761  0.3786 -0.3394
    3MOL    C49  973   7.397   1.734   7.165 -0.0256  0.2064 -0.5051
    3MOL    C50  974   7.422   1.877   7.104  0.2110 -0.6312  0.1222
    3MOL    O51  975   7.563   1.892   7.086  0.2968 -0.2785  0.2117
    3MOL    C52  976   7.608   1.959   6.982 -0.2609 -0.3530 -0.1697
    3MOL    O53  977   7.538   2.001   6.885  0.0737 -0.0277 -0.0122
    3MOL    C54  978   7.759   1.981   7.002  0.1413  0.0758 -0.8357
    3MOL    C55  979   7.835   2.035   6.891 -0.0066 -0.0185  0.5562
    3MOL    C56  980   7.974   2.041   6.894  0.0011 -0.1523 -0.4203
    3MOL    C57  981   8.044   2.007   7.006  0.0030 -0.1753 -0.1528
    3MOL    C58  982   8.191   2.016   7.012 -0.0014  0.0587 -0.3147
    3MOL    O59  983   8.263   1.933   7.065 -0.0688 -0.0297  0.2706
    3MOL    O60  984   8.236   2.134   6.970 -0.0693  0.0479  0.4308
    3MOL    C61  985   7.974   1.952   7.113  0.2105 -0.2169  0.2108
    3MOL    C62  986   7.832   1.934   7.110 -0.1143 -0.3462  0.7126
    3MOL    H63  987   7.301   1.734   7.216 -0.1519  0.5537 -0.7410
    3MOL    H64  988   7.472   1.700   7.236 -0.0906  0.7833 -0.1609
    3MOL    H65  989   7.393   1.952   7.177 -0.5635 -1.1949  0.3898
    3MOL    H66  990   7.355   1.897   7.020  1.0107 -2.1695 -0.9092
    3MOL    H67  991   7.776   2.057   6.803 -0.0998 -0.3572  0.5326
    3MOL    H68  992   8.025   2.077   6.806 -0.1543 -0.7656 -0.7651
    3MOL    H69  993   8.016   1.921   7.207 -0.0878  0.8666  0.7069
    3MOL    H70  994   7.770   1.891   7.187  0.8433  2.0984  2.9424
    3MOL    O71  995   0.112   2.150   6.977  0.1986 -0.0637 -0.7624
    3MOL    C72  996   0.136   2.237   7.086 -0.6916 -0.0943 -0.2934
    3MOL    C73  997   0.242   2.335   7.045 -0.1872  0.2828 -0.1813
    3MOL    O74  998   0.371   2.285   7.024  0.2430  0.1934 -0.0265
    3MOL    C75  999   0.447   2.250   7.121 -0.0057 -0.2088 -0.4013
    3MOL    O76 1000   0.407   2.251   7.240 -0.0592  0.0348 -0.1035
    3MOL    C77 1001   0.578   2.203   7.074  0.0465 -0.0593 -0.3410
    3MOL    C78 1002   0.672   2.156   7.171  0.6126 -0.7668  0.0080
    3MOL    C79 1003   0.798   2.105   7.132  0.2692 -0.3062 -0.3421
    3MOL    C80 1004   0.840   2.116   6.998  0.3924 -0.1919  0.1991
    3MOL    C81 1005   0.966   2.067   6.938 -0.6424  0.2470  0.0971
    3MOL    O82 1006   0.980   2.033   6.823 -0.0333  0.1086 -0.2658
    3MOL    O83 1007   1.059   2.059   7.035 -0.1378  0.1625  0.6454
    3MOL    C84 1008   0.743   2.149   6.902 -0.8315 -0.1497 -0.2874
    3MOL    C85 1009   0.615   2.193   6.941 -0.4502  0.4548 -0.1812
    3MOL    H86 1010   0.062   2.309   7.121  1.9891  0.8209  3.7461
    3MOL    H87 1011   0.157   2.177   7.174 -0.0616 -0.7034 -0.8530
    3MOL    H88 1012   0.252   2.431   7.096  0.8438 -0.2703  0.6830
    3MOL    H89 1013   0.209   2.374   6.949  1.1543 -1.5458 -1.4117
    3MOL    H90 1014   0.641   2.151   7.274  0.8857  0.3194  0.1518
    3MOL    H91 1015   0.861   2.068   7.211  0.3572 -0.8301 -0.6541
    3MOL    H92 1016   0.768   2.150   6.796 -2.2593 -0.1972 -0.6282
    3MOL    H93 1017   0.538   2.204   6.865  1.3566 -0.1602 -2.1431
    3MOL    O94 1018   1.185   2.004   6.979 -0.3427  0.1459  0.1622
    3MOL    C95 1019   1.188   1.860   7.007 -1.3414 -0.3008 -0.1699
    3MOL    C96 1020   1.116   1.785   6.900 -0.4080  1.1873  0.1731
    3MOL    O97 1021   1.149   1.647   6.908  0.9928  0.2457  0.4461
    3MOL    C98 1022   1.170   1.572   6.794  0.0194  0.4045 -0.1887
    3MOL    O99 1023   1.190   1.619   6.676 -0.1402 -0.3489  0.0484
    3MOL   C100 1024   1.192   1.430   6.827 -0.9976  0.5643  0.9141
    3MOL   C101 1025   1.194   1.379   6.958 -0.0746  0.4886  0.0709
    3MOL   C102 1026   1.214   1.242   6.988 -0.6394  0.0246 -0.0660
    3MOL   C103 1027   1.230   1.149   6.886  0.2852 -0.2964 -0.7152
    3MOL   C104 1028   1.228   1.007   6.926 -0.0927  0.0492 -0.2409
    3MOL   O105 1029   1.229   0.927   6.834 -0.2005  0.3465  0.4786
    3MOL   O106 1030   1.240   0.977   7.059  0.3582 -0.6103  0.1000
    3MOL   C107 1031   1.243   1.199   6.751  0.4605  0.0114  0.7170
    3MOL   C108 1032   1.227   1.339   6.720 -0.3549  1.1948 -0.5280
    3MOL   H109 1033   1.293   1.833   7.006 -1.3805 -0.4567 -0.3387
    3MOL   H110 1034   1.150   1.831   7.105 -0.7614  3.0654  1.1202
    3MOL   H111 1035   1.146   1.820   6.801  1.8050 -2.1179 -0.4083
    3MOL   H112 1036   1.007   1.794   6.890 -0.5638 -0.9026 -0.3446
    3MOL   H113 1037   1.176   1.440   7.045  0.4581  1.6433 -0.6214
    3MOL   H114 1038   1.201   1.204   7.088 -0.6639 -1.0304 -0.4635
    3MOL   H115 1039   1.246   1.130   6.669  0.3496 -1.9875  2.3529
    3MOL   H116 1040   1.233   1.364   6.615 -0.2041 -1.1297 -1.0938
    3MOL   O117 1041   1.244   0.827   7.088 -0.6420  0.6153 -0.2980
    3MOL   C118 1042   1.380   0.795   7.128  0.1167 -0.7410 -0.0912
    3MOL   C119 1043   1.470   0.720   7.026 -0.3724 -0.2076 -0.0749
    3MOL   O120 1044   1.478   0.768   6.897  0.5249  0.3001 -0.0088
    3MOL   C121 1045   1.544   0.881   6.876  0.1505 -0.1370  0.1920
    3MOL   O122 1046   1.615   0.941   6.959  0.2344 -0.1881 -0.1047
    3MOL   C123 1047   1.537   0.923   6.734 -0.0155  0.0092 -0.0605
    3MOL   C124 1048   1.490   0.841   6.633 -0.2857 -0.5040  0.0120
    3MOL   C125 1049   1.486   0.884   6.500  0.1674 -0.3368 -0.0741
    3MOL   C126 1050   1.516   1.016   6.464  0.1545  0.2364 -0.1981
    3MOL   C127 1051   1.505   1.057   6.318  0.0592  0.2718  0.5316
    3MOL   O128 1052   1.524   1.170   6.288  0.2427 -0.2628 -0.2465
    3MOL   O129 1053   1.475   0.953   6.237 -0.3417  0.3328 -0.5368
    3MOL   C130 1054   1.562   1.099   6.570  0.3981 -0.0260 -0.5768
    3MOL   C131 1055   1.572   1.053   6.702  0.2911  0.0527  0.1386
    3MOL   H132 1056   1.417   0.887   7.174 -0.6676 -0.5326  0.1217
    3MOL   H133 1057   1.379   0.728   7.213 -2.1288 -1.0951 -0.3759
    3MOL   H134 1058   1.426   0.620   7.013  0.8187 -0.7416 -0.0605
    3MOL   H135 1059   1.568   0.712   7.073 -0.1084 -1.4863 -0.8275
    3MOL   H136 1060   1.452   0.741   6.649  3.1560 -1.9306 -0.2825
    3MOL   H137 1061   1.450   0.810   6.430 -2.6728 -0.8795  1.8616
    3MOL   H138 1062   1.592   1.201   6.550 -1.9222  0.3893 -2.1228
    3MOL   H139 1063   1.611   1.128   6.769  1.0429  0.8862 -1.2125
    3MOL   O140 1064   1.444   0.997   6.095  0.3570 -0.1665 -0.1121
    3MOL   C141 1065   1.562   1.000   6.014  0.0188 -0.1997  0.1717
    3MOL   C142 1066   1.538   1.014   5.860 -0.3413  0.4033 -0.1298
    3MOL   O143 1067   1.638   0.945   5.780 -0.8362  0.4065 -0.0479
    3MOL   C144 1068   1.761   1.013   5.752  0.8746 -0.1265 -0.1890
    3MOL   O145 1069   1.779   1.131   5.794 -0.2719  0.3687  0.5683
    3MOL   C146 1070   1.866   0.932   5.675  0.4444 -0.1982  0.1183
    3MOL   C147 1071   1.993   0.995   5.659  0.2019 -0.5224 -0.6449
    3MOL   C148 1072   2.093   0.926   5.595 -0.1975  0.1482  0.2568
    3MOL   C149 1073   2.076   0.793   5.556 -0.2816 -0.5280 -0.1810
    3MOL   C150 1074   2.190   0.708   5.520  0.6502 -0.0838 -0.5215
    3MOL   O151 1075   2.299   0.733   5.555  0.6792  0.3097  0.5058
    3MOL   O152 1076   2.156   0.612   5.435  0.0166  0.1089  0.3649
    3MOL   C153 1077   1.952   0.734   5.564 -0.3213 -0.0795  0.3713
    3MOL   C154 1078   1.846   0.801   5.628 -0.6554  0.0479  0.2003
    3MOL   H155 1079   1.647   1.062   6.044  0.2806 -0.8302  0.7254
    3MOL   H156 1080   1.600   0.898   6.018  0.3034 -0.0567  1.3113
    3MOL   H157 1081   1.530   1.118   5.826  1.9662  0.8398  0.5846
    3MOL   H158 1082   1.445   0.959   5.845 -0.3048  0.5618 -0.9579
    3MOL   H159 1083   2.007   1.098   5.690  0.7740  0.0543 -2.7747
    3MOL   H160 1084   2.187   0.977   5.579 -1.5525  2.1566 -1.4649
    3MOL   H161 1085   1.936   0.637   5.518  1.2095 -0.2703  0.2145
    3MOL   H162 1086   1.747   0.758   5.637 -0.4862 -0.2124  0.8136
    3MOL   O163 1087   2.270   0.556   5.356 -0.0987  0.3060 -0.9107
    3MOL   C164 1088   2.326   0.449   5.426  0.2134 -0.0493  0.5976
    3MOL   C165 1089   2.244   0.320   5.396  0.2885  0.6798  0.0679
    3MOL   O166 1090   2.147   0.295   5.497 -0.0556  0.4274 -0.4251
    3MOL   C167 1091   2.121   0.166   5.523 -0.1319 -0.5133 -0.5297
    3MOL   O168 1092   2.149   0.067   5.456  0.4479  0.2112 -0.2688
    3MOL   C169 1093   2.047   0.149   5.652  0.6742  0.3218  0.1584
    3MOL   C170 1094   1.958   0.040   5.675  0.0108 -0.1140 -0.2227
    3MOL   C171 1095   1.881   0.028   5.797 -0.1327  0.5857  0.4945
    3MOL   C172 1096   1.904   0.117   5.898  0.1894  0.8764  0.0939
    3MOL   C173 1097   1.837   0.102   6.034 -0.2518 -0.2650 -0.2931
    3MOL   O174 1098   1.838   0.191   6.119 -0.3138  0.2169 -0.7019
    3MOL   O175 1099   1.792   8.255   6.063  0.4068 -0.3543  0.3484
    3MOL   C176 1100   1.991   0.224   5.877 -0.1598 -0.2427  0.2772
    3MOL   C177 1101   2.055   0.245   5.752  0.2677 -0.6669 -0.4247
    3MOL   H178 1102   2.428   0.421   5.401 -0.3959  0.1090 -2.1984
    3MOL   H179 1103   2.322   0.471   5.532  1.7608 -1.3652  0.9586
    3MOL   H180 1104   2.319   0.241   5.397  1.4204  1.7305 -1.1578
    3MOL   H181 1105   2.196   0.298   5.301 -0.4054  0.0563  0.5493
    3MOL   H182 1106   1.953   8.239   5.598 -0.1579 -0.0842 -0.2404
    3MOL   H183 1107   1.810   8.222   5.805  0.1620  0.4314  1.6613
    3MOL   H184 1108   2.012   0.293   5.957 -0.2026 -1.2450  1.1650
    3MOL   H185 1109   2.112   0.336   5.750  3.4394 -2.5568 -0.4252
    3MOL   O186 1110   1.728   8.224   6.200  0.3930  0.3069  0.2876
    3MOL   C187 1111   1.593   8.263   6.201 -0.0925 -0.1188  0.1282
    3MOL   C188 1112   1.532   8.224   6.324  0.2197 -0.5037  0.0390
    3MOL   O189 1113   1.415   0.025   6.337  0.0460 -0.3704  0.3610
    3MOL   C190 1114   1.297   8.249   6.390 -0.5066 -0.2305 -1.0005
    3MOL   O191 1115   1.299   8.143   6.458  0.3666 -0.2239 -0.0706
    3MOL   C192 1116   1.177   0.052   6.349  0.3949  0.7521  0.4726
    3MOL   C193 1117   1.058   0.021   6.420 -0.6196  0.1322  1.0202
    3MOL   C194 1118   0.947   0.106   6.396  0.4613  0.0223 -0.4898
    3MOL   C195 1119   0.950   0.212   6.305  0.3803 -0.3619 -0.4166
    3MOL   C196 1120   0.839   0.312   6.293 -0.5162 -0.3928  0.0419
    3MOL   O197 1121   0.827   0.386   6.201  0.1688 -0.2677 -0.1270
    3MOL   O198 1122   0.740   0.289   6.379  0.2530 -0.1005 -0.3178
    3MOL   C199 1123   1.068   0.234   6.228 -0.0017  0.0794 -0.1413
    3MOL   C200 1124   1.181   0.157   6.253 -0.6535 -0.3302 -0.0771
    3MOL   H201 1125   1.589   0.095   6.181  3.2814  0.1700  0.6755
    3MOL   H202 1126   1.533   8.223   6.119  1.0202 -0.1730 -0.6745
    3MOL   H203 1127   1.603   8.246   6.404  0.5023 -2.3080  0.3036
    3MOL   H204 1128   1.519   8.117   6.312  0.0771 -0.4026 -0.7114
    3MOL   H205 1129   1.058   8.218   6.494  1.0233 -0.6880  0.1783
    3MOL   H206 1130   0.862   0.076   6.455 -0.0081 -0.1102 -1.2244
    3MOL   H207 1131   1.076   0.319   6.161 -0.0924  0.7687  0.7101
    3MOL   H208 1132   1.275   0.192   6.212 -0.9283  2.0382  1.2831
    3MOL   O209 1133   0.621   0.373   6.352 -0.3813 -0.2839  0.1563
    3MOL   C210 1134   0.621   0.476   6.444 -0.2652 -0.0224 -0.2478
    3MOL   C211 1135   0.501   0.574   6.422  0.6407  0.1213 -0.0228
    3MOL   O212 1136   0.508   0.649   6.303  0.3602 -0.1631 -0.2563
    3MOL   C213 1137   0.573   0.768   6.293 -0.5999 -0.1979 -0.3942
    3MOL   O214 1138   0.631   0.826   6.385 -0.3695  0.0578  0.5591
    3MOL   C215 1139   0.569   0.819   6.154 -0.1474  0.1868 -0.0658
    3MOL   C216 1140   0.490   0.769   6.049 -0.4142  0.2394 -0.0231
    3MOL   C217 1141   0.487   0.830   5.920 -0.2951  0.3369 -0.8934
    3MOL   C218 1142   0.587   0.928   5.890 -0.4492 -0.1124 -0.1265
    3MOL   C219 1143   0.592   0.999   5.754 -0.8164 -0.0216 -0.1257
    3MOL   O220 1144   0.689   1.065   5.723 -0.2594 -0.6235  0.0807
    3MOL   O221 1145   0.499   0.955   5.667  0.1464 -1.1695 -0.4691
    3MOL   C222 1146   0.672   0.974   5.992 -0.3731 -0.2497 -0.0785
    3MOL   C223 1147   0.654   0.921   6.123 -0.4645 -0.1366  0.0221
    3MOL   H224 1148   0.614   0.435   6.545  0.0152 -0.4101 -0.3833
    3MOL   H225 1149   0.720   0.522   6.450  0.4725 -1.4805 -1.0209
    3MOL   H226 1150   0.491   0.645   6.504 -1.4334  0.2085 -0.3227
    3MOL   H227 1151   0.402   0.531   6.439  2.1973 -3.5491  0.2749
    3MOL   H228 1152   0.417   0.693   6.074 -2.1149  1.7105 -0.4114
    3MOL   H229 1153   0.415   0.784   5.854 -0.2754 -2.8351  1.1803
    3MOL   H230 1154   0.751   1.044   5.969 -0.5785 -0.6894 -2.2521
    3MOL   H231 1155   0.725   0.966   6.192 -1.7996  2.9188 -0.4884
    3MOL   O232 1156   0.539   0.993   5.518  0.0079  0.6074  0.3968
    3MOL   C233 1157   0.438   1.087   5.466 -0.0509 -0.3747 -0.1154
    3MOL   C234 1158   0.461   1.125   5.318  0.3709 -0.6764 -0.0201
    3MOL   O235 1159   0.366   1.222   5.273 -0.2488 -0.5780  0.3184
    3MOL   C236 1160   0.242   1.185   5.244 -0.3038  0.1312 -0.1924
    3MOL   O237 1161   0.188   1.074   5.268 -0.2278  0.1675 -0.1384
    3MOL   C238 1162   0.170   1.297   5.180 -0.0002 -0.6699 -1.0175
    3MOL   C239 1163   0.045   1.345   5.230  0.6326  0.2403 -0.2415
    3MOL   C240 1164   8.261   1.462   5.182  0.2604  0.3631  1.0899
    3MOL   C241 1165   0.045   1.532   5.075  0.1190 -0.3835 -0.4863
    3MOL   C242 1166   8.265   1.661   5.030  0.0278 -0.3522  0.1861
    3MOL   O243 1167   8.209   1.738   5.107  0.1655  0.8053 -0.1874
    3MOL   O244 1168   0.033   1.694   4.907 -0.3847  0.6496  0.3125
    3MOL   C245 1169   0.162   1.486   5.018 -0.1963  0.0026  0.5760
    3MOL   C246 1170   0.224   1.369   5.072 -0.4761 -0.0540  0.2452
    3MOL   H247 1171   0.338   1.046   5.480 -1.1169  2.3710  0.6902
    3MOL   H248 1172   0.425   1.180   5.521 -1.4189 -0.3449 -0.4812
    3MOL   H249 1173   0.462   1.038   5.253 -0.1483  0.3525 -1.4242
    3MOL   H250 1174   0.565   1.158   5.319  0.6031 -1.3441 -1.1975
    3MOL   H251 1175   0.003   1.288   5.312  0.5421 -2.0528 -1.8349
    3MOL   H252 1176   8.174   1.506   5.228 -0.5542  1.5407 -1.5445
    3MOL   H253 1177   0.217   1.544   4.945  0.3757  1.1960  1.9361
    3MOL   H254 1178   0.322   1.341   5.037 -0.5270  0.1480 -0.0662
    3MOL   O255 1179   8.274   1.836   4.869  0.3192 -0.2316 -0.2863
    3MOL   C256 1180   0.121   1.917   4.873  0.6742 -0.3538  1.1084
    3MOL   C257 1181   0.084   2.071   4.878  0.4950 -0.6056 -0.8689
    3MOL   O258 1182   0.012   2.109   4.768  0.3825 -0.7692  0.0015
    3MOL   C259 1183   8.228   2.228   4.761  0.0364  0.2692 -0.1597
    3MOL   O260 1184   8.272   2.324   4.823  0.2041  0.3702 -0.5555
    3MOL   C261 1185   8.110   2.229   4.668 -0.2813  0.3317 -0.3821
    3MOL   C262 1186   8.045   2.347   4.642 -0.8344  0.4164  0.9112
    3MOL   C263 1187   7.922   2.352   4.572 -0.0041  0.0907 -0.2333
    3MOL   C264 1188   7.869   2.229   4.520 -0.5498 -0.2957 -0.1939
    3MOL   C265 1189   7.740   2.229   4.442  0.0859 -0.1083  0.1810
    3MOL   O266 1190   7.680   2.128   4.401  0.1675  1.0170  0.5143
    3MOL   O267 1191   7.701   2.355   4.399  0.4148 -0.2703 -0.0339
    3MOL   C268 1192   7.941   2.109   4.539 -0.8807 -0.4326 -0.4595
    3MOL   C269 1193   8.058   2.109   4.615  0.6025  1.2244 -0.4908
    3MOL   H270 1194   0.192   1.882   4.948  1.5667 -0.0129  0.4217
    3MOL   H271 1195   0.171   1.894   4.779 -0.9834 -2.4935  0.6920
    3MOL   H272 1196   0.173   2.131   4.896 -0.1123  0.6212 -1.9331
    3MOL   H273 1197   0.023   2.078   4.968 -0.2950 -2.7611 -1.1957
    3MOL   H274 1198   8.082   2.437   4.688 -0.7483  0.6115  0.4610
    3MOL   H275 1199   7.859   2.440   4.564  0.6321  0.6154  0.4505
    3MOL   H276 1200   7.895   2.017   4.506 -0.4944 -1.5391  2.0320
    3MOL   H277 1201   8.100   2.011   4.632 -0.0764  0.9245 -0.5728
    3MOL   O278 1202   7.583   2.350   4.310  0.2663  0.2274  0.6268
    3MOL   C279 1203   7.630   2.369   4.178 -0.4999  0.3340 -0.3676
    3MOL   C280 1204   7.644   2.519   4.138  0.0990 -0.0896 -0.8773
    3MOL   O281 1205   7.755   2.573   4.209  0.8687 -0.2753 -0.0243
    3MOL   C282 1206   7.741   2.673   4.293 -0.4599 -0.1842  0.4861
    3MOL   O283 1207   7.633   2.738   4.310 -0.8515  0.3209  0.0376
    3MOL   C284 1208   7.864   2.692   4.380  0.2204 -0.3109  0.1346
    3MOL   C285 1209   7.983   2.620   4.352 -0.5975 -0.1266 -0.7841
    3MOL   C286 1210   8.095   2.631   4.440 -0.1021 -0.0831 -0.8321
    3MOL   C287 1211   8.089   2.710   4.562 -1.1470 -1.0648  0.1785
    3MOL   C288 1212   8.208   2.725   4.644 -0.2114  0.5145  0.0074
    3MOL   O289 1213   0.040   2.662   4.621 -0.0556 -0.1975 -0.6253
    3MOL   O290 1214   8.194   2.804   4.745  0.2821  0.8748 -0.3376
    3MOL   C291 1215   7.969   2.783   4.585  0.0170 -0.1847 -0.2839
    3MOL   C292 1216   7.855   2.767   4.498 -0.2887 -0.7335  0.1130
    3MOL   H293 1217   7.719   2.309   4.158 -0.4286  0.0773  0.6565
    3MOL   H294 1218   7.565   2.323   4.104 -0.2438  0.1318 -0.4685
    3MOL   H295 1219   7.558   2.584   4.155 -1.6189 -2.9357  1.8299
    3MOL   H296 1220   7.675   2.535   4.035 -0.2060 -0.2738 -0.9975
    3MOL   H297 1221   8.003   2.563   4.263  0.9430 -0.7359 -0.0626
    3MOL   H298 1222   8.177   2.568   4.409  0.0738  0.0591 -0.6565
    3MOL   H299 1223   7.963   2.851   4.668 -0.9729 -0.7574  0.1314
    3MOL   H300 1224   7.762   2.818   4.521 -0.3189 -0.6571 -0.1762
    3MOL   O301 1225   0.055   2.845   4.800 -0.2400  0.6432  0.4224
    3MOL   C302 1226   0.087   2.766   4.909  0.0814  0.1377 -0.5178
    3MOL   C303 1227   0.240   2.779   4.937 -0.1959 -0.5170  0.3499
    3MOL   O304 1228   0.300   2.733   4.818  0.3866  0.2987  0.4865
    3MOL   C305 1229   0.368   2.820   4.736 -0.7245  0.1974  0.8406
    3MOL   O306 1230   0.397   2.930   4.770 -0.5303  0.0283  0.4024
    3MOL   C307 1231   0.413   2.763   4.607  0.8072 -0.0159  0.6127
    3MOL   C308 1232   0.378   2.631   4.562  0.5375  1.1528  0.0735
    3MOL   C309 1233   0.421   2.587   4.435 -0.4805 -0.1201 -0.1309
    3MOL   C310 1234   0.496   2.668   4.348  0.4118 -0.2333 -0.8649
    3MOL   C311 1235   0.517   2.613   4.217 -0.1491 -0.0338 -0.7998
    3MOL   O312 1236   0.532   2.492   4.198 -0.1267 -0.3602  0.8742
    3MOL   O313 1237   0.527   2.706   4.120 -0.1084  0.1296 -0.5061
    3MOL   C314 1238   0.535   2.799   4.390 -0.3580  0.3596 -0.3536
    3MOL   C315 1239   0.491   2.844   4.516 -0.0753  0.6728 -0.2293
    3MOL   H316 1240   0.032   2.794   4.999  0.8379  0.5742 -0.1974
    3MOL   H317 1241   0.052   2.666   4.881 -1.0270  1.5139 -4.4326
    3MOL   H318 1242   0.264   2.719   5.024  3.9831  0.3969 -0.0645
    3MOL   H319 1243   0.267   2.879   4.969  1.6098 -1.1771  0.9413
    3MOL   H320 1244   0.321   2.566   4.627  2.9998 -0.8479  0.3094
    3MOL   H321 1245   0.391   2.487   4.407  2.9917 -1.1818 -0.2361
    3MOL   H322 1246   0.594   2.866   4.330  1.8515  2.0115  3.4323
    3MOL   H323 1247   0.512   2.946   4.545  1.0114  0.5639 -0.6313
    3MOL   O324 1248   0.574   2.647   3.988  0.3712 -0.4220  0.5083
    3MOL   C325 1249   0.717   2.675   3.978  0.0118 -0.6516 -0.2025
    3MOL   C326 1250   0.764   2.596   3.858  0.4876  0.2375 -0.1823
    3MOL   O327 1251   0.792   2.462   3.903  0.0481 -0.0888  0.1654
    3MOL   C328 1252   0.830   2.373   3.806  0.0441  0.9324 -0.3399
    3MOL   O329 1253   0.829   2.401   3.687  0.0056 -0.2089  0.2495
    3MOL   C330 1254   0.858   2.239   3.862  0.6351  0.0656 -0.3214
    3MOL   C331 1255   0.927   2.137   3.787 -0.1340 -0.2758  0.2163
    3MOL   C332 1256   0.947   2.012   3.840 -0.4212 -0.5363 -0.1850
    3MOL   C333 1257   0.917   1.987   3.976 -0.8547  0.3021  0.4939
    3MOL   C334 1258   0.971   1.862   4.038  0.5165  0.8447  0.9445
    3MOL   O335 1259   1.047   1.780   3.985 -0.2915 -0.0110  0.6850
    3MOL   O336 1260   0.932   1.844   4.174  0.1766  0.0734  0.0036
    3MOL   C337 1261   0.869   2.092   4.054  0.1541  0.2292  0.6268
    3MOL   C338 1262   0.830   2.210   3.996 -0.2300  0.6369  0.1235
    3MOL   H339 1263   0.731   2.782   3.962 -0.5273 -0.3980  1.0600
    3MOL   H340 1264   0.768   2.647   4.070  0.1817 -1.0996 -0.4266
    3MOL   H341 1265   0.849   2.650   3.816 -0.3719 -0.1996 -2.5529
    3MOL   H342 1266   0.684   2.590   3.785  2.2194 -0.1203 -2.1053
    3MOL   H343 1267   0.940   2.159   3.683  0.6735 -1.3098  0.0824
    3MOL   H344 1268   0.990   1.940   3.771 -3.4092 -0.0103 -2.7108
    3MOL   H345 1269   0.843   2.082   4.159  0.7601  2.7750  1.0499
    3MOL   H346 1270   0.769   2.278   4.054 -0.3930  1.1257 -0.6108
    3MOL   O347 1271   0.988   1.709   4.229  0.3734  0.0009 -0.0826
    3MOL   C348 1272   1.105   1.735   4.295 -0.2395  0.5046 -0.1270
    3MOL   C349 1273   1.156   1.609   4.379  0.1132 -0.0351 -0.1027
    3MOL   O350 1274   1.135   1.631   4.520 -0.8219  0.3685  0.5768
    3MOL   C351 1275   1.016   1.619   4.581 -0.1717  0.4445 -0.2794
    3MOL   O352 1276   0.919   1.573   4.520  0.0300 -0.2728 -0.2292
    3MOL   C353 1277   1.017   1.669   4.718  0.1506 -0.2988 -0.1234
    3MOL   C354 1278   1.119   1.760   4.761 -0.0677 -0.3700 -0.1906
    3MOL   C355 1279   1.130   1.805   4.896 -0.5691 -0.0378  0.2514
    3MOL   C356 1280   1.032   1.757   4.987  0.4676  0.7428  0.4604
    3MOL   C357 1281   1.035   1.813   5.122  0.4359  0.0342  0.5315
    3MOL   O358 1282   1.123   1.889   5.164  0.2199 -0.2888 -0.9642
    3MOL   O359 1283   0.937   1.761   5.196  0.0194  0.1354 -0.2670
    3MOL   C360 1284   0.931   1.666   4.939 -0.3043  0.2153  0.0157
    3MOL   C361 1285   0.914   1.638   4.803 -0.4258 -0.1186  0.0316
    3MOL   H362 1286   1.177   1.769   4.221  0.6220 -2.0137 -0.4782
    3MOL   H363 1287   1.093   1.816   4.368  1.9384 -0.4029  1.2701
    3MOL   H364 1288   1.263   1.606   4.360  0.1941  4.7804 -1.0754
    3MOL   H365 1289   1.115   1.523   4.328  0.7424 -1.3501  1.5590
    3MOL   H366 1290   1.197   1.792   4.694  2.2295  1.9474  3.3895
    3MOL   H367 1291   1.205   1.880   4.917 -1.1841  0.2191  1.5366
    3MOL   H368 1292   0.852   1.634   5.006 -2.1321  3.5575 -0.4396
    3MOL   H369 1293   0.841   1.564   4.776 -0.4976 -0.3207  0.7695
    3MOL   O370 1294   0.899   1.852   5.307 -0.1400 -0.3000 -0.1822
    3MOL   C371 1295   0.957   1.796   5.419 -0.6743  0.2423 -0.1057
    3MOL   C372 1296   0.984   1.905   5.529  0.3276 -0.5090 -0.3693
    3MOL   O373 1297   1.025   1.849   5.658  0.5325 -0.6377  0.0861
    3MOL   C374 1298   1.028   1.933   5.763 -0.1625  0.0284 -0.5867
    3MOL   O375 1299   1.018   2.052   5.761  0.2216  0.1509  0.0037
    3MOL   C376 1300   1.054   1.861   5.888  0.7547  0.1685 -0.3354
    3MOL   C377 1301   1.128   1.737   5.886 -0.0952  0.3279 -0.3658
    3MOL   C378 1302   1.149   1.665   6.007 -0.1688 -0.3554  0.4545
    3MOL   C379 1303   1.104   1.731   6.128  0.1861 -0.0226  0.0215
    3MOL   C380 1304   1.123   1.667   6.262  0.4143  0.9852  0.0539
    3MOL   O381 1305   1.086   1.705   6.366  0.4443 -0.2189 -0.2033
    3MOL   O382 1306   1.197   1.555   6.248 -0.2190  0.1695  0.3001
    3MOL   C383 1307   1.048   1.861   6.126  0.8921 -0.0088  0.4373
    3MOL   C384 1308   1.020   1.925   6.007  0.1612  0.4478  0.0516
    3MOL   H385 1309   0.892   1.717   5.458 -2.1471  0.7237 -1.5198
    3MOL   H386 1310   1.057   1.759   5.396 -0.6226 -1.1717  2.2278
    3MOL   H387 1311   0.895   1.965   5.545 -1.1990 -2.8897  0.2539
    3MOL   H388 1312   1.071   1.959   5.492 -0.6733  1.7198  0.4777
    3MOL   H389 1313   1.156   1.682   5.797  0.7887 -1.3082  0.9014
    3MOL   H390 1314   1.216   1.581   6.010 -0.7858 -0.9585 -1.6123
    3MOL   H391 1315   1.022   1.902   6.222  1.5137 -0.0716  0.6329
    3MOL   H392 1316   0.959   2.013   6.012  0.5638  0.7019  0.5026
    3MOL   O393 1317   1.242   1.482   6.377 -0.0752  0.0144 -0.7659
    3MOL   C394 1318   1.368   1.531   6.410 -1.4907  0.6904  0.3073
    3MOL   C395 1319   1.472   1.506   6.300 -0.5269 -0.5011 -0.1767
    3MOL   O396 1320   1.483   1.621   6.209 -0.0382  0.2757  0.3324
    3MOL   C397 1321   1.583   1.631   6.119 -0.1062  1.0631 -0.0182
    3MOL   O398 1322   1.678   1.553   6.104 -0.1825 -0.0739 -0.0516
    3MOL   C399 1323   1.567   1.752   6.037 -0.4152 -0.6601  0.1708
    3MOL   C400 1324   1.619   1.752   5.908 -0.6277  0.1441  1.1310
    3MOL   C401 1325   1.607   1.870   5.827 -0.0938 -0.5630 -0.9508
    3MOL   C402 1326   1.546   1.986   5.871 -0.4715  0.0025  0.5542
    3MOL   C403 1327   1.543   2.113   5.783 -0.1020 -0.4348  0.1420
    3MOL   O404 1328   1.524   2.106   5.662  0.1831  0.2654  0.1024
    3MOL   O405 1329   1.554   2.229   5.853 -0.2843  0.6012 -0.1033
    3MOL   C406 1330   1.485   1.981   6.001 -0.2479  0.4308 -0.0371
    3MOL   C407 1331   1.499   1.868   6.080 -0.7241 -0.2816 -0.6547
    3MOL   H408 1332   1.363   1.634   6.446  0.1404  1.3215 -1.1918
    3MOL   H409 1333   1.403   1.476   6.497  0.1347  0.5006 -0.4435
    3MOL   H410 1334   1.455   1.409   6.254 -2.2629 -1.2770  2.0186
    3MOL   H411 1335   1.572   1.489   6.341 -0.9629 -0.6823  0.8268
    3MOL   H412 1336   1.672   1.665   5.872 -0.9073  0.2390  0.4706
    3MOL   H413 1337   1.655   1.875   5.731  0.9232 -0.5369 -0.4490
    3MOL   H414 1338   1.435   2.070   6.034  1.4046  1.8206 -1.1544
    3MOL   H415 1339   1.453   1.885   6.177 -0.6987 -1.0190 -0.5151
    3MOL   O416 1340   1.532   2.351   5.769 -0.1126 -0.3954  0.3659
    3MOL   C417 1341   1.662   2.404   5.747  0.1132  0.1140 -0.3393
    3MOL   C418 1342   1.646   2.526   5.657 -0.1623 -0.4905  0.4000
    3MOL   O419 1343   1.590   2.492   5.534  0.3407  0.3091 -0.1040
    3MOL   C420 1344   1.661   2.451   5.428  0.3407 -0.1655 -0.2547
    3MOL   O421 1345   1.780   2.414   5.439 -0.1863  0.2301 -0.0454
    3MOL   C422 1346   1.587   2.457   5.303 -0.5176 -0.4822  0.1373
    3MOL   C423 1347   1.451   2.491   5.298 -0.0019  0.3594 -0.4949
    3MOL   C424 1348   1.377   2.486   5.175 -0.1024  0.3090  0.3163
    3MOL   C425 1349   1.439   2.445   5.059 -0.0399 -0.2194 -0.5445
    3MOL   C426 1350   1.360   2.442   4.938  0.3516 -0.2319  0.2680
    3MOL   O427 1351   1.252   2.486   4.924 -0.0742  0.1567  0.1072
    3MOL   O428 1352   1.423   2.372   4.843 -0.2895 -0.9151 -0.0977
    3MOL   C429 1353   1.575   2.416   5.062 -0.0506  0.3761  0.1571
    3MOL   C430 1354   1.650   2.428   5.179 -0.4943  0.6216 -0.9032
    3MOL   H431 1355   1.703   2.428   5.845  0.0658 -1.7136  0.1629
    3MOL   H432 1356   1.719   2.328   5.692  1.3170  1.2585 -0.7009
    3MOL   H433 1357   1.746   2.563   5.634 -0.3279  0.8629  1.7730
    3MOL   H434 1358   1.584   2.602   5.704 -1.2565  0.2080 -2.1053
    3MOL   H435 1359   1.397   2.524   5.386 -0.9461 -1.6927 -0.2675
    3MOL   H436 1360   1.274   2.516   5.163 -0.4339 -0.7842  0.4411
    3MOL   H437 1361   1.624   2.382   4.972  0.2485 -0.3294  0.5794
    3MOL   H438 1362   1.754   2.398   5.181 -1.0559 -1.3460  0.7353
    3MOL   O439 1363   1.326   2.306   4.750  0.2559  0.0865 -0.4317
    3MOL   C440 1364   1.352   2.162   4.770 -0.3801  0.0002 -0.3387
    3MOL   C441 1365   1.286   2.092   4.651 -0.4596  0.1754  0.3946
    3MOL   O442 1366   1.354   1.970   4.632 -0.4848  0.5183  0.9131
    3MOL   C443 1367   1.385   1.929   4.511  0.0832  0.1620  0.0099
    3MOL   O444 1368   1.344   1.982   4.410  0.1404 -0.5764  0.1269
    3MOL   C445 1369   1.465   1.796   4.511 -0.0353  0.0680  0.0070
    3MOL   C446 1370   1.537   1.744   4.621  0.0424  0.1713  0.1461
    3MOL   C447 1371   1.606   1.622   4.614 -0.2542  0.0180 -0.5016
    3MOL   C448 1372   1.628   1.555   4.492  0.1988 -0.2159  0.1978
    3MOL   C449 1373   1.702   1.427   4.485  0.5510 -0.2168 -0.2479
    3MOL   O450 1374   1.748   1.372   4.585 -0.6193  0.1461 -0.7699
    3MOL   O451 1375   1.686   1.357   4.371 -0.2211 -0.1241 -0.5293
    3MOL   C452 1376   1.567   1.612   4.377 -0.4574 -0.2919 -0.2815
    3MOL   C453 1377   1.487   1.730   4.384  0.1522  0.2239  0.3992
    3MOL   H454 1378   1.461   2.156   4.764 -0.3478 -3.1938  2.0656
    3MOL   H455 1379   1.313   2.135   4.868  0.9762 -0.4318  0.0907
    3MOL   H456 1380   1.305   2.149   4.561  0.2194  2.6722  2.0613
    3MOL   H457 1381   1.181   2.069   4.672 -0.6892  0.2708 -0.6180
    3MOL   H458 1382   1.523   1.793   4.716 -0.1327 -0.9543  0.7165
    3MOL   H459 1383   1.639   1.581   4.708 -1.3820  2.3813  1.0087
    3MOL   H460 1384   1.588   1.568   4.281  0.7060  0.8859 -0.5961
    3MOL   H461 1385   1.444   1.766   4.292  0.5528  0.9973  0.5116
    3MOL   H462 1386   1.714   1.267   4.383  1.3426  0.4248  0.0500
    4MOL     O1 1387   1.555   1.823   3.537  0.1773  0.4147 -0.3705
    4MOL     C2 1388   1.595   1.898   3.419 -0.0081 -0.2079  0.0998
    4MOL     C3 1389   1.513   1.849   3.299  0.0776  0.0492  0.0694
    4MOL     O4 1390   1.565   1.722   3.256 -0.5675  0.4674 -0.0018
    4MOL     C5 1391   1.508   1.607   3.305  0.6558  0.1761  0.8696
    4MOL     O6 1392   1.405   1.610   3.376 -0.9316  0.3458 -0.1543
    4MOL     C7 1393   1.571   1.484   3.246  0.3155 -0.6044  0.0283
    4MOL     C8 1394   1.669   1.490   3.145 -0.0462 -1.0314  0.4428
    4MOL     C9 1395   1.718   1.371   3.090  0.6167  0.2496  0.2643
    4MOL    C10 1396   1.672   1.247   3.135 -0.9343 -0.5374  0.3616
    4MOL    C11 1397   1.714   1.114   3.073 -0.5646  0.0605  0.0375
    4MOL    O12 1398   1.667   1.007   3.118  0.2701 -0.2126 -0.1032
    4MOL    O13 1399   1.791   1.132   2.959 -0.5964 -0.6956 -0.4260
    4MOL    C14 1400   1.585   1.244   3.239 -0.1089  0.1135 -0.3426
    4MOL    C15 1401   1.534   1.357   3.301 -0.0409  0.4090  0.2165
    4MOL    H16 1402   1.571   2.004   3.430  0.7113  0.3345 -2.9659
    4MOL    H17 1403   1.700   1.886   3.393 -0.2877  0.5104 -1.4376
    4MOL    H18 1404   1.513   1.900   3.203  0.7357 -0.3019 -0.1140
    4MOL    H19 1405   1.408   1.849   3.330 -0.1219  0.3397 -0.5912
    4MOL    H20 1406   1.716   1.581   3.110 -0.0299 -0.4540  1.9449
    4MOL    H21 1407   1.790   1.374   3.009  0.6413  0.6445  0.2978
    4MOL    H22 1408   1.549   1.148   3.273  0.1484  0.4481  0.8934
    4MOL    H23 1409   1.483   1.355   3.396  1.6850  1.3643  1.1846
    4MOL    H24 1410   1.487   1.764   3.507 -0.7707  1.2894  0.0569
    4MOL    O25 1411   1.794   1.011   2.865 -0.4358 -0.2417  0.6491
    4MOL    C26 1412   1.709   1.043   2.755  0.2095  0.0154  0.7640
    4MOL    C27 1413   1.762   0.968   2.630 -0.5846 -0.3663  0.1611
    4MOL    O28 1414   1.664   0.999   2.526  0.0678  0.0566 -0.1364
    4MOL    C29 1415   1.699   1.094   2.447 -0.2817 -0.4387  0.2231
    4MOL    O30 1416   1.800   1.166   2.474  0.9804  0.0688 -0.0354
    4MOL    C31 1417   1.601   1.117   2.345 -0.5366 -0.2693 -0.2557
    4MOL    C32 1418   1.598   1.244   2.281 -0.5557 -0.6814  0.3839
    4MOL    C33 1419   1.494   1.277   2.196  0.1150 -0.2032 -0.6402
    4MOL    C34 1420   1.399   1.175   2.161  0.3804 -0.6883 -0.1824
    4MOL    C35 1421   1.303   1.192   2.053  0.2535  0.5425  0.1074
    4MOL    O36 1422   1.227   1.096   2.018  0.4077 -0.0984 -0.4432
    4MOL    O37 1423   1.298   1.315   1.994 -0.2672 -0.0903 -0.0392
    4MOL    C38 1424   1.408   1.045   2.215  0.5765 -0.2554  0.4243
    4MOL    C39 1425   1.507   1.018   2.308 -0.4884  0.0120 -1.2654
    4MOL    H40 1426   1.608   1.015   2.783  0.2542  0.0861  0.9992
    4MOL    H41 1427   1.703   1.149   2.731  1.4752 -0.0509  0.0815
    4MOL    H42 1428   1.772   0.862   2.653 -1.0739 -0.4198  0.1323
    4MOL    H43 1429   1.868   0.990   2.616 -0.7866  0.0898 -0.6706
    4MOL    H44 1430   1.670   1.314   2.321 -0.1608 -0.6544 -0.3673
    4MOL    H45 1431   1.495   1.378   2.159  3.8435  0.4310  0.9855
    4MOL    H46 1432   1.348   0.968   2.168 -0.0146  0.4663 -0.0221
    4MOL    H47 1433   1.528   0.919   2.347  0.3629  0.3705 -0.7906
    4MOL    O48 1434   1.204   1.324   1.877 -0.3280 -0.0516  0.0804
    4MOL    C49 1435   1.083   1.388   1.904 -0.0984  0.0119  0.5731
    4MOL    C50 1436   0.982   1.371   1.790  0.0866 -0.4550  0.5417
    4MOL    O51 1437   0.858   1.426   1.840  0.2449  0.0279  0.4631
    4MOL    C52 1438   0.777   1.348   1.921 -1.1811  0.6081  0.4879
    4MOL    O53 1439   0.801   1.226   1.945 -0.7509  0.4297 -1.1404
    4MOL    C54 1440   0.651   1.411   1.975 -0.0052 -1.3229  0.4314
    4MOL    C55 1441   0.578   1.346   2.082  0.7217 -0.1373 -0.0951
    4MOL    C56 1442   0.462   1.403   2.145  0.4293 -0.5941  1.1097
    4MOL    C57 1443   0.415   1.525   2.096  0.1859  0.7582 -1.0865
    4MOL    C58 1444   0.281   1.580   2.135  0.1590  0.1435  0.2162
    4MOL    O59 1445   0.227   1.668   2.065  0.5979 -0.1109 -0.4078
    4MOL    O60 1446   0.234   1.530   2.249  0.5108 -0.8528  0.3502
    4MOL    C61 1447   0.484   1.594   1.999  0.1429  0.5279 -0.2020
    4MOL    C62 1448   0.604   1.541   1.946  0.1429  0.1982 -0.2799
    4MOL    H63 1449   1.045   1.337   1.993 -3.3401  1.3577  0.0520
    4MOL    H64 1450   1.094   1.496   1.918 -0.2162  0.2031 -0.7500
    4MOL    H65 1451   0.972   1.267   1.761 -0.3278  0.1799 -1.6585
    4MOL    H66 1452   1.029   1.433   1.713 -1.4965  2.5415  1.8646
    4MOL    H67 1453   0.608   1.245   2.104  1.0395  0.0795  0.4958
    4MOL    H68 1454   0.416   1.342   2.221 -1.3266  0.3293  0.8145
    4MOL    H69 1455   0.455   1.688   1.953 -1.0071 -0.4694 -1.5734
    4MOL    H70 1456   0.648   1.601   1.867 -2.3432  3.5170  0.7519
    4MOL    O71 1457   0.087   1.554   2.266 -0.7311  0.1499  0.4456
    4MOL    C72 1458   0.066   1.676   2.339  0.1177  0.3404 -0.3375
    4MOL    C73 1459   0.147   1.670   2.475  0.3650 -0.1020 -0.4625
    4MOL    O74 1460   0.114   1.785   2.553  0.2663  0.4449  0.3218
    4MOL    C75 1461   0.047   1.770   2.670 -0.2412  0.0835  0.0306
    4MOL    O76 1462   0.012   1.666   2.725 -0.0821  0.8281 -0.6943
    4MOL    C77 1463   0.022   1.897   2.734  0.4061 -1.1215  0.3063
    4MOL    C78 1464   8.229   1.907   2.854  0.2099 -0.2694 -0.0908
    4MOL    C79 1465   8.189   2.032   2.910 -0.4272 -0.1431  0.2320
    4MOL    C80 1466   8.217   2.149   2.838  0.4669 -0.1373 -0.3655
    4MOL    C81 1467   8.176   2.280   2.895  0.3481 -0.2301 -0.2636
    4MOL    O82 1468   8.187   2.384   2.834  0.4402 -0.0092  0.3551
    4MOL    O83 1469   8.122   2.279   3.018 -0.4669  0.0652  0.4327
    4MOL    C84 1470   8.275   2.143   2.706  0.0939  0.4728 -0.7691
    4MOL    C85 1471   0.038   2.015   2.657 -0.8237 -0.4357 -0.8007
    4MOL    H86 1472   0.091   1.764   2.280  0.8025 -0.3566 -1.0991
    4MOL    H87 1473   8.235   1.679   2.360 -0.5473  2.7859 -3.6975
    4MOL    H88 1474   0.250   1.670   2.440  0.4322 -0.7137 -0.2764
    4MOL    H89 1475   0.127   1.576   2.527  2.4052  0.4847  1.4386
    4MOL    H90 1476   8.221   1.816   2.912 -1.2061 -0.3790 -0.4350
    4MOL    H91 1477   8.132   2.046   3.001 -2.1921  0.1519 -0.8974
    4MOL    H92 1478   0.008   2.235   2.650  1.8798 -1.2060 -3.3614
    4MOL    H93 1479   0.074   2.012   2.555  0.6542 -0.0400 -0.3034
    4MOL    O94 1480   8.105   2.411   3.085 -0.5813 -0.1932 -0.4611
    4MOL    C95 1481   7.987   2.467   3.025  0.7359 -0.4121  0.6377
    4MOL    C96 1482   7.857   2.385   3.032  0.2515 -0.5382  0.5788
    4MOL    O97 1483   7.859   2.288   2.929 -0.2220 -0.5279  0.1587
    4MOL    C98 1484   7.795   2.173   2.946 -0.3304  0.0593 -0.1063
    4MOL    O99 1485   7.719   2.149   3.034 -0.4204  0.5510 -1.2544
    4MOL   C100 1486   7.819   2.073   2.830  0.0179  0.0336 -0.2426
    4MOL   C101 1487   7.890   2.114   2.713 -0.3877 -0.7267  0.0868
    4MOL   C102 1488   7.916   2.022   2.612 -0.5601 -0.2609  0.1691
    4MOL   C103 1489   7.864   1.892   2.611  0.1708 -0.0543  0.5499
    4MOL   C104 1490   7.903   1.796   2.509 -0.4861 -0.0038  0.2194
    4MOL   O105 1491   7.972   1.826   2.413  0.3388 -0.1355  0.8194
    4MOL   O106 1492   7.870   1.672   2.540 -0.1584 -0.0601  0.2260
    4MOL   C107 1493   7.783   1.855   2.718 -0.1049  0.0523  0.4776
    4MOL   C108 1494   7.759   1.946   2.827 -0.0997  0.0872  0.0799
    4MOL   H109 1495   7.965   2.553   3.088  0.3691  0.0802 -0.1500
    4MOL   H110 1496   8.001   2.510   2.926 -1.6445  3.7611  2.0320
    4MOL   H111 1497   7.768   2.445   3.016 -0.2848 -1.3261  0.5511
    4MOL   H112 1498   7.843   2.345   3.133  0.8379  0.5014  1.0774
    4MOL   H113 1499   7.927   2.215   2.698  0.1724 -0.7844  1.0213
    4MOL   H114 1500   7.971   2.051   2.523  0.0740  1.7585  1.1839
    4MOL   H115 1501   7.730   1.761   2.718 -0.5999  0.1714 -5.1593
    4MOL   H116 1502   7.699   1.914   2.911  0.2204 -1.6450 -0.3292
    4MOL   O117 1503   7.911   1.573   2.435 -0.5268 -0.2725 -0.2673
    4MOL   C118 1504   8.036   1.515   2.476 -0.5916  0.1373 -0.3730
    4MOL   C119 1505   8.024   1.405   2.593 -0.2640 -0.1810  0.5420
    4MOL   O120 1506   8.013   1.470   2.719  0.2273 -0.5311 -0.2054
    4MOL   C121 1507   8.052   1.415   2.835 -0.0249 -0.2652 -0.3646
    4MOL   O122 1508   8.091   1.299   2.848  0.1026  0.3343  0.1558
    4MOL   C123 1509   8.041   1.512   2.945 -0.9615  0.5164 -0.0342
    4MOL   C124 1510   8.001   1.648   2.918 -0.0693 -0.3409 -0.0590
    4MOL   C125 1511   7.999   1.743   3.020 -0.2524 -0.8454 -0.3957
    4MOL   C126 1512   8.022   1.707   3.154 -0.1005 -0.2238  0.1015
    4MOL   C127 1513   7.998   1.811   3.255  0.3317 -0.1429  0.6274
    4MOL   O128 1514   8.012   1.936   3.234  0.4114 -0.0003 -0.4773
    4MOL   O129 1515   7.939   1.769   3.370 -1.0630 -0.3340  0.3339
    4MOL   C130 1516   8.059   1.579   3.180 -0.2713  0.6122  0.1560
    4MOL   C131 1517   8.062   1.481   3.082  0.2929 -0.4266 -0.2331
    4MOL   H132 1518   8.086   1.488   2.383  0.3636  2.2356 -0.4723
    4MOL   H133 1519   8.107   1.588   2.515 -0.3227 -0.6812  0.6940
    4MOL   H134 1520   8.106   1.333   2.587 -0.9629 -0.7635 -2.9950
    4MOL   H135 1521   7.936   1.341   2.587  0.5107 -0.9935 -3.0246
    4MOL   H136 1522   7.979   1.681   2.817 -0.3462  0.9383  0.4246
    4MOL   H137 1523   7.971   1.844   2.995  2.3501  0.1018  0.4326
    4MOL   H138 1524   8.076   1.550   3.282  1.4925  1.2810  0.0710
    4MOL   H139 1525   8.098   1.383   3.109  3.7017  0.8473  0.1097
    4MOL   O140 1526   7.893   1.875   3.468 -0.4867 -0.8942 -0.6159
    4MOL   C141 1527   7.752   1.902   3.452 -0.1179 -0.4119  0.7211
    4MOL   C142 1528   7.706   1.949   3.311  1.1534 -0.5396  0.0976
    4MOL   O143 1529   7.579   2.006   3.325  0.4796  0.0270  0.7973
    4MOL   C144 1530   7.484   1.994   3.229 -0.0611  0.2559  0.2511
    4MOL   O145 1531   7.495   1.922   3.125 -0.2274 -0.2000 -0.0764
    4MOL   C146 1532   7.362   2.073   3.264 -0.2847  0.5362 -0.2768
    4MOL   C147 1533   7.263   2.083   3.167  0.0224 -0.1972  0.4683
    4MOL   C148 1534   7.143   2.152   3.196  0.1968  0.5682 -0.4268
    4MOL   C149 1535   7.120   2.200   3.332  0.0096  0.4964  0.1662
    4MOL   C150 1536   6.996   2.276   3.374  0.2420  0.0258  0.0915
    4MOL   O151 1537   6.898   2.284   3.302  0.1802 -0.5721 -0.7805
    4MOL   O152 1538   7.000   2.339   3.500 -0.1390 -0.2531 -0.0936
    4MOL   C153 1539   7.223   2.184   3.431  0.0083 -0.1760 -0.1792
    4MOL   C154 1540   7.346   2.121   3.394 -0.2059  0.1746  0.0084
    4MOL   H155 1541   7.692   1.815   3.479 -0.4475 -0.5927 -0.5693
    4MOL   H156 1542   7.722   1.980   3.523  3.2811  1.4651  0.1796
    4MOL   H157 1543   7.693   1.862   3.247  1.0473 -0.9678  0.6945
    4MOL   H158 1544   7.775   2.018   3.262  1.0216 -0.2897  0.2623
    4MOL   H159 1545   7.274   2.051   3.064 -0.7791  1.2252 -0.0644
    4MOL   H160 1546   7.078   2.187   3.117  0.8933  1.1511 -0.7481
    4MOL   H161 1547   7.230   2.221   3.533  2.1486  2.5127 -1.2265
    4MOL   H162 1548   7.422   2.109   3.470 -0.7197  0.5544  0.5840
    4MOL   O163 1549   6.893   2.437   3.519 -0.2268 -0.6051  0.3515
    4MOL   C164 1550   6.787   2.373   3.584  0.2297 -0.2501 -0.2513
    4MOL   C165 1551   6.828   2.345   3.723  0.4390  1.1521 -0.2963
    4MOL   O166 1552   6.801   2.213   3.774 -0.0340  0.6578 -0.1828
    4MOL   C167 1553   6.888   2.114   3.748 -0.7133  0.5820 -0.0342
    4MOL   O168 1554   6.997   2.126   3.686  0.1022 -0.3738  0.4276
    4MOL   C169 1555   6.848   1.986   3.804 -0.0541 -0.7757  0.1767
    4MOL   C170 1556   6.717   1.960   3.845 -0.7551  0.3758  0.2273
    4MOL   C171 1557   6.675   1.835   3.887 -0.8386  0.3559  0.1212
    4MOL   C172 1558   6.769   1.730   3.901  0.2664  0.1805 -0.0865
    4MOL   C173 1559   6.734   1.590   3.940  0.2587 -0.5993 -0.3163
    4MOL   O174 1560   6.615   1.559   3.955 -0.0499 -0.6412 -0.2925
    4MOL   O175 1561   6.837   1.521   3.977 -0.0255  0.0705 -0.1230
    4MOL   C176 1562   6.902   1.761   3.865 -0.8308 -0.5590 -0.3445
    4MOL   C177 1563   6.944   1.888   3.822  0.0506 -0.4719  0.1867
    4MOL   H178 1564   6.708   2.448   3.585  0.4439 -0.0215 -0.3839
    4MOL   H179 1565   6.751   2.286   3.529  2.0779 -0.3525 -1.3740
    4MOL   H180 1566   6.769   2.399   3.797 -2.2599 -2.4659  0.3441
    4MOL   H181 1567   6.934   2.369   3.734  0.2838  1.5491  0.4060
    4MOL   H182 1568   6.638   2.033   3.842 -0.0953  1.0603 -1.1908
    4MOL   H183 1569   6.570   1.819   3.907 -0.9084 -1.0927 -1.2508
    4MOL   H184 1570   6.970   1.678   3.877  1.0116  0.6587 -2.1050
    4MOL   H185 1571   7.050   1.903   3.807  0.0246 -0.7243 -0.2477
    4MOL   O186 1572   6.792   1.381   4.014 -0.4998 -0.1396 -0.0902
    4MOL   C187 1573   6.831   1.291   3.914  0.8815 -0.5963  0.2880
    4MOL   C188 1574   6.742   1.170   3.915 -0.2504 -0.3580  0.1764
    4MOL   O189 1575   6.803   1.079   3.825  0.2463  0.2117 -0.5048
    4MOL   C190 1576   6.782   1.085   3.700  0.2041 -0.6162  0.6268
    4MOL   O191 1577   6.749   1.192   3.646 -0.1553 -0.2193  0.3120
    4MOL   C192 1578   6.787   0.957   3.633 -0.3688  0.4606 -0.4474
    4MOL   C193 1579   6.788   0.957   3.493 -0.0801  0.3862 -0.5043
    4MOL   C194 1580   6.807   0.836   3.426 -0.8902 -0.6789 -0.1280
    4MOL   C195 1581   6.809   0.717   3.494 -0.0804  0.2723 -0.2847
    4MOL   C196 1582   6.833   0.588   3.428  0.0980  0.3603  0.8064
    4MOL   O197 1583   6.844   0.570   3.308 -0.2021  0.4476 -0.3886
    4MOL   O198 1584   6.847   0.490   3.513 -0.0234  0.3755 -0.5655
    4MOL   C199 1585   6.797   0.718   3.634  0.8176 -0.2729 -0.4319
    4MOL   C200 1586   6.794   0.839   3.703 -0.7479 -0.4412 -0.0937
    4MOL   H201 1587   6.811   1.349   3.824 -0.2693  0.2899  1.1000
    4MOL   H202 1588   6.934   1.257   3.923  0.4831 -1.6484  0.8453
    4MOL   H203 1589   6.643   1.193   3.876  0.0569  1.2871  0.3311
    4MOL   H204 1590   6.736   1.139   4.020 -0.5143 -1.6306 -0.2046
    4MOL   H205 1591   6.782   1.046   3.432 -1.0549  0.2113 -0.6612
    4MOL   H206 1592   6.826   0.839   3.319  0.0797 -1.5758  0.0185
    4MOL   H207 1593   6.782   0.628   3.691  0.9659 -0.2705 -0.3897
    4MOL   H208 1594   6.793   0.840   3.811 -3.0031 -2.4605 -0.0516
    4MOL   O209 1595   6.823   0.353   3.458  0.7839  0.0485  0.3861
    4MOL   C210 1596   6.680   0.335   3.457 -0.4930 -0.6112  0.5650
    4MOL   C211 1597   6.596   0.377   3.584 -0.4094  0.3376  0.1786
    4MOL   O212 1598   6.574   0.272   3.680 -0.4433 -0.4653 -0.0145
    4MOL   C213 1599   6.664   0.251   3.779 -0.2218 -0.6969 -0.1843
    4MOL   O214 1600   6.752   0.331   3.799  0.2502 -0.0275 -0.4826
    4MOL   C215 1601   6.645   0.123   3.853  0.2279 -0.3642  0.6470
    4MOL   C216 1602   6.551   0.031   3.802  0.3867 -0.3224  0.2389
    4MOL   C217 1603   6.543   8.171   3.843 -0.1924 -0.0034  0.3089
    4MOL   C218 1604   6.635   8.128   3.946  0.4275  0.3904  0.3617
    4MOL   C219 1605   6.631   7.987   3.974  0.3126 -0.1647  0.2217
    4MOL   O220 1606   6.550   7.904   3.929 -0.0622 -0.8140  0.0263
    4MOL   O221 1607   6.739   7.948   4.062  0.7125  0.3099 -0.2969
    4MOL   C222 1608   6.723   8.222   4.009  0.3604 -0.9343  0.0682
    4MOL   C223 1609   6.729   0.082   3.961  0.4773 -0.9551 -0.0748
    4MOL   H224 1610   6.643   0.403   3.381  1.7610  0.7848  0.6721
    4MOL   H225 1611   6.664   0.235   3.415 -2.2366  0.1583 -0.6580
    4MOL   H226 1612   6.496   0.412   3.557 -1.0955 -0.4233  1.6829
    4MOL   H227 1613   6.635   0.463   3.640  0.8901  0.7918 -1.3950
    4MOL   H228 1614   6.477   0.068   3.732 -0.8986 -1.4174  0.9917
    4MOL   H229 1615   6.468   8.106   3.803 -1.7139  0.2894  2.6247
    4MOL   H230 1616   6.784   8.193   4.093 -1.9374  0.9861  2.5017
    4MOL   H231 1617   6.804   0.148   4.000 -0.3686 -0.2246  0.3050
    4MOL   O232 1618   6.735   7.805   4.094 -0.0898 -0.2628 -0.0458
    4MOL   C233 1619   6.833   7.740   4.016 -0.3208  0.1206 -0.8085
    4MOL   C234 1620   6.751   7.631   3.953  0.0577  0.3127  0.2530
    4MOL   O235 1621   6.733   7.530   4.050 -0.4043  0.6224  0.3358
    4MOL   C236 1622   6.839   7.449   4.088 -0.1750 -0.2477  0.4149
    4MOL   O237 1623   6.951   7.456   4.044 -0.1686  0.5176  0.2407
    4MOL   C238 1624   6.793   7.354   4.192 -0.5996 -0.2289 -0.3758
    4MOL   C239 1625   6.682   7.374   4.279 -0.8497 -0.0483 -0.1988
    4MOL   C240 1626   6.652   7.280   4.380  0.4843 -0.4594  0.6327
    4MOL   C241 1627   6.739   7.171   4.400 -0.3009 -0.5715 -0.3909
    4MOL   C242 1628   6.701   7.066   4.503 -0.5057 -0.3045  0.1175
    4MOL   O243 1629   6.760   6.959   4.520 -0.0742  0.5738  0.6401
    4MOL   O244 1630   6.594   7.109   4.581 -0.8077  0.2392  0.2797
    4MOL   C245 1631   6.852   7.158   4.321 -0.2751  0.2749  0.2199
    4MOL   C246 1632   6.887   7.256   4.228  1.0872  0.4484  0.5028
    4MOL   H247 1633   6.866   7.810   3.940  1.3457  0.5749  0.2919
    4MOL   H248 1634   6.919   7.709   4.075 -0.4028  1.9141  0.2881
    4MOL   H249 1635   6.816   7.596   3.872 -0.6485  0.3985 -0.3599
    4MOL   H250 1636   6.661   7.674   3.909 -0.3646  0.9554  1.7260
    4MOL   H251 1637   6.619   7.458   4.253 -1.2727 -0.0293  0.8599
    4MOL   H252 1638   6.563   7.292   4.439 -0.3216 -1.1754 -0.4046
    4MOL   H253 1639   6.915   7.071   4.336 -0.1557 -0.0095 -1.7059
    4MOL   H254 1640   6.979   7.250   4.172  1.0340  0.2758  0.4338
    4MOL   O255 1641   6.541   6.997   4.672 -0.9795  0.0436 -0.2591
    4MOL   C256 1642   6.612   7.004   4.796  0.0338  0.5954  0.4322
    4MOL   C257 1643   6.547   6.911   4.894  0.0756 -0.2473  0.1434
    4MOL   O258 1644   6.604   6.783   4.865  1.0307  0.0553 -0.0189
    4MOL   C259 1645   6.551   6.680   4.923  0.2969 -0.3476  0.2928
    4MOL   O260 1646   6.457   6.681   4.994  0.6708 -0.0716  0.5305
    4MOL   C261 1647   6.618   6.550   4.893  0.5207  0.7656 -0.2417
    4MOL   C262 1648   6.731   6.540   4.812  0.2545  0.2879  0.0005
    4MOL   C263 1649   6.804   6.421   4.800  0.0877 -0.2413 -0.4137
    4MOL   C264 1650   6.775   6.313   4.891 -0.5227  0.4541 -0.8684
    4MOL   C265 1651   6.873   6.206   4.919  0.2728  0.2391  0.0429
    4MOL   O266 1652   6.848   6.115   4.998 -0.4844 -0.7532 -0.0093
    4MOL   O267 1653   6.979   6.224   4.847  0.6214  0.1121  0.1558
    4MOL   C268 1654   6.658   6.319   4.969 -0.4035  0.0135 -0.0225
    4MOL   C269 1655   6.577   6.432   4.963  0.3477  0.6283 -0.5507
    4MOL   H270 1656   6.719   6.986   4.786 -0.2173  0.1071 -1.5218
    4MOL   H271 1657   6.603   7.107   4.832  0.7133  0.3627  1.3178
    4MOL   H272 1658   6.439   6.907   4.908  0.3250 -2.9334  1.6961
    4MOL   H273 1659   6.584   6.945   4.991 -0.2873 -0.8078  0.4820
    4MOL   H274 1660   6.767   6.621   4.752  1.1765  0.7081  1.1182
    4MOL   H275 1661   6.890   6.423   4.734  0.5327  1.1038  0.1835
    4MOL   H276 1662   6.632   6.237   5.034  0.1521  0.3650  0.6418
    4MOL   H277 1663   6.493   6.445   5.029 -0.7742  0.9219 -2.0044
    4MOL   O278 1664   7.042   6.101   4.806 -0.1745  0.6435  0.2534
    4MOL   C279 1665   7.167   6.094   4.877  0.3063  0.3001 -0.0019
    4MOL   C280 1666   7.268   6.206   4.836 -0.4950 -0.4080 -0.2054
    4MOL   O281 1667   7.227   6.328   4.894 -0.1262  0.1968 -0.1627
    4MOL   C282 1668   7.278   6.441   4.843 -0.4481  0.1124 -0.4374
    4MOL   O283 1669   7.381   6.444   4.770 -0.1884 -0.1803  0.0977
    4MOL   C284 1670   7.204   6.559   4.884 -0.1403 -0.0423 -0.2550
    4MOL   C285 1671   7.261   6.689   4.868 -0.0554  0.1240  0.7951
    4MOL   C286 1672   7.198   6.805   4.914 -0.4872  0.1531  0.2515
    4MOL   C287 1673   7.069   6.795   4.977 -0.3410  0.0228 -0.4837
    4MOL   C288 1674   7.002   6.916   5.038 -0.1696 -0.2194 -0.2482
    4MOL   O289 1675   6.883   6.926   5.037 -0.4369 -0.2274  0.4536
    4MOL   O290 1676   7.089   7.003   5.092  0.1441 -0.0938  0.0817
    4MOL   C291 1677   7.015   6.667   5.005 -0.6652  0.1392  0.3806
    4MOL   C292 1678   7.079   6.550   4.952 -0.0278 -0.3491  0.4839
    4MOL   H293 1679   7.155   6.091   4.985  0.8141 -1.1097  0.0312
    4MOL   H294 1680   7.213   5.999   4.849 -0.3811 -0.2184  0.6150
    4MOL   H295 1681   7.257   6.215   4.728  1.2313  0.7767 -0.2965
    4MOL   H296 1682   7.369   6.199   4.876 -1.7753 -1.2070  3.0587
    4MOL   H297 1683   7.357   6.695   4.818  0.3629 -1.5355  1.3760
    4MOL   H298 1684   7.241   6.902   4.895 -0.8594  0.1529 -0.6211
    4MOL   H299 1685   6.924   6.659   5.062 -1.5206  1.8119 -0.7086
    4MOL   H300 1686   7.037   6.453   4.973  1.7461 -1.2210  0.0567
    4MOL   O301 1687   7.026   7.114   5.174 -0.4210 -0.5580  0.2306
    4MOL   C302 1688   7.032   7.081   5.316 -0.8488  0.5447 -0.4726
    4MOL   C303 1689   7.173   7.090   5.374  0.2374  0.5333  0.2048
    4MOL   O304 1690   7.257   6.995   5.317  0.0811  0.4005  0.0490
    4MOL   C305 1691   7.389   7.002   5.336  0.2296 -0.3385  1.0369
    4MOL   O306 1692   7.443   7.084   5.403 -0.1842 -0.3485  0.0767
    4MOL   C307 1693   7.457   6.896   5.264 -0.2969 -0.2307  0.3768
    4MOL   C308 1694   7.596   6.908   5.247 -0.1036  0.3797  0.8321
    4MOL   C309 1695   7.666   6.811   5.170  0.9441  0.1639 -0.2554
    4MOL   C310 1696   7.606   6.694   5.119  0.4576  0.4663 -0.3842
    4MOL   C311 1697   7.681   6.593   5.041  0.0399 -0.3368  0.1648
    4MOL   O312 1698   7.798   6.607   5.005 -0.2484  0.2690  0.3997
    4MOL   O313 1699   7.614   6.479   5.021 -0.1813  0.1489 -0.0123
    4MOL   C314 1700   7.461   6.685   5.136  0.5624 -0.0576  0.7760
    4MOL   C315 1701   7.391   6.790   5.201  0.1636  0.4538 -0.3366
    4MOL   H316 1702   6.959   7.150   5.360 -0.7847  0.1622  0.2365
    4MOL   H317 1703   6.993   6.980   5.326 -1.8804  1.0364  0.7052
    4MOL   H318 1704   7.167   7.083   5.482 -3.0514 -0.6641 -0.0200
    4MOL   H319 1705   7.198   7.196   5.360 -0.5784  0.7729  0.5747
    4MOL   H320 1706   7.643   6.995   5.292  1.5036  0.5395 -1.0601
    4MOL   H321 1707   7.773   6.825   5.158  1.0590 -0.5348 -0.0996
    4MOL   H322 1708   7.404   6.602   5.098 -0.3552  0.5327  0.8486
    4MOL   H323 1709   7.284   6.789   5.213  0.0702  1.8082 -0.8913
    4MOL   O324 1710   7.702   6.363   4.987  0.2408 -0.0614 -0.6838
    4MOL   C325 1711   7.750   6.301   5.109 -0.5086 -0.1780 -0.1835
    4MOL   C326 1712   7.651   6.197   5.168 -0.3312  0.4509 -0.1829
    4MOL   O327 1713   7.556   6.282   5.231  0.7977  0.0785  0.1581
    4MOL   C328 1714   7.421   6.260   5.210  0.6016 -0.3807  0.2918
    4MOL   O329 1715   7.370   6.170   5.142 -0.4577 -0.1883 -0.1385
    4MOL   C330 1716   7.332   6.357   5.271  0.0453 -0.0275  0.9022
    4MOL   C331 1717   7.195   6.357   5.244  0.2903  0.5440 -0.0908
    4MOL   C332 1718   7.111   6.450   5.303  0.0147 -0.0751  0.4912
    4MOL   C333 1719   7.171   6.560   5.379 -0.2134 -0.1074 -0.1293
    4MOL   C334 1720   7.081   6.673   5.421  0.9421 -0.1257 -0.3162
    4MOL   O335 1721   6.965   6.683   5.385  0.2739  0.0467 -0.3085
    4MOL   O336 1722   7.133   6.760   5.510  0.2053 -0.4840  0.0128
    4MOL   C337 1723   7.310   6.559   5.406  0.1380  0.0723  0.5345
    4MOL   C338 1724   7.391   6.456   5.351  0.3864 -0.8468 -0.0084
    4MOL   H339 1725   7.836   6.237   5.088 -0.4964  0.3008 -1.6210
    4MOL   H340 1726   7.779   6.375   5.183 -0.9742 -0.5712  0.3954
    4MOL   H341 1727   7.684   6.130   5.248  0.1589  1.2419  0.2839
    4MOL   H342 1728   7.602   6.144   5.086 -1.7575  1.0276  0.2672
    4MOL   H343 1729   7.154   6.275   5.187  0.5826  0.6615 -0.4735
    4MOL   H344 1730   7.004   6.440   5.291  0.0464 -2.0487  1.5794
    4MOL   H345 1731   7.360   6.633   5.466  0.9234  0.7229 -0.8921
    4MOL   H346 1732   7.496   6.457   5.379  0.2912  0.0704  0.3575
    4MOL   O347 1733   7.036   6.872   5.535 -0.3792  0.1280  0.0231
    4MOL   C348 1734   6.957   6.844   5.641 -0.0182  0.1291  0.6470
    4MOL   C349 1735   6.864   6.963   5.674 -0.1496 -0.0586 -0.0558
    4MOL   O350 1736   6.899   7.022   5.792  0.1856 -0.0287  0.5944
    4MOL   C351 1737   7.011   7.090   5.805 -0.6406 -0.4409 -0.4036
    4MOL   O352 1738   7.093   7.097   5.717  0.1157 -0.6009  0.2623
    4MOL   C353 1739   7.030   7.156   5.937 -0.2129  0.1085  0.4724
    4MOL   C354 1740   7.130   7.253   5.961  0.0177 -0.4213 -0.4505
    4MOL   C355 1741   7.142   7.318   6.084  0.4496 -0.0358 -0.2682
    4MOL   C356 1742   7.054   7.285   6.197 -0.2055 -0.6736 -0.2192
    4MOL   C357 1743   7.072   7.344   6.333 -0.1314 -0.1932  0.3752
    4MOL   O358 1744   7.027   7.295   6.434  0.1677  0.1427 -0.5799
    4MOL   O359 1745   7.147   7.461   6.327  0.2337  0.2867  0.0308
    4MOL   C360 1746   6.965   7.174   6.177  0.1679 -0.0254  0.0629
    4MOL   C361 1747   6.950   7.119   6.051  0.4067  0.0416  0.2872
    4MOL   H362 1748   6.891   6.760   5.617  1.1402 -0.2095 -1.4600
    4MOL   H363 1749   7.033   6.819   5.716  0.1921  0.8315  0.6730
    4MOL   H364 1750   6.760   6.933   5.688  0.1527 -0.8369  0.5810
    4MOL   H365 1751   6.866   7.036   5.593 -1.8713  2.0036  1.7192
    4MOL   H366 1752   7.204   7.277   5.885  1.5347 -0.2144  1.0586
    4MOL   H367 1753   7.224   7.387   6.097  0.7424 -0.5837  0.8209
    4MOL   H368 1754   6.904   7.146   6.261 -0.3859  0.4870 -0.1632
    4MOL   H369 1755   6.869   7.049   6.038 -0.0888  0.1475  2.6070
    4MOL   O370 1756   7.192   7.521   6.464 -0.1632  0.1667  0.2923
    4MOL   C371 1757   7.333   7.501   6.483 -0.0765  0.0121  0.3178
    4MOL   C372 1758   7.404   7.609   6.416  0.0189 -0.1614  0.4460
    4MOL   O373 1759   7.423   7.721   6.498 -0.1683  0.5008 -0.0127
    4MOL   C374 1760   7.542   7.732   6.569 -0.1288  0.3364  0.3266
    4MOL   O375 1761   7.623   7.639   6.583  0.4640 -0.0962  0.0488
    4MOL   C376 1762   7.570   7.857   6.629 -0.7286  0.3226  0.6619
    4MOL   C377 1763   7.481   7.970   6.623  0.3220  0.0681  0.0444
    4MOL   C378 1764   7.509   8.095   6.688 -0.0229 -0.2392 -0.0966
    4MOL   C379 1765   7.623   8.098   6.770  0.3611  0.1907 -0.5974
    4MOL   C380 1766   7.638   8.224   6.848 -0.0217  0.2133  0.7768
    4MOL   O381 1767   7.560   0.051   6.841 -0.4981  0.5416 -0.5674
    4MOL   O382 1768   7.746   8.221   6.926 -0.2594  0.3367  0.1019
    4MOL   C383 1769   7.703   7.985   6.787  0.2265 -0.4553 -0.0695
    4MOL   C384 1770   7.686   7.868   6.713 -0.3437  0.1348 -0.1282
    4MOL   H385 1771   7.357   7.490   6.588 -2.9085 -0.2498  0.9653
    4MOL   H386 1772   7.357   7.402   6.445  0.2626 -0.7008  2.3244
    4MOL   H387 1773   7.351   7.650   6.331 -2.8823 -0.7966  1.8936
    4MOL   H388 1774   7.499   7.577   6.371 -1.5049 -1.2871 -2.0875
    4MOL   H389 1775   7.393   7.964   6.561 -0.3242 -1.6856  1.0962
    4MOL   H390 1776   7.457   8.187   6.667  1.5543  0.4278 -1.1563
    4MOL   H391 1777   7.786   7.987   6.857 -0.3817  1.1577  0.6296
    4MOL   H392 1778   7.754   7.786   6.734 -0.0073  0.7909  1.4128
    4MOL   O393 1779   7.803   0.076   6.972 -0.1634  0.0962 -0.5372
    4MOL   C394 1780   7.895   0.126   6.869  0.0588 -0.1681 -0.3427
    4MOL   C395 1781   8.006   0.211   6.933  0.1090  0.0029  0.0504
    4MOL   O396 1782   7.961   0.340   6.987 -0.1683  0.3497  0.2190
    4MOL   C397 1783   8.048   0.442   6.995  0.9517  0.7697 -0.1597
    4MOL   O398 1784   8.166   0.440   6.961  0.4878  0.7795 -0.0388
    4MOL   C399 1785   7.978   0.570   7.034 -0.1702  0.6768 -0.5123
    4MOL   C400 1786   8.046   0.695   7.029 -0.3255 -0.1524  0.2054
    4MOL   C401 1787   7.978   0.812   7.064 -0.6396  0.5326  0.2928
    4MOL   C402 1788   7.846   0.809   7.110  0.2499 -0.5319 -0.7882
    4MOL   C403 1789   7.779   0.945   7.129  0.5154 -0.5810 -0.4310
    4MOL   O404 1790   7.837   1.050   7.112  0.3256  0.1174  0.2993
    4MOL   O405 1791   7.645   0.930   7.162  0.4715 -0.8367  0.6257
    4MOL   C406 1792   7.774   0.688   7.115  0.7292 -0.7343  0.0492
    4MOL   C407 1793   7.840   0.571   7.078  0.2055 -0.3040  0.2902
    4MOL   H408 1794   7.932   0.041   6.812 -0.4044  0.2981 -1.3420
    4MOL   H409 1795   7.845   0.187   6.795 -1.4289 -0.2031  0.5985
    4MOL   H410 1796   8.074   0.228   6.850 -1.0043 -1.8611 -1.2811
    4MOL   H411 1797   8.064   0.160   7.011  2.7765  1.3541 -1.0005
    4MOL   H412 1798   8.153   0.696   7.015 -0.3473 -1.4422 -0.0605
    4MOL   H413 1799   8.039   0.901   7.058 -1.0402  0.9302  1.9803
    4MOL   H414 1800   7.671   0.681   7.146  0.5187 -0.9352 -0.6798
    4MOL   H415 1801   7.781   0.480   7.084 -1.4620  0.7298 -0.2675
    4MOL   O416 1802   7.565   1.043   7.116  0.3217 -0.1361  0.6162
    4MOL   C417 1803   7.518   1.020   6.986  0.0157 -0.8763  0.0135
    4MOL   C418 1804   7.447   1.150   6.958  0.2687  0.6255 -0.2590
    4MOL   O419 1805   7.413   1.147   6.820 -1.0519 -0.4726 -0.6383
    4MOL   C420 1806   7.502   1.191   6.727 -1.2862  0.5390 -0.1795
    4MOL   O421 1807   7.612   1.241   6.760  0.3788  0.1571 -0.4931
    4MOL   C422 1808   7.446   1.189   6.591  0.0241 -0.1084  0.8909
    4MOL   C423 1809   7.519   1.254   6.486  0.0970 -0.2132  0.1553
    4MOL   C424 1810   7.473   1.245   6.352 -0.7015 -0.0589  0.4474
    4MOL   C425 1811   7.359   1.176   6.322 -0.5194  0.2627 -0.1884
    4MOL   C426 1812   7.321   1.178   6.180 -0.3475 -1.3047 -0.0074
    4MOL   O427 1813   7.391   1.194   6.081 -0.2139  0.0739  0.5596
    4MOL   O428 1814   7.190   1.167   6.169  0.2504  0.2713  0.3894
    4MOL   C429 1815   7.286   1.109   6.422  0.2689 -0.4999  0.4748
    4MOL   C430 1816   7.322   1.126   6.558  0.5583  0.0959  0.4679
    4MOL   H431 1817   7.598   1.005   6.912 -0.9308 -1.8903 -0.8154
    4MOL   H432 1818   7.459   0.929   6.993  0.4214 -0.9953  2.3798
    4MOL   H433 1819   7.511   1.231   6.994 -2.8043  2.8327  0.4038
    4MOL   H434 1820   7.358   1.169   7.017 -0.4046 -0.3615 -0.9420
    4MOL   H435 1821   7.609   1.309   6.512  1.3232 -1.7146 -0.8041
    4MOL   H436 1822   7.534   1.294   6.277 -1.0789  1.0387  0.8558
    4MOL   H437 1823   7.200   1.050   6.393  0.7889 -0.7896 -0.5186
    4MOL   H438 1824   7.253   1.088   6.632 -1.0461  0.5678 -0.7593
    4MOL   O439 1825   7.143   1.136   6.034  0.2634  0.2704  0.5170
    4MOL   C440 1826   7.109   0.995   6.029 -0.1503 -0.1792  0.2486
    4MOL   C441 1827   7.051   0.954   5.894 -0.2907  0.2688  0.8931
    4MOL   O442 1828   6.915   0.973   5.911 -0.4160 -0.6535 -0.3264
    4MOL   C443 1829   6.841   1.005   5.808  0.0023 -0.4098  0.1106
    4MOL   O444 1830   6.887   1.053   5.703 -0.2444  0.4655 -0.2948
    4MOL   C445 1831   6.694   0.985   5.833  0.0708  0.1835  0.6189
    4MOL   C446 1832   6.604   1.041   5.742  0.2849  0.0004  0.1390
    4MOL   C447 1833   6.471   1.012   5.748  0.5210 -0.1748  0.1507
    4MOL   C448 1834   6.424   0.915   5.846 -0.1762  0.3309  0.3592
    4MOL   C449 1835   6.281   0.862   5.842 -0.7275  0.1953 -0.0803
    4MOL   O450 1836   6.242   0.786   5.926 -0.3232 -0.5135  0.0863
    4MOL   O451 1837   6.204   0.905   5.746 -0.0834 -0.9794  0.0380
    4MOL   C452 1838   6.512   0.852   5.932 -0.1676  0.0152  0.6202
    4MOL   C453 1839   6.649   0.894   5.929 -0.1548 -0.4184  0.2143
    4MOL   H454 1840   7.204   0.942   6.038 -1.3953 -2.6425 -0.5717
    4MOL   H455 1841   7.059   0.960   6.119 -0.6080  2.6780  1.1465
    4MOL   H456 1842   7.078   0.851   5.874  1.2183  0.8074  0.0548
    4MOL   H457 1843   7.095   1.007   5.809 -0.4878 -0.5871  0.2443
    4MOL   H458 1844   6.630   1.100   5.655 -0.2407 -0.2622 -0.1980
    4MOL   H459 1845   6.401   1.033   5.668 -1.4740  1.5583  2.2871
    4MOL   H460 1846   6.483   0.770   5.996  2.0153 -0.7434  0.7035
    4MOL   H461 1847   6.714   0.833   5.990 -0.0217  0.7888  1.2928
    4MOL   H462 1848   6.123   0.869   5.777 -0.7726  0.7659  0.3504
    5MOL     O1 1849   4.235   1.324   6.811  0.3423 -0.6467  0.3580
    5MOL     C2 1850   4.201   1.326   6.677 -0.1989 -0.6297 -0.1115
    5MOL     C3 1851   4.042   1.315   6.659 -0.9048 -0.7379 -0.3838
    5MOL     O4 1852   3.997   1.187   6.691 -0.2535 -0.0726  0.2157
    5MOL     C5 1853   3.974   1.096   6.595  0.1049 -0.3489  0.2487
    5MOL     O6 1854   3.995   1.113   6.476 -0.1862  0.1917 -0.2165
    5MOL     C7 1855   3.931   0.967   6.651  0.4506  0.0258  0.7467
    5MOL     C8 1856   3.908   0.946   6.793 -0.7592 -0.7140 -0.3162
    5MOL     C9 1857   3.860   0.820   6.837 -0.4417 -0.0128  0.0169
    5MOL    C10 1858   3.826   0.715   6.744  1.2065 -0.7487 -0.4077
    5MOL    C11 1859   3.768   0.583   6.784  0.9312 -0.5584 -0.3637
    5MOL    O12 1860   3.708   0.567   6.888  0.1064  0.0877 -0.5946
    5MOL    O13 1861   3.776   0.489   6.681  0.1698 -0.1641  0.0479
    5MOL    C14 1862   3.847   0.741   6.609  0.2631  0.8774  0.1457
    5MOL    C15 1863   3.899   0.867   6.557 -0.1018  0.4539  0.1035
    5MOL    H16 1864   4.237   1.422   6.639  1.7136 -1.3726 -0.1945
    5MOL    H17 1865   4.260   1.253   6.622 -1.7363 -1.6928 -0.3991
    5MOL    H18 1866   4.016   1.340   6.556  0.4963  0.0707 -0.5574
    5MOL    H19 1867   3.995   1.382   6.732  0.6367  0.2623 -0.2905
    5MOL    H20 1868   3.910   1.033   6.856  0.4493  0.8543 -2.4696
    5MOL    H21 1869   3.833   0.807   6.941 -0.1257 -3.4083 -0.2692
    5MOL    H22 1870   3.811   0.666   6.540  0.4910  2.1135 -1.3345
    5MOL    H23 1871   3.918   0.861   6.451  0.3456  0.5222  0.1787
    5MOL    H24 1872   4.262   1.239   6.842  0.3566 -0.2624  1.4288
    5MOL    O25 1873   3.694   0.366   6.709 -0.0054  0.3307 -0.3829
    5MOL    C26 1874   3.766   0.261   6.778  0.0090 -0.5529 -0.0571
    5MOL    C27 1875   3.898   0.225   6.710 -0.0502 -0.0459  0.3048
    5MOL    O28 1876   3.903   0.085   6.688 -0.2256 -0.6774 -0.5493
    5MOL    C29 1877   4.019   0.028   6.644 -0.0068 -0.8282 -0.6498
    5MOL    O30 1878   4.111   0.107   6.605 -0.1376  0.0038  0.3543
    5MOL    C31 1879   4.030   8.159   6.647  0.4571 -0.6469 -0.1836
    5MOL    C32 1880   3.909   8.090   6.666  0.6801  0.0249  0.5708
    5MOL    C33 1881   3.908   7.953   6.684 -0.4353 -0.0822 -0.2454
    5MOL    C34 1882   4.029   7.876   6.687 -0.5954  0.8749  0.6390
    5MOL    C35 1883   4.032   7.735   6.726 -0.9592  0.2967 -0.7129
    5MOL    O36 1884   4.135   7.673   6.732 -0.0043 -0.5390 -0.4421
    5MOL    O37 1885   3.910   7.681   6.757  0.1152  0.3594  0.2699
    5MOL    C38 1886   4.147   7.945   6.666  0.3554  0.2696 -0.6018
    5MOL    C39 1887   4.154   8.084   6.643  0.8138 -0.2267 -0.1284
    5MOL    H40 1888   3.784   0.292   6.881 -3.2387  0.5186  0.2486
    5MOL    H41 1889   3.708   0.169   6.788  1.5584 -1.3374  2.0463
    5MOL    H42 1890   3.981   0.271   6.765 -0.2694  0.9982 -0.2304
    5MOL    H43 1891   3.896   0.280   6.616 -0.8405 -0.7496 -0.0957
    5MOL    H44 1892   3.814   8.141   6.673  0.0984 -0.9745  0.0290
    5MOL    H45 1893   3.814   7.908   6.711  0.5015 -2.6533 -1.1302
    5MOL    H46 1894   4.235   7.884   6.675 -0.5489 -1.1530 -1.3153
    5MOL    H47 1895   4.243   8.141   6.622  0.2691  0.7143  0.0604
    5MOL    O48 1896   3.905   7.534   6.784  0.2979  0.0135 -0.0328
    5MOL    C49 1897   3.832   7.475   6.677 -0.7127 -0.3300 -0.0792
    5MOL    C50 1898   3.679   7.490   6.689 -0.3046  0.1227 -0.6964
    5MOL    O51 1899   3.643   7.621   6.650  0.0666  0.3382 -0.6059
    5MOL    C52 1900   3.603   7.710   6.743 -0.0889  0.6126  0.5938
    5MOL    O53 1901   3.606   7.679   6.865 -0.3204 -0.0535 -0.1623
    5MOL    C54 1902   3.578   7.843   6.688 -0.0966  0.3642 -0.3378
    5MOL    C55 1903   3.580   7.866   6.548  0.0650 -0.0514 -0.0468
    5MOL    C56 1904   3.584   7.998   6.494 -0.4396 -0.0073 -0.2627
    5MOL    C57 1905   3.557   8.107   6.584  0.0705  0.4905  0.0432
    5MOL    C58 1906   3.538   8.241   6.529  0.0102 -0.3481  0.0560
    5MOL    O59 1907   3.491   0.059   6.590 -0.1914 -0.5710 -0.2532
    5MOL    O60 1908   3.573   8.247   6.401 -0.3356  0.6415  0.3004
    5MOL    C61 1909   3.553   8.084   6.729 -0.6126 -0.5547  0.3297
    5MOL    C62 1910   3.561   7.950   6.777  0.5367  0.0870 -0.0479
    5MOL    H63 1911   3.862   7.513   6.579 -0.5091  0.0628  0.1363
    5MOL    H64 1912   3.857   7.369   6.683  0.1331 -0.1661 -0.6995
    5MOL    H65 1913   3.653   7.466   6.792 -1.2991  0.4001 -0.8813
    5MOL    H66 1914   3.620   7.414   6.638  0.6394 -0.2898 -1.1789
    5MOL    H67 1915   3.598   7.785   6.479  1.3022 -1.1217  1.4988
    5MOL    H68 1916   3.587   8.009   6.387 -0.3981 -0.1294 -0.2735
    5MOL    H69 1917   3.539   8.171   6.792 -2.9662  0.3421 -1.3623
    5MOL    H70 1918   3.562   7.933   6.884 -0.5107  0.3919  0.0117
    5MOL    O71 1919   3.565   0.103   6.333 -0.0603  0.2037  0.0303
    5MOL    C72 1920   3.695   0.160   6.314  0.0446  0.6521 -0.2221
    5MOL    C73 1921   3.678   0.300   6.260 -0.6942 -0.3469  0.0096
    5MOL    O74 1922   3.780   0.340   6.176 -0.0299  0.4581 -0.2289
    5MOL    C75 1923   3.905   0.373   6.224  0.3211  0.4953 -0.4580
    5MOL    O76 1924   3.945   0.332   6.335 -0.0353 -0.3014 -0.1491
    5MOL    C77 1925   3.985   0.442   6.120  0.6541  0.1109  0.3942
    5MOL    C78 1926   3.929   0.476   5.991 -0.3351  0.1243  0.3775
    5MOL    C79 1927   3.999   0.555   5.900  0.3534 -0.2362 -0.1256
    5MOL    C80 1928   4.137   0.582   5.920  0.1151  0.0268 -0.4474
    5MOL    C81 1929   4.208   0.659   5.821 -0.2971  0.0970 -0.2568
    5MOL    O82 1930   4.163   0.687   5.712 -0.3358  1.0375 -0.8240
    5MOL    O83 1931   4.335   0.680   5.865  0.1576  0.8784  0.3147
    5MOL    C84 1932   4.201   0.535   6.041  0.6371  0.5160 -0.1040
    5MOL    C85 1933   4.123   0.465   6.144 -0.1869 -0.4533 -0.1012
    5MOL    H86 1934   3.743   0.174   6.411 -0.6193  0.9850  0.0639
    5MOL    H87 1935   3.752   0.096   6.247 -1.7821 -1.7227  0.4354
    5MOL    H88 1936   3.675   0.366   6.346  0.3709  1.6393 -1.4211
    5MOL    H89 1937   3.581   0.327   6.217 -0.2619  2.0009  0.4393
    5MOL    H90 1938   3.827   0.448   5.972 -0.4085  1.6343 -1.5625
    5MOL    H91 1939   3.944   0.586   5.813  0.1776 -0.2302 -0.0132
    5MOL    H92 1940   4.307   0.547   6.055  1.1321 -0.9064 -2.4062
    5MOL    H93 1941   4.173   0.441   6.237  0.2116 -0.8080 -0.4062
    5MOL    O94 1942   4.423   0.766   5.775 -0.2152  0.0062  0.5644
    5MOL    C95 1943   4.427   0.899   5.832 -0.1166  1.2118  0.2607
    5MOL    C96 1944   4.482   0.991   5.727  0.3808  0.1898 -0.3227
    5MOL    O97 1945   4.474   1.130   5.767  0.3919 -0.0357  0.5486
    5MOL    C98 1946   4.548   1.190   5.864 -0.2606 -0.1949 -0.2064
    5MOL    O99 1947   4.619   1.123   5.940 -0.5947  0.0832 -0.1071
    5MOL   C100 1948   4.519   1.335   5.878 -0.0704  0.1783  0.4632
    5MOL   C101 1949   4.536   1.403   6.000  0.3303 -0.6158  0.3846
    5MOL   C102 1950   4.492   1.535   6.026 -0.0226  0.4866 -0.0392
    5MOL   C103 1951   4.444   1.602   5.913  0.3913  0.1967  0.8840
    5MOL   C104 1952   4.419   1.751   5.930 -0.6261  0.2284 -0.5564
    5MOL   O105 1953   4.357   1.821   5.850  0.5371  0.3470  0.1091
    5MOL   O106 1954   4.462   1.802   6.043 -0.1849  0.1947 -0.0191
    5MOL   C107 1955   4.426   1.537   5.789 -0.0248  0.0367 -0.3519
    5MOL   C108 1956   4.463   1.407   5.771 -0.0989  0.1968 -0.3872
    5MOL   H109 1957   4.322   0.921   5.847 -1.0163 -1.6567 -1.4595
    5MOL   H110 1958   4.489   0.892   5.921  2.3401 -0.7046 -1.5389
    5MOL   H111 1959   4.425   0.985   5.634 -1.8542  0.6718  0.9793
    5MOL   H112 1960   4.587   0.963   5.723 -0.0846 -1.4096 -2.1044
    5MOL   H113 1961   4.582   1.347   6.080 -0.4972 -2.0058 -0.0889
    5MOL   H114 1962   4.508   1.581   6.122 -0.6470  0.8810 -0.1214
    5MOL   H115 1963   4.388   1.585   5.700 -0.5802 -1.1744 -0.7915
    5MOL   H116 1964   4.438   1.356   5.680 -0.7104 -1.7957  0.8516
    5MOL   O117 1965   4.484   1.955   6.038 -0.1363 -0.0658  0.2344
    5MOL   C118 1966   4.368   2.018   6.080  0.4161 -0.7802 -0.5918
    5MOL   C119 1967   4.406   2.172   6.053  0.3572 -0.5343  1.2906
    5MOL   O120 1968   4.305   2.253   6.113 -0.3729 -0.1399  0.7174
    5MOL   C121 1969   4.332   2.333   6.216  0.3243 -0.5921 -0.4387
    5MOL   O122 1970   4.448   2.337   6.261  0.3114  0.8291  0.2726
    5MOL   C123 1971   4.216   2.404   6.277  0.1404 -0.0927 -0.6953
    5MOL   C124 1972   4.081   2.388   6.232 -0.0481  0.3049 -0.0327
    5MOL   C125 1973   3.976   2.469   6.288  0.5689  1.0290  0.6367
    5MOL   C126 1974   3.999   2.569   6.380 -0.2561 -1.0143 -0.6145
    5MOL   C127 1975   3.892   2.663   6.420  0.3895  0.3650 -0.0116
    5MOL   O128 1976   3.917   2.740   6.518  0.5324 -0.1782 -0.0956
    5MOL   O129 1977   3.775   2.663   6.348  0.4650 -0.1992  0.3430
    5MOL   C130 1978   4.132   2.588   6.420 -0.2780 -0.0355 -1.0616
    5MOL   C131 1979   4.240   2.513   6.365 -0.4377 -0.0757  0.0623
    5MOL   H132 1980   4.281   1.984   6.025 -0.2315 -1.8132  1.0494
    5MOL   H133 1981   4.358   1.998   6.187  2.2837 -2.3543 -0.6837
    5MOL   H134 1982   4.411   2.194   5.946  0.3694  1.6914  1.7307
    5MOL   H135 1983   4.506   2.192   6.091  1.1473 -1.3060 -0.3361
    5MOL   H136 1984   4.052   2.314   6.159  0.4812  0.1546 -0.0904
    5MOL   H137 1985   3.871   2.464   6.260  0.9876 -0.4811 -0.7446
    5MOL   H138 1986   4.167   2.663   6.489 -1.0580  0.6047 -1.3605
    5MOL   H139 1987   4.342   2.533   6.396 -0.0526 -0.1332 -1.1478
    5MOL   O140 1988   3.675   2.757   6.401 -0.1546 -0.0363  0.4666
    5MOL   C141 1989   3.603   2.682   6.499 -0.6219 -0.2809  0.6110
    5MOL   C142 1990   3.506   2.772   6.565  0.3864 -0.7811 -0.5115
    5MOL   O143 1991   3.399   2.790   6.468  0.2296  0.0629  0.0086
    5MOL   C144 1992   3.294   2.711   6.455 -0.0858 -0.5304 -0.2704
    5MOL   O145 1993   3.278   2.619   6.534 -0.5566  0.2435 -0.5574
    5MOL   C146 1994   3.196   2.742   6.353  0.5287  0.7323  0.3147
    5MOL   C147 1995   3.077   2.660   6.347 -0.0441 -0.0545 -0.6817
    5MOL   C148 1996   2.985   2.700   6.243  0.1851 -0.1301  0.7337
    5MOL   C149 1997   3.004   2.804   6.158  0.4578 -0.4243  0.0647
    5MOL   C150 1998   2.912   2.818   6.039  0.5923  0.1176  0.0264
    5MOL   O151 1999   2.931   2.893   5.939 -0.1667  1.2724 -0.0543
    5MOL   O152 2000   2.798   2.749   6.058  0.4709  0.2676 -0.4063
    5MOL   C153 2001   3.120   2.883   6.166  0.1304 -0.6353  0.3311
    5MOL   C154 2002   3.215   2.851   6.265 -0.0461  0.6409 -0.4752
    5MOL   H155 2003   3.562   2.590   6.457  0.6453 -0.2740 -0.6689
    5MOL   H156 2004   3.667   2.636   6.574 -0.4854 -2.9107 -1.0209
    5MOL   H157 2005   3.548   2.862   6.611 -1.4408 -0.2766  0.2127
    5MOL   H158 2006   3.465   2.726   6.655 -0.8125  0.3828 -0.4633
    5MOL   H159 2007   3.049   2.579   6.413  1.0078 -0.8486 -1.1950
    5MOL   H160 2008   2.887   2.654   6.239 -0.6193  1.4892  1.3671
    5MOL   H161 2009   3.131   2.963   6.095  0.3398 -0.8908  0.0723
    5MOL   H162 2010   3.306   2.909   6.270  1.0884 -1.0412 -1.2948
    5MOL   O163 2011   2.687   2.784   5.965  0.1933 -0.4257 -0.0715
    5MOL   C164 2012   2.581   2.831   6.042 -0.0983 -0.8733 -0.6495
    5MOL   C165 2013   2.607   2.975   6.094 -0.1885  0.0185  1.3750
    5MOL   O166 2014   2.670   2.966   6.219  0.0730 -0.4867  0.7404
    5MOL   C167 2015   2.599   2.971   6.330  0.2250  0.2221 -0.3129
    5MOL   O168 2016   2.480   2.974   6.333 -0.2694 -0.0459  0.3877
    5MOL   C169 2017   2.693   2.955   6.455  0.2984  0.3943 -0.0759
    5MOL   C170 2018   2.831   2.952   6.439  0.0759 -0.7095  0.0728
    5MOL   C171 2019   2.915   2.955   6.555 -0.1705 -0.5816  0.2524
    5MOL   C172 2020   2.852   2.947   6.686  0.6500 -0.0556  1.4627
    5MOL   C173 2021   2.937   2.938   6.813 -0.7033 -0.5536  0.7969
    5MOL   O174 2022   2.897   2.904   6.928 -0.4156  0.4737  0.5460
    5MOL   O175 2023   3.067   2.953   6.789  0.2553  0.1278  0.2040
    5MOL   C176 2024   2.710   2.945   6.696  0.3320  0.2573  0.1980
    5MOL   C177 2025   2.634   2.942   6.583 -0.1809  0.1293  0.4883
    5MOL   H178 2026   2.488   2.836   5.986 -0.8601  3.5051  0.8017
    5MOL   H179 2027   2.554   2.770   6.128 -0.4915 -2.9367 -2.2027
    5MOL   H180 2028   2.517   3.036   6.100 -2.7534 -3.4831  0.0890
    5MOL   H181 2029   2.666   3.027   6.018  1.4710 -3.3213  0.2929
    5MOL   H182 2030   2.872   2.951   6.339 -1.4893  1.2282 -0.6463
    5MOL   H183 2031   3.021   2.970   6.537 -0.2848 -0.0452  0.0394
    5MOL   H184 2032   2.659   2.953   6.791 -0.8111 -1.2575 -0.2615
    5MOL   H185 2033   2.528   2.951   6.598 -0.0451 -0.6800  2.0174
    5MOL   O186 2034   3.148   2.915   6.911 -0.2195  0.0478 -0.3596
    5MOL   C187 2035   3.237   2.813   6.862  0.5140  0.8833  0.5110
    5MOL   C188 2036   3.331   2.780   6.980  0.0869  0.5732  0.6212
    5MOL   O189 2037   3.448   2.721   6.936 -0.2338 -0.7825 -0.1621
    5MOL   C190 2038   3.451   2.598   6.894  0.0605  0.1193  0.3913
    5MOL   O191 2039   3.348   2.540   6.861  0.0529 -0.2868 -0.6144
    5MOL   C192 2040   3.583   2.545   6.845  0.0482 -0.3238  0.0488
    5MOL   C193 2041   3.709   2.582   6.905  0.2827 -0.6913 -0.1364
    5MOL   C194 2042   3.828   2.538   6.855  0.4899 -0.4459 -1.1339
    5MOL   C195 2043   3.832   2.438   6.753  1.1785  0.2677  0.1762
    5MOL   C196 2044   3.964   2.390   6.715  0.0326 -0.2518 -0.4180
    5MOL   O197 2045   4.069   2.434   6.761 -0.8241  0.9072 -0.3854
    5MOL   O198 2046   3.959   2.294   6.624 -0.0825  0.2875  0.5337
    5MOL   C199 2047   3.706   2.399   6.695  0.8583 -0.3681  1.1503
    5MOL   C200 2048   3.583   2.451   6.744 -0.6342  0.4758  0.2307
    5MOL   H201 2049   3.184   2.732   6.813  0.1065  1.7173 -0.4321
    5MOL   H202 2050   3.299   2.863   6.788  0.4435  1.1265  0.6149
    5MOL   H203 2051   3.280   2.724   7.057 -1.0190  0.2945 -0.2913
    5MOL   H204 2052   3.367   2.872   7.027 -1.1783  0.0826  2.6046
    5MOL   H205 2053   3.717   2.652   6.987  1.9966 -1.4316  0.3448
    5MOL   H206 2054   3.921   2.572   6.900 -0.7641 -0.2650  1.3933
    5MOL   H207 2055   3.714   2.323   6.619 -0.7870  0.0960  0.5076
    5MOL   H208 2056   3.489   2.418   6.702 -0.5476 -3.0657  2.6003
    5MOL   O209 2057   4.064   2.191   6.642 -0.0696  0.1039  0.2883
    5MOL   C210 2058   4.164   2.207   6.540  0.0294  0.5797  0.0861
    5MOL   C211 2059   4.301   2.153   6.578 -0.0461 -0.3230  0.0070
    5MOL   O212 2060   4.342   2.237   6.679 -0.5866  0.6557 -0.2507
    5MOL   C213 2061   4.456   2.207   6.744 -0.4455 -0.5838  0.7168
    5MOL   O214 2062   4.541   2.131   6.700  0.3885 -0.7610  0.2161
    5MOL   C215 2063   4.483   2.292   6.863 -0.2042  0.6607 -0.1664
    5MOL   C216 2064   4.586   2.262   6.951  0.1501 -1.4782 -0.4057
    5MOL   C217 2065   4.620   2.349   7.058 -0.2219  0.1605 -0.0248
    5MOL   C218 2066   4.544   2.464   7.074 -0.2126 -0.5691  0.6361
    5MOL   C219 2067   4.591   2.555   7.184  0.1494  0.4884  0.6919
    5MOL   O220 2068   4.708   2.558   7.235  0.0434 -0.6402  0.3743
    5MOL   O221 2069   4.506   2.650   7.212 -0.1885  0.3099 -0.0514
    5MOL   C222 2070   4.430   2.485   6.993  0.4013 -0.4825 -0.2263
    5MOL   C223 2071   4.400   2.403   6.884 -0.2954 -0.0143  0.6777
    5MOL   H224 2072   4.131   2.146   6.456  2.4562  0.5683 -0.8897
    5MOL   H225 2073   4.172   2.310   6.507 -1.1045  1.0469  1.2217
    5MOL   H226 2074   4.378   2.166   6.502  1.6290 -1.1575  1.4842
    5MOL   H227 2075   4.308   2.048   6.610 -0.2918 -0.5261 -0.6194
    5MOL   H228 2076   4.644   2.173   6.933  0.6232 -1.1040 -0.7501
    5MOL   H229 2077   4.711   2.337   7.114 -1.0054 -1.1325  1.0111
    5MOL   H230 2078   4.390   2.585   7.003  3.2179  0.7470 -0.6285
    5MOL   H231 2079   4.312   2.431   6.828 -0.3620 -0.5050  0.5309
    5MOL   O232 2080   4.533   2.743   7.329  0.1146 -0.8983 -0.0772
    5MOL   C233 2081   4.435   2.707   7.430 -0.0604 -0.5296 -0.2217
    5MOL   C234 2082   4.299   2.764   7.381  0.2749  0.0234  1.0557
    5MOL   O235 2083   4.289   2.896   7.429 -0.5782  0.2373 -0.4682
    5MOL   C236 2084   4.221   2.910   7.546 -0.5487  0.5234 -0.7592
    5MOL   O237 2085   4.198   2.814   7.614 -0.1182  0.1257 -0.5850
    5MOL   C238 2086   4.171   3.050   7.581  0.2531  0.7155 -0.8395
    5MOL   C239 2087   4.073   3.068   7.682 -0.1804 -0.0249  0.4836
    5MOL   C240 2088   4.023   3.191   7.717  0.0940  0.1677  0.0735
    5MOL   C241 2089   4.066   3.307   7.652 -0.0574 -0.4535 -0.5468
    5MOL   C242 2090   4.022   3.446   7.696 -0.1574 -0.7540 -0.3043
    5MOL   O243 2091   4.086   3.548   7.664 -0.5581 -0.1404 -0.0816
    5MOL   O244 2092   3.908   3.446   7.772 -0.2966  0.1361 -0.2399
    5MOL   C245 2093   4.175   3.297   7.561 -0.7685 -0.5919 -0.1880
    5MOL   C246 2094   4.229   3.166   7.530  1.0344 -0.2255 -0.0104
    5MOL   H247 2095   4.427   2.599   7.441 -0.1928 -0.4250  0.7006
    5MOL   H248 2096   4.455   2.731   7.534 -1.6434  1.5003 -0.3549
    5MOL   H249 2097   4.216   2.697   7.402  0.4881 -0.3903  0.5793
    5MOL   H250 2098   4.302   2.776   7.273  0.0229  0.6535  1.1193
    5MOL   H251 2099   4.037   2.985   7.741  0.5615 -1.5255 -1.1174
    5MOL   H252 2100   3.952   3.194   7.798  0.7924 -2.2147  0.8278
    5MOL   H253 2101   4.212   3.384   7.509  1.4111 -0.3595  1.6759
    5MOL   H254 2102   4.306   3.153   7.456  1.2064 -0.5759  0.2312
    5MOL   O255 2103   3.877   3.573   7.850 -0.1693 -0.8037  0.1083
    5MOL   C256 2104   3.757   3.630   7.801 -0.0580 -0.0220 -0.5826
    5MOL   C257 2105   3.771   3.702   7.671  0.9074  0.3906 -0.1962
    5MOL   O258 2106   3.649   3.773   7.655 -0.1688  0.0915  0.7222
    5MOL   C259 2107   3.580   3.766   7.541  0.0997 -0.6838  0.1230
    5MOL   O260 2108   3.621   3.711   7.439  0.3131 -0.1110 -0.0860
    5MOL   C261 2109   3.468   3.861   7.527 -0.2409  0.7818 -0.6220
    5MOL   C262 2110   3.422   3.941   7.637  0.0323 -0.5199 -0.1388
    5MOL   C263 2111   3.313   4.031   7.627  0.5065  1.1127  0.3350
    5MOL   C264 2112   3.247   4.050   7.502 -0.0828  0.2016 -0.1811
    5MOL   C265 2113   3.139   4.153   7.497  0.1372  0.2217  0.1967
    5MOL   O266 2114   3.074   4.193   7.592  0.1277 -0.5011  0.1063
    5MOL   O267 2115   3.124   4.193   7.375  0.0249 -0.1003 -0.1130
    5MOL   C268 2116   3.310   3.987   7.390  0.1437  0.4479  0.0192
    5MOL   C269 2117   3.410   3.888   7.404 -0.9698 -0.2463 -0.0167
    5MOL   H270 2118   3.676   3.556   7.801  0.0789 -0.1730 -0.7374
    5MOL   H271 2119   3.730   3.705   7.875  0.2488  1.4320 -1.9266
    5MOL   H272 2120   3.788   3.619   7.602 -2.6457 -1.0446  0.5288
    5MOL   H273 2121   3.862   3.761   7.664  0.3197  1.3718  0.3405
    5MOL   H274 2122   3.490   3.933   7.721 -1.5234  1.7722  1.4193
    5MOL   H275 2123   3.295   4.077   7.723  1.5543  1.2626  0.4567
    5MOL   H276 2124   3.275   3.995   7.288  1.8486 -3.1712 -0.9243
    5MOL   H277 2125   3.455   3.843   7.316 -0.3751 -1.9074  1.1086
    5MOL   O278 2126   3.007   4.276   7.361 -0.4674 -0.3625 -0.1639
    5MOL   C279 2127   3.046   4.415   7.370 -0.1355 -0.5802 -0.1812
    5MOL   C280 2128   2.918   4.506   7.366 -0.0166 -0.9844 -0.2396
    5MOL   O281 2129   2.924   4.591   7.259 -0.0529 -0.1390 -0.5383
    5MOL   C282 2130   2.833   4.577   7.164 -0.4997 -0.3653  0.6672
    5MOL   O283 2131   2.728   4.509   7.181  0.4226  0.0788 -0.1441
    5MOL   C284 2132   2.852   4.679   7.058 -0.3922  0.5380  0.3779
    5MOL   C285 2133   2.956   4.780   7.067 -0.3627  0.3390  0.3853
    5MOL   C286 2134   2.960   4.876   6.965 -0.0942  0.1475 -0.5062
    5MOL   C287 2135   2.872   4.869   6.856 -0.1041 -0.3185  0.0861
    5MOL   C288 2136   2.878   4.988   6.759  0.0634  0.4392  0.0588
    5MOL   O289 2137   2.928   5.101   6.784  0.2271  0.7684 -0.1973
    5MOL   O290 2138   2.813   4.962   6.643 -0.2654  0.2800 -0.5621
    5MOL   C291 2139   2.775   4.773   6.848  0.0358  0.5577 -0.0448
    5MOL   C292 2140   2.757   4.682   6.952  0.8586  0.1534  0.3287
    5MOL   H293 2141   3.080   4.418   7.474 -0.2100 -0.9680 -0.1454
    5MOL   H294 2142   3.125   4.450   7.304  0.2621  0.4793  0.8395
    5MOL   H295 2143   2.912   4.580   7.445 -1.9538 -1.4815  0.1187
    5MOL   H296 2144   2.827   4.446   7.378  0.0619 -1.2345 -0.8820
    5MOL   H297 2145   3.021   4.786   7.153  1.0076 -0.6001 -0.5692
    5MOL   H298 2146   3.032   4.956   6.963 -1.3415  1.2838 -0.2628
    5MOL   H299 2147   2.703   4.774   6.768  0.5565 -0.9290 -0.5457
    5MOL   H300 2148   2.683   4.604   6.956  0.2542  0.6983 -0.1015
    5MOL   O301 2149   2.786   5.081   6.555  0.2649 -0.5924  0.1838
    5MOL   C302 2150   2.894   5.092   6.468  0.4759  0.1840 -0.2060
    5MOL   C303 2151   2.865   5.187   6.351  0.0638  0.2075 -0.4317
    5MOL   O304 2152   2.733   5.162   6.295  0.2045 -0.1470  0.1499
    5MOL   C305 2153   2.715   5.056   6.216 -0.6015  0.1044  0.0235
    5MOL   O306 2154   2.801   4.968   6.190  0.3800 -0.2618  0.2666
    5MOL   C307 2155   2.576   5.046   6.170  0.6176 -0.2399 -1.0392
    5MOL   C308 2156   2.479   5.139   6.209 -0.0843  0.1981 -0.4297
    5MOL   C309 2157   2.340   5.128   6.169 -0.6104  0.6676 -0.6700
    5MOL   C310 2158   2.303   5.016   6.086  0.4582 -0.2133  0.1664
    5MOL   C311 2159   2.168   5.012   6.039  0.3521 -0.3648  0.5773
    5MOL   O312 2160   2.120   4.914   5.982  0.3412  0.5721  0.9070
    5MOL   O313 2161   2.099   5.131   6.046 -0.4003  0.3180 -0.0966
    5MOL   C314 2162   2.402   4.919   6.054  0.3013  0.2801  0.0115
    5MOL   C315 2163   2.538   4.940   6.084 -0.4809  0.7052  0.4713
    5MOL   H316 2164   2.985   5.124   6.518  0.5006 -0.5778  0.2496
    5MOL   H317 2165   2.917   4.996   6.423 -0.2982 -0.0645 -0.0713
    5MOL   H318 2166   2.945   5.176   6.278  0.3610  1.9652 -0.3800
    5MOL   H319 2167   2.874   5.286   6.394  2.8255 -1.5280  3.2869
    5MOL   H320 2168   2.503   5.227   6.267 -0.7278 -0.5183  0.9733
    5MOL   H321 2169   2.271   5.208   6.193  1.4443  2.2890 -0.0005
    5MOL   H322 2170   2.379   4.849   5.975 -1.0424  1.4829 -0.6795
    5MOL   H323 2171   2.613   4.872   6.046 -0.2740  0.5136  1.2031
    5MOL   O324 2172   1.969   5.126   5.973  0.1440 -0.4210 -0.0985
    5MOL   C325 2173   2.006   5.186   5.845  0.4457 -0.5433 -0.0870
    5MOL   C326 2174   2.039   5.336   5.852 -0.5046  0.6376  0.0657
    5MOL   O327 2175   2.177   5.351   5.878  0.2799  0.3901 -0.0311
    5MOL   C328 2176   2.259   5.338   5.777  0.0795  0.5041 -0.8695
    5MOL   O329 2177   2.215   5.334   5.668 -0.3498  0.0485  0.7541
    5MOL   C330 2178   2.407   5.322   5.811 -1.1783  0.7655  0.5170
    5MOL   C331 2179   2.493   5.266   5.711 -0.4013 -0.8066  0.1911
    5MOL   C332 2180   2.631   5.244   5.727 -0.1711  0.0988  0.2938
    5MOL   C333 2181   2.689   5.284   5.856  0.1337 -0.3103 -0.1588
    5MOL   C334 2182   2.838   5.258   5.877  0.9128 -0.4650  0.2725
    5MOL   O335 2183   2.900   5.300   5.976  0.3319  0.2166 -0.3550
    5MOL   O336 2184   2.894   5.171   5.783 -0.2282 -0.2825  1.1212
    5MOL   C337 2185   2.613   5.358   5.946 -0.3200  0.2074  0.8133
    5MOL   C338 2186   2.472   5.369   5.928 -0.5354 -0.4156  0.6984
    5MOL   H339 2187   2.078   5.122   5.794  0.8751 -0.1160 -0.0142
    5MOL   H340 2188   1.918   5.184   5.781 -0.4459  2.3823  0.9326
    5MOL   H341 2189   1.987   5.379   5.938 -1.7541  0.7422 -0.7194
    5MOL   H342 2190   2.003   5.396   5.768 -2.1112 -0.1752  0.1474
    5MOL   H343 2191   2.449   5.218   5.624 -1.4772 -2.8073  1.8068
    5MOL   H344 2192   2.690   5.206   5.645 -1.8224  1.0525 -1.3747
    5MOL   H345 2193   2.657   5.405   6.033 -0.6265  0.1494  1.0006
    5MOL   H346 2194   2.420   5.439   5.993  0.0479  2.5604 -1.8793
    5MOL   O347 2195   3.039   5.142   5.792  0.5982 -1.1429  0.1640
    5MOL   C348 2196   3.046   5.033   5.881  0.1990 -0.1064  0.0721
    5MOL   C349 2197   3.190   4.980   5.897 -0.1032  0.0253 -0.8335
    5MOL   O350 2198   3.218   4.886   5.792 -0.0271  0.2502  0.0245
    5MOL   C351 2199   3.338   4.837   5.788 -0.5449  0.5534 -0.7779
    5MOL   O352 2200   3.414   4.833   5.883 -0.2669  0.5648 -0.2457
    5MOL   C353 2201   3.362   4.779   5.656  0.2220  0.4773 -0.3063
    5MOL   C354 2202   3.458   4.676   5.639  0.0693 -0.2373 -0.5051
    5MOL   C355 2203   3.491   4.622   5.511 -0.5557 -1.0151 -0.3574
    5MOL   C356 2204   3.423   4.669   5.396 -0.1356 -0.0107 -0.5590
    5MOL   C357 2205   3.428   4.595   5.270  0.0618 -0.8341 -0.0781
    5MOL   O358 2206   3.361   4.630   5.173 -0.0896 -0.0807  0.4726
    5MOL   O359 2207   3.498   4.480   5.280 -0.2245 -0.2238 -0.0013
    5MOL   C360 2208   3.330   4.774   5.412 -0.1666 -0.5128  0.0590
    5MOL   C361 2209   3.299   4.831   5.538  0.0949  0.6089 -0.1248
    5MOL   H362 2210   3.009   5.053   5.982  3.0963  1.1255  0.9670
    5MOL   H363 2211   2.985   4.958   5.832 -1.2082  1.3439 -0.4603
    5MOL   H364 2212   3.187   4.928   5.993  0.2584  1.5244 -0.0031
    5MOL   H365 2213   3.257   5.065   5.906 -1.6005  1.1151  0.4618
    5MOL   H366 2214   3.511   4.640   5.726 -1.6024 -1.6169 -0.0189
    5MOL   H367 2215   3.552   4.534   5.518 -0.5211 -0.9500  0.1827
    5MOL   H368 2216   3.270   4.805   5.328 -1.2769  0.1015  1.0687
    5MOL   H369 2217   3.229   4.913   5.536  0.0221  0.5570  0.3565
    5MOL   O370 2218   3.494   4.393   5.148  0.4651  0.3631 -0.6136
    5MOL   C371 2219   3.619   4.418   5.082 -0.0606  0.0211 -0.3069
    5MOL   C372 2220   3.615   4.380   4.936 -0.5614  0.2537 -0.8878
    5MOL   O373 2221   3.734   4.426   4.875 -0.8249  0.2563  0.3233
    5MOL   C374 2222   3.768   4.375   4.754  0.0691 -0.8030 -0.0471
    5MOL   O375 2223   3.703   4.299   4.691  0.2090  0.0237 -0.3492
    5MOL   C376 2224   3.912   4.408   4.727  0.5140 -0.3933 -0.1754
    5MOL   C377 2225   3.970   4.519   4.788  0.1343 -0.3826 -0.4840
    5MOL   C378 2226   4.101   4.552   4.757 -0.4730  0.2120  0.3078
    5MOL   C379 2227   4.183   4.467   4.671 -0.4663 -0.4163  0.5059
    5MOL   C380 2228   4.323   4.506   4.631  0.1043  0.4410 -0.2947
    5MOL   O381 2229   4.379   4.612   4.668  0.1099  0.1928  0.2756
    5MOL   O382 2230   4.377   4.411   4.554  0.0964 -0.0542 -0.5386
    5MOL   C383 2231   4.127   4.345   4.625  0.3689 -0.7111  0.5124
    5MOL   C384 2232   3.990   4.322   4.644  0.4103 -0.0744 -0.2310
    5MOL   H385 2233   3.645   4.524   5.084 -0.2357  0.0441  0.8115
    5MOL   H386 2234   3.698   4.356   5.124 -0.2908 -0.0935 -0.0417
    5MOL   H387 2235   3.518   4.406   4.893 -0.3308  0.6213 -1.1898
    5MOL   H388 2236   3.617   4.272   4.924  1.3522  0.2123 -0.2889
    5MOL   H389 2237   3.920   4.591   4.851  1.9124  1.7914 -1.5068
    5MOL   H390 2238   4.134   4.640   4.809 -2.4947  1.2572 -0.1514
    5MOL   H391 2239   4.176   4.268   4.567  0.3581  0.3935 -0.9914
    5MOL   H392 2240   3.947   4.231   4.605  2.1829 -1.6013  1.3043
    5MOL   O393 2241   4.520   4.442   4.520 -0.3519 -0.1461 -0.0798
    5MOL   C394 2242   4.521   4.502   4.390  0.5551 -0.2167  0.0492
    5MOL   C395 2243   4.650   4.580   4.357  0.5612 -0.8980  0.1360
    5MOL   O396 2244   4.757   4.494   4.358  0.0061 -0.4624 -0.2466
    5MOL   C397 2245   4.780   4.414   4.260 -0.4138  0.3820 -0.4759
    5MOL   O398 2246   4.732   4.440   4.149  0.1385  0.1912 -0.1660
    5MOL   C399 2247   4.880   4.311   4.285 -0.4224  0.5224 -0.0821
    5MOL   C400 2248   4.883   4.192   4.206  0.4018  0.7302  0.0430
    5MOL   C401 2249   4.974   4.085   4.243  0.4085  0.1062 -0.9200
    5MOL   C402 2250   5.063   4.093   4.353  0.2321  0.4407 -0.0151
    5MOL   C403 2251   5.152   3.978   4.397 -0.0107  0.0550 -0.2429
    5MOL   O404 2252   5.248   3.994   4.468 -0.7848  0.3119 -0.9292
    5MOL   O405 2253   5.104   3.865   4.347  0.1985 -0.7012 -0.3867
    5MOL   C406 2254   5.060   4.211   4.429  0.2066  0.1000 -0.7197
    5MOL   C407 2255   4.977   4.326   4.394  1.2716  0.1568  0.5076
    5MOL   H408 2256   4.507   4.430   4.310 -2.0409 -0.7422  0.9426
    5MOL   H409 2257   4.439   4.573   4.396  1.3708  0.5642  2.6801
    5MOL   H410 2258   4.669   4.644   4.443 -2.1888 -1.4738  1.2382
    5MOL   H411 2259   4.651   4.650   4.274 -1.3871 -0.6817  0.2707
    5MOL   H412 2260   4.828   4.189   4.113  0.5501 -1.0362  0.0052
    5MOL   H413 2261   4.974   4.003   4.174 -3.1793  0.4282 -1.4217
    5MOL   H414 2262   5.122   4.224   4.516 -2.1879  1.9622  0.7712
    5MOL   H415 2263   4.967   4.413   4.457 -0.8889 -0.2172  0.7449
    5MOL   O416 2264   5.195   3.747   4.364  0.7397 -0.0922  0.0391
    5MOL   C417 2265   5.127   3.652   4.444  0.3787 -0.5909  0.0221
    5MOL   C418 2266   5.209   3.529   4.443  0.0279 -0.3956  0.1907
    5MOL   O419 2267   5.138   3.401   4.463  0.6944 -0.5909 -0.5683
    5MOL   C420 2268   5.047   3.353   4.387  0.1869 -0.3843  0.3039
    5MOL   O421 2269   4.978   3.418   4.306  0.6012  0.6916  0.2858
    5MOL   C422 2270   5.036   3.211   4.393 -0.5649  0.5232  0.1043
    5MOL   C423 2271   4.972   3.149   4.290 -0.3867 -0.4676  0.0982
    5MOL   C424 2272   4.955   3.010   4.290  0.3808 -0.3686  0.2560
    5MOL   C425 2273   4.997   2.941   4.405  0.1318  0.7347  0.1131
    5MOL   C426 2274   4.972   2.793   4.410  0.0857  0.5153  1.2481
    5MOL   O427 2275   4.949   2.728   4.303  0.0038 -0.5891  0.4150
    5MOL   O428 2276   4.972   2.737   4.532 -0.1241 -0.3056 -0.3227
    5MOL   C429 2277   5.081   3.008   4.497  0.4112 -0.7957  0.3127
    5MOL   C430 2278   5.102   3.143   4.497  0.2888 -0.3625  0.3254
    5MOL   H431 2279   5.118   3.694   4.544  2.0150 -0.1994  0.0177
    5MOL   H432 2280   5.025   3.631   4.413 -0.1049  1.9525 -0.1936
    5MOL   H433 2281   5.294   3.549   4.508  1.8347 -0.5544 -2.0767
    5MOL   H434 2282   5.251   3.512   4.344  1.6409  0.7780  0.6654
    5MOL   H435 2283   4.936   3.213   4.211 -0.7296 -0.8014 -0.0157
    5MOL   H436 2284   4.894   2.967   4.212 -1.2602 -0.0037  1.2997
    5MOL   H437 2285   5.134   2.952   4.573  0.4129 -2.2354 -0.7407
    5MOL   H438 2286   5.169   3.199   4.561 -0.5859  0.8606  0.1907
    5MOL   O439 2287   4.987   2.580   4.527  0.1096  0.9934  0.3374
    5MOL   C440 2288   5.117   2.543   4.550  0.6193 -0.2008 -0.0374
    5MOL   C441 2289   5.164   2.411   4.475 -0.3002 -0.0671  0.6663
    5MOL   O442 2290   5.182   2.432   4.332 -0.1955  0.7451 -0.4322
    5MOL   C443 2291   5.303   2.469   4.287 -0.0331  0.6242 -0.1035
    5MOL   O444 2292   5.403   2.494   4.350  0.0331 -0.1163  0.6050
    5MOL   C445 2293   5.298   2.481   4.134 -0.4660  0.7016 -0.0883
    5MOL   C446 2294   5.181   2.479   4.060  0.5017 -0.2258 -0.6600
    5MOL   C447 2295   5.185   2.493   3.917 -0.3769 -0.0343  0.6386
    5MOL   C448 2296   5.310   2.504   3.843  0.0561  0.1540 -0.7428
    5MOL   C449 2297   5.304   2.538   3.695 -0.6360  0.9211  0.3498
    5MOL   O450 2298   5.392   2.502   3.619 -0.5138 -0.3403 -0.3630
    5MOL   O451 2299   5.201   2.617   3.654  0.4240 -0.3532 -0.4348
    5MOL   C452 2300   5.428   2.495   3.916 -0.1314  0.0445  0.0719
    5MOL   C453 2301   5.418   2.483   4.060 -0.0781  0.2247 -0.4355
    5MOL   H454 2302   5.185   2.623   4.522  0.0178  0.5659  0.6677
    5MOL   H455 2303   5.121   2.532   4.659 -3.1684 -0.8706  0.1127
    5MOL   H456 2304   5.108   2.319   4.494 -1.0602  0.5967  1.6610
    5MOL   H457 2305   5.256   2.369   4.517  0.4301  0.9853  0.1091
    5MOL   H458 2306   5.083   2.471   4.103 -0.1656  1.6776 -1.7540
    5MOL   H459 2307   5.094   2.499   3.858 -0.9821  0.3914  1.6124
    5MOL   H460 2308   5.521   2.510   3.863 -1.0474  0.2714 -1.4877
    5MOL   H461 2309   5.513   2.477   4.110 -0.1575 -0.2009 -0.3322
    5MOL   H462 2310   5.214   2.638   3.563 -1.6624 -0.8935 -0.8842
    6MOL     O1 2311   2.207   1.502   3.048  0.3182 -0.4152 -0.1292
    6MOL     C2 2312   2.148   1.429   2.943 -0.1946 -0.0939 -0.0424
    6MOL     C3 2313   2.065   1.315   3.011 -0.5261  0.1895 -0.0708
    6MOL     O4 2314   2.157   1.208   3.042 -0.6417 -0.0817  0.0110
    6MOL     C5 2315   2.123   1.089   3.091  0.6052  0.4249 -0.2196
    6MOL     O6 2316   2.008   1.067   3.131 -0.2809 -0.0867 -0.2001
    6MOL     C7 2317   2.219   0.985   3.101  0.1496  0.2852  0.0305
    6MOL     C8 2318   2.174   0.853   3.120 -0.3370  0.4371 -0.1192
    6MOL     C9 2319   2.266   0.745   3.132  0.0327  0.1832 -0.0418
    6MOL    C10 2320   2.401   0.766   3.104  0.3736 -0.3636 -0.1541
    6MOL    C11 2321   2.500   0.655   3.101 -1.0231  0.0561  0.2319
    6MOL    O12 2322   2.607   0.662   3.035  0.3703  0.2762 -0.3427
    6MOL    O13 2323   2.469   0.550   3.183  0.0904  0.1468  0.5903
    6MOL    C14 2324   2.442   0.899   3.081  0.9199 -0.5654  0.1195
    6MOL    C15 2325   2.356   1.013   3.088 -0.2127  0.1598  0.8625
    6MOL    H16 2326   2.069   1.487   2.896  0.6430 -0.3472 -1.8397
    6MOL    H17 2327   2.220   1.409   2.863  0.1010  0.2713  0.1335
    6MOL    H18 2328   2.001   1.264   2.939 -1.6480 -0.2908  1.2350
    6MOL    H19 2329   1.990   1.337   3.086  3.3859  2.0764  3.5245
    6MOL    H20 2330   2.068   0.841   3.138 -0.1355  0.7653  1.3525
    6MOL    H21 2331   2.228   0.647   3.157  0.6665  0.1886  0.9412
    6MOL    H22 2332   2.542   0.928   3.053  1.4927 -2.0342  0.5971
    6MOL    H23 2333   2.400   1.111   3.071 -1.3340  0.7410  1.2911
    6MOL    H24 2334   2.268   1.442   3.088  0.4079  0.1366  0.5734
    6MOL    O25 2335   2.549   0.420   3.154  0.0852 -0.5949  0.0565
    6MOL    C26 2336   2.639   0.405   3.266 -0.0755 -0.2766  0.7894
    6MOL    C27 2337   2.712   0.275   3.255 -0.3467  0.3798  0.8240
    6MOL    O28 2338   2.646   0.156   3.295  0.5046 -0.4341 -0.6805
    6MOL    C29 2339   2.605   0.063   3.203  0.6669 -0.2785 -0.0360
    6MOL    O30 2340   2.622   0.075   3.082  0.0479 -0.2134  0.4522
    6MOL    C31 2341   2.552   8.211   3.268 -0.8547 -0.5482  0.0130
    6MOL    C32 2342   2.518   8.202   3.405  0.0542 -0.1879 -0.1367
    6MOL    C33 2343   2.500   8.082   3.466 -1.0326  0.9869 -0.6133
    6MOL    C34 2344   2.490   7.958   3.398  0.0256 -0.5146  0.1816
    6MOL    C35 2345   2.465   7.834   3.472 -0.2593  0.6807  0.6510
    6MOL    O36 2346   2.455   7.835   3.594 -0.6893 -0.6359 -0.1662
    6MOL    O37 2347   2.447   7.724   3.401  0.3741 -0.4789  0.1383
    6MOL    C38 2348   2.518   7.964   3.266 -0.3809 -0.2228  1.4074
    6MOL    C39 2349   2.550   8.087   3.200  0.1917  0.2665  0.0489
    6MOL    H40 2350   2.707   0.489   3.258 -0.4762 -0.0661 -0.7627
    6MOL    H41 2351   2.592   0.408   3.364  1.9159 -0.3437  1.7599
    6MOL    H42 2352   2.804   0.264   3.312  0.4812  0.3806 -0.5044
    6MOL    H43 2353   2.747   0.261   3.153  1.1814 -1.0000  1.5163
    6MOL    H44 2354   2.519   0.012   3.470 -0.6143  0.8821 -1.5212
    6MOL    H45 2355   2.483   8.093   3.572 -3.6563 -0.1507 -0.8924
    6MOL    H46 2356   2.513   7.881   3.197 -0.0080  0.1501  0.9224
    6MOL    H47 2357   2.564   8.092   3.093  0.3596  1.8414  0.1265
    6MOL    O48 2358   2.403   7.599   3.469  0.4159 -0.1193  0.3486
    6MOL    C49 2359   2.517   7.530   3.521  0.0998  0.0672 -0.5521
    6MOL    C50 2360   2.471   7.422   3.618  0.8052 -0.1933  0.1221
    6MOL    O51 2361   2.586   7.352   3.662 -0.1877 -0.4989  0.3162
    6MOL    C52 2362   2.577   7.220   3.677 -0.1477  0.2780 -0.3091
    6MOL    O53 2363   2.472   7.158   3.677  0.3082 -0.1131 -0.3100
    6MOL    C54 2364   2.707   7.154   3.700 -0.6205 -0.2646  0.2695
    6MOL    C55 2365   2.824   7.222   3.730  0.4208 -0.6424  0.0369
    6MOL    C56 2366   2.945   7.170   3.781 -0.5418  1.2328  0.4658
    6MOL    C57 2367   2.949   7.028   3.802  0.2265  0.3811 -0.7607
    6MOL    C58 2368   3.068   6.959   3.867  0.1357  0.8210 -0.4239
    6MOL    O59 2369   3.061   6.845   3.908 -0.0514  0.0508 -0.3554
    6MOL    O60 2370   3.182   7.033   3.869 -0.3299 -0.0039  0.1301
    6MOL    C61 2371   2.838   6.954   3.757  1.1710  0.1553  0.2657
    6MOL    C62 2372   2.722   7.017   3.700 -0.7272  0.3175  0.1556
    6MOL    H63 2373   2.573   7.481   3.442  1.4648 -1.5354  1.3682
    6MOL    H64 2374   2.585   7.599   3.570 -0.5171 -0.5850  1.3058
    6MOL    H65 2375   2.404   7.357   3.561  0.3947 -1.4631  1.9912
    6MOL    H66 2376   2.415   7.453   3.706  0.7891 -1.4795  0.5790
    6MOL    H67 2377   2.829   7.330   3.726 -1.5489 -0.5052  1.0172
    6MOL    H68 2378   3.022   7.240   3.811  0.0792  0.0070  1.8771
    6MOL    H69 2379   2.840   6.846   3.764 -0.0552  0.2396  2.4493
    6MOL    H70 2380   2.640   6.958   3.663  0.0565  0.1861 -1.4318
    6MOL    O71 2381   3.280   6.972   3.962  0.4087  0.0262 -0.1082
    6MOL    C72 2382   3.295   7.055   4.076 -0.3240  0.0806 -0.3978
    6MOL    C73 2383   3.364   7.192   4.041  0.1257  0.7917 -0.5649
    6MOL    O74 2384   3.494   7.199   4.103 -0.0662  0.1448  0.1873
    6MOL    C75 2385   3.555   7.322   4.122  0.7643 -0.2193 -0.2505
    6MOL    O76 2386   3.496   7.429   4.099 -0.2431 -0.1814 -0.4585
    6MOL    C77 2387   3.687   7.324   4.175 -0.2394  0.3828  0.0008
    6MOL    C78 2388   3.759   7.449   4.186  0.1648  0.3228 -0.4207
    6MOL    C79 2389   3.889   7.451   4.242  0.6028 -0.5354 -0.7293
    6MOL    C80 2390   3.949   7.331   4.285 -0.1746 -0.5844 -0.4084
    6MOL    C81 2391   4.079   7.329   4.371 -0.0215 -0.4597 -0.8915
    6MOL    O82 2392   4.119   7.231   4.438  0.2860  0.2632  0.3059
    6MOL    O83 2393   4.138   7.452   4.383  0.2518  0.2051  0.4126
    6MOL    C84 2394   3.878   7.209   4.271  0.1239 -0.4527  0.1437
    6MOL    C85 2395   3.754   7.209   4.215 -0.1663 -0.1303  0.8712
    6MOL    H86 2396   3.198   7.063   4.126  1.1053 -0.4504  2.6129
    6MOL    H87 2397   3.369   6.999   4.134 -0.0678  0.3461 -0.4661
    6MOL    H88 2398   3.285   7.259   4.076 -0.3032  0.6265 -1.2126
    6MOL    H89 2399   3.363   7.206   3.933  2.4280  2.4468 -0.4036
    6MOL    H90 2400   3.725   7.542   4.143 -0.7578  0.1346 -0.0987
    6MOL    H91 2401   3.926   7.551   4.255 -2.3385  0.2666  1.9817
    6MOL    H92 2402   3.918   7.125   4.326 -0.6058 -1.0147 -0.1733
    6MOL    H93 2403   3.695   7.119   4.217  0.8545 -0.8206  0.0073
    6MOL    O94 2404   4.254   7.452   4.482  0.4671 -0.0230 -0.4305
    6MOL    C95 2405   4.206   7.504   4.611 -0.3213  0.1184  0.3289
    6MOL    C96 2406   4.322   7.518   4.706  0.0241  0.3315 -0.4083
    6MOL    O97 2407   4.404   7.627   4.688 -0.1354 -0.3211  0.3872
    6MOL    C98 2408   4.361   7.750   4.715 -0.2253  0.1539  0.1530
    6MOL    O99 2409   4.253   7.772   4.770  0.0060  0.0908 -0.5123
    6MOL   C100 2410   4.456   7.863   4.693 -0.4385 -0.3533  0.4599
    6MOL   C101 2411   4.456   7.979   4.769 -0.3410  0.6476 -0.1007
    6MOL   C102 2412   4.563   8.071   4.769  0.3162 -0.3916 -0.1551
    6MOL   C103 2413   4.675   8.046   4.687  0.5095 -0.0953  0.0225
    6MOL   C104 2414   4.794   8.129   4.692 -0.1421  1.1962 -0.3037
    6MOL   O105 2415   4.909   8.089   4.673 -0.0744 -0.9508 -0.8437
    6MOL   O106 2416   4.774   8.259   4.715 -0.2604 -0.1537  0.0646
    6MOL   C107 2417   4.668   7.934   4.600 -0.4121  0.2244  1.3123
    6MOL   C108 2418   4.558   7.839   4.598 -0.4766 -0.4000 -0.5467
    6MOL   H109 2419   4.148   7.595   4.597  0.4097  0.1320 -3.0517
    6MOL   H110 2420   4.140   7.429   4.654  0.2850 -0.6847 -0.1174
    6MOL   H111 2421   4.382   7.428   4.697  0.2826  0.6190 -1.5729
    6MOL   H112 2422   4.277   7.529   4.805 -0.3417  1.8242 -0.7204
    6MOL   H113 2423   4.383   7.992   4.848  2.0419 -0.0025  2.3015
    6MOL   H114 2424   4.568   8.150   4.843 -1.0787  1.8254 -2.3343
    6MOL   H115 2425   4.744   7.925   4.524 -0.9483 -0.1198  0.8155
    6MOL   H116 2426   4.564   7.747   4.541  1.0420 -0.4179 -0.3814
    6MOL   O117 2427   4.905   0.056   4.736  0.1958 -0.3059  0.2078
    6MOL   C118 2428   4.944   0.133   4.619  0.0083 -0.4068 -0.2191
    6MOL   C119 2429   5.081   0.215   4.649  0.2350  0.3279  0.1448
    6MOL   O120 2430   5.060   0.346   4.698 -0.0778 -1.0408 -0.2170
    6MOL   C121 2431   5.158   0.406   4.769  0.4638  0.7619 -0.4053
    6MOL   O122 2432   5.269   0.357   4.773 -0.1540  0.0614  0.6464
    6MOL   C123 2433   5.129   0.536   4.836  0.1737 -0.4462 -0.6633
    6MOL   C124 2434   5.230   0.606   4.912 -0.4706 -0.0275 -0.3501
    6MOL   C125 2435   5.204   0.728   4.972  0.0732  0.1198 -0.3711
    6MOL   C126 2436   5.075   0.786   4.965 -0.4851  0.3062 -0.9512
    6MOL   C127 2437   5.048   0.903   5.052 -0.1590  0.0874  0.5560
    6MOL   O128 2438   5.129   0.948   5.136 -0.1343  0.4658  0.3301
    6MOL   O129 2439   4.923   0.957   5.036 -0.1742  0.0341  0.1066
    6MOL   C130 2440   4.970   0.714   4.899  0.0570 -0.1796 -0.2693
    6MOL   C131 2441   4.990   0.588   4.837  0.1615  0.2019  0.0759
    6MOL   H132 2442   4.954   0.063   4.537  0.5189 -0.4974 -0.0875
    6MOL   H133 2443   4.865   0.205   4.598  0.5090  0.0136 -0.6842
    6MOL   H134 2444   5.140   0.220   4.557 -1.1340  0.4381 -0.7384
    6MOL   H135 2445   5.139   0.163   4.726 -1.0411 -0.5678  0.5066
    6MOL   H136 2446   5.324   0.552   4.912 -1.7172 -2.2507 -0.6628
    6MOL   H137 2447   5.282   0.795   5.007 -0.5017  1.1351 -1.0175
    6MOL   H138 2448   4.870   0.751   4.883 -0.0349 -0.7647 -1.1075
    6MOL   H139 2449   4.914   0.529   4.788  0.0371 -0.6732  1.3225
    6MOL   O140 2450   4.909   1.106   5.068 -0.2848  0.4589 -0.0078
    6MOL   C141 2451   4.907   1.175   4.948 -0.2392  0.2233  0.4992
    6MOL   C142 2452   4.762   1.180   4.913  0.5185 -0.1972  0.1985
    6MOL   O143 2453   4.679   1.068   4.899  0.2130  0.3105  0.2014
    6MOL   C144 2454   4.708   0.989   4.799  0.2142  0.4791  0.3366
    6MOL   O145 2455   4.798   1.007   4.716 -0.2913 -0.5382  0.2578
    6MOL   C146 2456   4.627   0.870   4.789 -0.3673  0.2330 -0.5595
    6MOL   C147 2457   4.500   0.865   4.844  0.6432 -0.3286 -0.4141
    6MOL   C148 2458   4.424   0.746   4.827 -0.1011  0.0546 -0.7820
    6MOL   C149 2459   4.463   0.640   4.737  0.2996  0.5446  0.5416
    6MOL   C150 2460   4.367   0.526   4.705  0.0633  0.2075 -0.0778
    6MOL   O151 2461   4.394   0.451   4.615  0.5775  0.2349  1.0156
    6MOL   O152 2462   4.254   0.522   4.783 -0.5057 -0.1409  0.0822
    6MOL   C153 2463   4.588   0.648   4.680  0.2584 -0.0263  0.3850
    6MOL   C154 2464   4.663   0.764   4.702  0.4865 -0.4986  0.8039
    6MOL   H155 2465   4.941   1.276   4.972 -0.3210 -0.0301  1.7324
    6MOL   H156 2466   4.973   1.125   4.878  0.1438  0.1915  0.8773
    6MOL   H157 2467   4.741   1.244   4.827 -0.0379 -0.5766  0.0466
    6MOL   H158 2468   4.720   1.236   4.997  3.8925  1.3500  0.9467
    6MOL   H159 2469   4.465   0.936   4.918 -2.0054 -1.6498 -0.3442
    6MOL   H160 2470   4.321   0.742   4.860 -0.7055 -2.5306 -2.7934
    6MOL   H161 2471   4.625   0.570   4.615 -2.2684  0.1781 -1.3452
    6MOL   H162 2472   4.758   0.790   4.658  0.3993  0.4038  1.1480
    6MOL   O163 2473   4.186   0.385   4.767 -0.5014  0.1716 -0.5033
    6MOL   C164 2474   4.051   0.408   4.719 -0.4365  0.2750 -0.1889
    6MOL   C165 2475   4.045   0.439   4.563 -0.3012 -0.1610  0.4244
    6MOL   O166 2476   4.063   0.324   4.491 -0.6682 -0.3554 -0.4493
    6MOL   C167 2477   3.965   0.239   4.458 -0.1775 -0.2294  0.4365
    6MOL   O168 2478   3.843   0.249   4.489  0.4679 -0.1492 -0.0693
    6MOL   C169 2479   4.017   0.129   4.373 -0.7596 -0.1692 -0.0379
    6MOL   C170 2480   3.925   0.035   4.326  0.5836  0.2994 -0.7501
    6MOL   C171 2481   3.973   8.201   4.249 -0.2152  0.2612 -0.4909
    6MOL   C172 2482   4.105   8.181   4.211 -0.3062 -0.3796 -0.0016
    6MOL   C173 2483   4.161   8.067   4.129  0.0258  0.7830  0.0005
    6MOL   O174 2484   4.281   8.053   4.102 -0.1976  0.4170  0.1017
    6MOL   O175 2485   4.067   7.975   4.098 -0.1127 -0.0906 -0.2458
    6MOL   C176 2486   4.198   0.015   4.247  0.4588 -0.0884 -0.0427
    6MOL   C177 2487   4.150   0.116   4.334  0.6478 -0.1461  0.6267
    6MOL   H178 2488   3.979   0.326   4.723  1.2595 -1.2805 -0.9718
    6MOL   H179 2489   3.995   0.477   4.782 -1.6383 -0.4183 -0.4708
    6MOL   H180 2490   4.124   0.508   4.533 -0.6973 -0.3098 -0.9903
    6MOL   H181 2491   3.949   0.484   4.536 -2.5588 -5.3986 -0.8727
    6MOL   H182 2492   3.821   0.041   4.356  0.9503  1.1414  0.4052
    6MOL   H183 2493   3.905   8.118   4.239 -0.4679  0.4494 -0.3854
    6MOL   H184 2494   4.302   0.011   4.218 -0.0404 -3.3264 -1.5795
    6MOL   H185 2495   4.222   0.193   4.356  1.4637 -0.1471 -1.8153
    6MOL   O186 2496   4.128   7.847   4.045  0.3568 -0.0684 -0.3304
    6MOL   C187 2497   4.110   7.757   4.143  0.6430  1.0726  0.0105
    6MOL   C188 2498   4.143   7.621   4.075 -0.2584  0.1132  0.1150
    6MOL   O189 2499   4.017   7.579   4.019  0.0246  0.1383 -0.3062
    6MOL   C190 2500   4.033   7.458   3.956  0.2831 -0.2546  0.5266
    6MOL   O191 2501   4.138   7.391   3.951  0.4445  0.5698 -0.2833
    6MOL   C192 2502   3.902   7.431   3.889 -1.1694  0.5020 -0.1629
    6MOL   C193 2503   3.795   7.535   3.860 -0.2335  0.4433  0.1686
    6MOL   C194 2504   3.682   7.497   3.791 -0.3118 -0.6578  0.0208
    6MOL   C195 2505   3.658   7.370   3.749  0.0025 -0.1248 -0.2535
    6MOL   C196 2506   3.529   7.345   3.680  0.2159  0.6409 -0.4901
    6MOL   O197 2507   3.460   7.430   3.633 -0.2489 -0.5920 -0.0432
    6MOL   O198 2508   3.496   7.218   3.691 -0.0623 -0.4870  0.2538
    6MOL   C199 2509   3.755   7.270   3.778 -0.4982 -0.4785  0.4660
    6MOL   C200 2510   3.877   7.300   3.845  0.3808 -0.3650  0.0974
    6MOL   H201 2511   4.179   7.785   4.222  0.7750 -1.3159  0.7783
    6MOL   H202 2512   4.004   7.763   4.168  0.3363  1.9289 -1.3844
    6MOL   H203 2513   4.188   7.569   4.159  1.2139  3.9435  1.7870
    6MOL   H204 2514   4.229   7.625   4.008 -0.0239  0.4957  0.4354
    6MOL   H205 2515   3.810   7.636   3.896  2.5139  0.1087  0.0701
    6MOL   H206 2516   3.604   7.569   3.772 -1.1060 -1.6053 -0.3182
    6MOL   H207 2517   3.744   7.177   3.726  4.2813 -0.9471  0.0429
    6MOL   H208 2518   3.949   7.225   3.873  1.5995  0.6464 -0.2535
    6MOL   O209 2519   3.360   7.177   3.650  0.3369 -0.8248 -0.3274
    6MOL   C210 2520   3.375   7.098   3.531  0.5231 -0.4589  0.3026
    6MOL   C211 2521   3.237   7.061   3.470  0.7447  0.1987  0.1592
    6MOL   O212 2522   3.258   6.963   3.363 -0.1990 -0.1203 -0.5110
    6MOL   C213 2523   3.296   7.003   3.249 -0.5517  0.3149  0.1050
    6MOL   O214 2524   3.329   7.119   3.225  0.6219 -0.1646  0.2631
    6MOL   C215 2525   3.301   6.882   3.154  0.6440  0.7229  0.0846
    6MOL   C216 2526   3.305   6.750   3.203  0.1475  0.9396 -0.7836
    6MOL   C217 2527   3.315   6.638   3.111 -0.1352 -0.6503  0.4428
    6MOL   C218 2528   3.342   6.660   2.978 -0.6467 -0.8976  0.0122
    6MOL   C219 2529   3.370   6.551   2.878  0.0420 -1.3997  0.0673
    6MOL   O220 2530   3.370   6.431   2.911  0.0394 -0.2243 -0.0050
    6MOL   O221 2531   3.397   6.607   2.755  0.1722 -0.5109  0.1306
    6MOL   C222 2532   3.337   6.798   2.928  0.2775 -0.6747  0.5816
    6MOL   C223 2533   3.316   6.907   3.017 -0.0209 -0.0124  0.3985
    6MOL   H224 2534   3.452   7.146   3.470 -1.2109  0.8015 -0.9383
    6MOL   H225 2535   3.410   7.000   3.563  0.9494 -0.0035  1.2271
    6MOL   H226 2536   3.184   7.150   3.436 -0.6667 -0.6561  0.0784
    6MOL   H227 2537   3.175   7.009   3.543 -0.3546 -1.9672 -2.2680
    6MOL   H228 2538   3.305   6.738   3.310 -0.8198  1.8211 -0.6837
    6MOL   H229 2539   3.323   6.537   3.150 -0.1929 -0.1437  1.8218
    6MOL   H230 2540   3.344   6.818   2.823  1.3632  0.7238  0.9094
    6MOL   H231 2541   3.329   7.007   2.978 -2.2655  0.7240  1.4608
    6MOL   O232 2542   3.406   6.503   2.644  0.6698  0.6523  0.6863
    6MOL   C233 2543   3.542   6.481   2.613 -0.0388 -0.5424 -0.0124
    6MOL   C234 2544   3.538   6.362   2.515 -0.2632  0.3118 -0.6498
    6MOL   O235 2545   3.506   6.235   2.569 -0.3083 -0.3363 -0.6768
    6MOL   C236 2546   3.500   6.128   2.482  0.6587  0.2446  0.7488
    6MOL   O237 2547   3.519   6.141   2.363 -0.2658 -0.4616 -0.8243
    6MOL   C238 2548   3.480   5.995   2.548  0.6438  0.2154 -0.9142
    6MOL   C239 2549   3.446   5.878   2.472  0.6154 -0.1274  0.3340
    6MOL   C240 2550   3.421   5.756   2.542 -0.4352  0.0281 -0.0744
    6MOL   C241 2551   3.434   5.745   2.683 -0.0732  0.0538 -0.1557
    6MOL   C242 2552   3.395   5.620   2.762  0.4950 -0.0829  0.6986
    6MOL   O243 2553   3.333   5.525   2.714  0.6230  0.4891 -0.3305
    6MOL   O244 2554   3.424   5.624   2.892  0.5340  0.1585 -0.5916
    6MOL   C245 2555   3.481   5.859   2.753 -0.2510 -0.0143 -0.0163
    6MOL   C246 2556   3.514   5.982   2.685  0.7180  0.1379  0.0430
    6MOL   H247 2557   3.595   6.571   2.582  1.0427 -0.5195  1.8708
    6MOL   H248 2558   3.589   6.445   2.705 -1.3097 -0.0913  0.8173
    6MOL   H249 2559   3.630   6.350   2.458 -0.6268  1.5532 -1.5256
    6MOL   H250 2560   3.453   6.379   2.449 -1.4350 -0.1561  0.7025
    6MOL   H251 2561   3.443   5.874   2.364  1.3607 -2.6776  0.3772
    6MOL   H252 2562   3.377   5.681   2.478  0.0444  2.1381 -2.9564
    6MOL   H253 2563   3.477   5.853   2.861 -0.0100  5.5727  0.4733
    6MOL   H254 2564   3.557   6.065   2.739  0.9457 -0.8715  1.4444
    6MOL   O255 2565   3.354   5.515   2.977 -0.3990 -0.2152 -0.2628
    6MOL   C256 2566   3.237   5.580   3.027 -0.4881  0.1957  0.3213
    6MOL   C257 2567   3.264   5.713   3.100 -0.0790 -0.0875  0.9057
    6MOL   O258 2568   3.245   5.833   3.027 -0.1338  0.5110  0.3114
    6MOL   C259 2569   3.118   5.869   2.998  0.3077 -0.1671 -0.0366
    6MOL   O260 2570   3.024   5.796   3.030  0.0789 -0.3045  0.0328
    6MOL   C261 2571   3.111   6.000   2.932  0.5542 -0.1324 -0.0943
    6MOL   C262 2572   3.220   6.058   2.863 -0.3884 -0.6915  0.5322
    6MOL   C263 2573   3.209   6.181   2.796  0.3185  0.0621 -0.3431
    6MOL   C264 2574   3.076   6.248   2.793 -0.3608 -0.5018  0.3330
    6MOL   C265 2575   3.052   6.369   2.714  0.1266 -0.3922  0.1201
    6MOL   O266 2576   2.950   6.445   2.724 -0.4760  0.5531  0.1998
    6MOL   O267 2577   3.159   6.397   2.628 -0.0350 -0.3195  0.3255
    6MOL   C268 2578   2.974   6.187   2.865 -0.3329  0.1575 -0.9102
    6MOL   C269 2579   2.987   6.064   2.929 -0.2361 -0.1866  0.5650
    6MOL   H270 2580   3.170   5.595   2.942  1.3225  0.3488 -1.1217
    6MOL   H271 2581   3.177   5.511   3.086 -1.4788  0.3491 -0.4966
    6MOL   H272 2582   3.370   5.727   3.119 -0.0726  3.9717 -1.4840
    6MOL   H273 2583   3.201   5.733   3.186  1.1927  0.8616  1.6369
    6MOL   H274 2584   3.318   6.012   2.868  1.0203  1.9622 -1.3047
    6MOL   H275 2585   3.296   6.215   2.741 -0.7805 -0.3517 -2.3707
    6MOL   H276 2586   2.877   6.235   2.871 -0.0406  0.6390  0.1515
    6MOL   H277 2587   2.898   6.015   2.968 -1.9560  1.6614 -0.8979
    6MOL   O278 2588   3.125   6.508   2.535 -0.2828 -0.4331  0.0886
    6MOL   C279 2589   3.055   6.453   2.423 -0.7166 -0.7144  0.1636
    6MOL   C280 2590   3.095   6.519   2.288 -0.3421 -0.2713  0.4029
    6MOL   O281 2591   3.218   6.477   2.219 -0.5462 -0.2725 -0.2727
    6MOL   C282 2592   3.336   6.521   2.263 -0.0579 -0.2414  0.7869
    6MOL   O283 2593   3.346   6.594   2.363  0.2901 -0.0609 -0.0915
    6MOL   C284 2594   3.447   6.489   2.169  0.6186 -0.8057  0.0059
    6MOL   C285 2595   3.425   6.420   2.047 -0.4877 -0.6355  0.3899
    6MOL   C286 2596   3.532   6.398   1.958  0.7017 -0.8655 -0.2694
    6MOL   C287 2597   3.659   6.448   1.989 -0.3839 -0.3137 -0.7103
    6MOL   C288 2598   3.768   6.436   1.881 -0.0974 -0.3866  0.4210
    6MOL   O289 2599   3.761   6.375   1.776 -0.0866 -0.3974 -0.2274
    6MOL   O290 2600   3.862   6.523   1.906 -0.0410 -0.1869  0.3042
    6MOL   C291 2601   3.680   6.510   2.119  0.3509  0.4752  0.6765
    6MOL   C292 2602   3.573   6.538   2.202 -0.2804  0.1967  0.9081
    6MOL   H293 2603   3.076   6.346   2.424  2.4702 -0.1280  1.3605
    6MOL   H294 2604   2.950   6.469   2.448 -0.6689 -1.1311  0.6346
    6MOL   H295 2605   3.090   6.627   2.298 -1.5583 -0.3026  0.2060
    6MOL   H296 2606   3.012   6.508   2.218  0.5819 -1.6843 -0.5197
    6MOL   H297 2607   3.329   6.392   2.006 -0.8228  3.1883 -1.6651
    6MOL   H298 2608   3.502   6.363   1.861  0.6543  0.7532 -0.8455
    6MOL   H299 2609   3.776   6.548   2.151  0.2420 -0.6105  2.3219
    6MOL   H300 2610   3.595   6.584   2.297  3.2444 -1.4113  0.9492
    6MOL   O301 2611   3.962   6.543   1.801  0.1531 -0.1413 -0.0617
    6MOL   C302 2612   4.080   6.472   1.839 -0.3965  0.6955 -0.4613
    6MOL   C303 2613   4.181   6.450   1.723  0.3618  0.8974  0.2487
    6MOL   O304 2614   4.126   6.350   1.641 -0.0416  0.0492  0.0226
    6MOL   C305 2615   4.161   6.214   1.663  0.9000  0.1724 -0.2521
    6MOL   O306 2616   4.244   6.178   1.750 -0.3061 -0.4994  0.3490
    6MOL   C307 2617   4.091   6.122   1.568 -0.2616  0.1824  0.2371
    6MOL   C308 2618   4.013   6.173   1.463 -0.5166 -0.0676  0.5864
    6MOL   C309 2619   3.955   6.099   1.366  0.2242  0.6597 -0.4644
    6MOL   C310 2620   3.976   5.957   1.373 -0.4560 -0.2768 -0.3568
    6MOL   C311 2621   3.933   5.865   1.260  0.5311  0.6313 -0.7036
    6MOL   O312 2622   3.964   5.744   1.254  0.1668 -0.4422  0.4677
    6MOL   O313 2623   3.858   5.932   1.170 -0.6358  0.2531  0.3904
    6MOL   C314 2624   4.054   5.899   1.471 -0.3957  0.7463  0.1637
    6MOL   C315 2625   4.116   5.982   1.565  0.3619 -1.0376 -0.2631
    6MOL   H316 2626   4.128   6.530   1.918 -0.4570 -1.5467  1.2595
    6MOL   H317 2627   4.056   6.373   1.878  0.5876  0.7223  0.2054
    6MOL   H318 2628   4.273   6.418   1.771 -0.8767  0.4644  2.3773
    6MOL   H319 2629   4.202   6.542   1.668  0.2887  0.1339 -1.0875
    6MOL   H320 2630   4.010   6.280   1.451  1.4579 -0.0547  0.1276
    6MOL   H321 2631   3.913   6.152   1.282 -0.1007 -0.1321 -0.8077
    6MOL   H322 2632   4.067   5.792   1.459  0.2384  0.2989  4.1670
    6MOL   H323 2633   4.186   5.949   1.641 -0.6672 -2.2684  0.1734
    6MOL   O324 2634   3.855   5.864   1.035  0.0091 -0.6654 -0.1379
    6MOL   C325 2635   3.728   5.807   1.015  0.1981 -0.2093  0.5087
    6MOL   C326 2636   3.735   5.734   0.876  0.5097 -0.5854  0.4914
    6MOL   O327 2637   3.801   5.611   0.872 -0.5292  1.2382  0.3649
    6MOL   C328 2638   3.941   5.608   0.874 -0.1730 -0.0221  0.2135
    6MOL   O329 2639   4.017   5.704   0.847  0.2863 -0.2321  0.1790
    6MOL   C330 2640   3.998   5.475   0.924  0.0155 -0.7665  0.0563
    6MOL   C331 2641   3.914   5.357   0.938 -0.8543 -0.3298  0.5726
    6MOL   C332 2642   3.973   5.240   0.977  0.8754  0.3341  0.3329
    6MOL   C333 2643   4.107   5.241   1.014  0.2172 -0.1475 -0.8767
    6MOL   C334 2644   4.171   5.122   1.082  0.3043  0.2897 -0.2009
    6MOL   O335 2645   4.296   5.100   1.080  0.0061  0.1239  0.2673
    6MOL   O336 2646   4.091   5.060   1.161 -0.3911  0.1741 -0.1649
    6MOL   C337 2647   4.189   5.355   1.006 -0.0939 -0.5540  0.1666
    6MOL   C338 2648   4.134   5.474   0.956  0.1531 -0.2418  0.1475
    6MOL   H339 2649   3.708   5.734   1.094 -1.1162 -0.0494  0.3361
    6MOL   H340 2650   3.653   5.885   1.015  0.1889 -0.2019 -0.8705
    6MOL   H341 2651   3.771   5.796   0.793  0.6756 -1.1197  0.1605
    6MOL   H342 2652   3.630   5.711   0.858 -0.5320  2.9471  1.6960
    6MOL   H343 2653   3.809   5.363   0.913 -0.8901  1.9455  1.1414
    6MOL   H344 2654   3.919   5.146   0.980 -2.1083  1.9985  0.2722
    6MOL   H345 2655   4.293   5.353   1.036 -0.1271 -1.4794  0.2312
    6MOL   H346 2656   4.197   5.562   0.958 -0.4618  0.1996  0.1236
    6MOL   O347 2657   4.160   4.945   1.240  0.5910  0.7393 -0.2571
    6MOL   C348 2658   4.139   4.962   1.382  0.1619  0.0186 -0.5692
    6MOL   C349 2659   3.995   4.906   1.412 -0.6812  0.4605 -0.3665
    6MOL   O350 2660   3.987   4.780   1.468 -0.4331 -0.3319 -0.1137
    6MOL   C351 2661   3.890   4.744   1.554  0.2747  0.2371  0.5721
    6MOL   O352 2662   3.804   4.822   1.595  0.3444  0.6446  0.2422
    6MOL   C353 2663   3.894   4.596   1.583  0.0202 -0.4571  0.7797
    6MOL   C354 2664   3.952   4.505   1.494 -0.4247  0.0993 -0.2691
    6MOL   C355 2665   3.942   4.367   1.528  0.5472 -0.4261 -0.4758
    6MOL   C356 2666   3.872   4.325   1.640 -0.2653  0.1492 -0.0991
    6MOL   C357 2667   3.852   4.178   1.668 -0.2564 -0.1914 -0.2118
    6MOL   O358 2668   3.779   4.137   1.758 -0.0184 -0.9160 -0.1783
    6MOL   O359 2669   3.924   4.101   1.584 -0.7400 -0.4213  0.0534
    6MOL   C360 2670   3.815   4.419   1.728  0.3090  0.4086 -0.2462
    6MOL   C361 2671   3.826   4.556   1.699 -0.1594 -0.1285  0.4729
    6MOL   H362 2672   4.218   4.915   1.442  1.2312 -0.6402 -2.4573
    6MOL   H363 2673   4.132   5.067   1.411  2.2678  0.2903 -0.9599
    6MOL   H364 2674   3.938   4.897   1.319 -1.3841 -1.3614  0.2201
    6MOL   H365 2675   3.935   4.976   1.469  1.1705 -0.2300  2.5459
    6MOL   H366 2676   4.011   4.540   1.411  0.4288  2.1373  1.1651
    6MOL   H367 2677   3.980   4.301   1.452 -2.3337 -2.2591 -0.3953
    6MOL   H368 2678   3.749   4.395   1.810 -0.2122  3.1865  0.1915
    6MOL   H369 2679   3.776   4.629   1.760 -1.3547 -0.4443 -0.1129
    6MOL   O370 2680   3.910   3.954   1.615  0.0490  0.2184  0.2120
    6MOL   C371 2681   3.791   3.906   1.549 -0.3943 -0.7128  0.0588
    6MOL   C372 2682   3.820   3.839   1.408 -0.2137  0.2310  0.5028
    6MOL   O373 2683   3.746   3.921   1.312 -0.2522 -0.2032  0.1857
    6MOL   C374 2684   3.708   3.882   1.195  0.4102  1.0607 -0.3974
    6MOL   O375 2685   3.694   3.759   1.160  0.4438  0.0459 -0.4330
    6MOL   C376 2686   3.678   3.993   1.093 -0.0408  0.9925  0.2852
    6MOL   C377 2687   3.628   3.964   0.963  0.4185  0.2030  0.2797
    6MOL   C378 2688   3.579   4.061   0.871  0.2748 -1.0358  0.3521
    6MOL   C379 2689   3.589   4.197   0.907  0.0231  0.2143 -0.1308
    6MOL   C380 2690   3.547   4.308   0.805  0.3252  0.2205  0.8118
    6MOL   O381 2691   3.486   4.283   0.699  1.1346 -0.1344  1.1187
    6MOL   O382 2692   3.588   4.427   0.835 -0.0920  0.2496  0.0245
    6MOL   C383 2693   3.650   4.231   1.032  0.1491 -0.0692  0.2531
    6MOL   C384 2694   3.686   4.127   1.125  0.0597  0.5556 -0.1213
    6MOL   H385 2695   3.747   3.839   1.623  1.2588 -1.1897  0.6431
    6MOL   H386 2696   3.711   3.979   1.539  0.0113 -0.3265 -0.4206
    6MOL   H387 2697   3.782   3.738   1.420 -0.1363 -0.0778 -1.6436
    6MOL   H388 2698   3.925   3.827   1.384 -0.5515  0.2810 -1.0923
    6MOL   H389 2699   3.615   3.858   0.946  0.8554 -0.5246  4.1597
    6MOL   H390 2700   3.531   4.034   0.779 -2.1827 -0.8030  1.5147
    6MOL   H391 2701   3.659   4.330   1.076  0.1372 -0.3807  0.9647
    6MOL   H392 2702   3.730   4.149   1.221  0.4156 -2.0185  0.3189
    6MOL   O393 2703   3.548   4.534   0.739  0.3013 -0.0333 -0.4095
    6MOL   C394 2704   3.515   4.647   0.821  0.0805  0.1959  0.5542
    6MOL   C395 2705   3.638   4.729   0.849 -0.6949  1.0749 -0.3880
    6MOL   O396 2706   3.733   4.652   0.932  0.3461  0.5969  0.3961
    6MOL   C397 2707   3.831   4.723   0.991  0.5680 -0.2289 -0.2061
    6MOL   O398 2708   3.834   4.846   0.988 -0.3750  0.6312 -0.1480
    6MOL   C399 2709   3.945   4.646   1.045  0.6279  0.5531 -0.8491
    6MOL   C400 2710   3.932   4.513   1.091 -0.4878  0.8803 -0.3068
    6MOL   C401 2711   4.043   4.439   1.141  0.2223  0.4225  0.3547
    6MOL   C402 2712   4.169   4.508   1.151  0.1120  0.4878  0.6617
    6MOL   C403 2713   4.278   4.444   1.227 -0.7593 -0.5956 -0.0725
    6MOL   O404 2714   4.392   4.493   1.236  0.2139 -0.3134 -1.0777
    6MOL   O405 2715   4.252   4.322   1.282  0.1635  0.0463  0.4658
    6MOL   C406 2716   4.183   4.634   1.100  0.3551  0.2765  0.5764
    6MOL   C407 2717   4.072   4.704   1.052 -0.2605 -0.4328 -0.6478
    6MOL   H408 2718   3.441   4.709   0.770  1.7185  0.6192 -1.3814
    6MOL   H409 2719   3.474   4.615   0.916 -0.1122 -2.6849 -0.4673
    6MOL   H410 2720   3.612   4.821   0.901 -0.2897 -0.2029  2.1143
    6MOL   H411 2721   3.688   4.752   0.755  1.4545  0.3069  0.5268
    6MOL   H412 2722   3.839   4.460   1.078 -0.1417  1.0091 -3.7908
    6MOL   H413 2723   4.023   4.339   1.175 -1.9920  0.4564 -0.7300
    6MOL   H414 2724   4.272   4.688   1.129 -1.2058  1.8620  2.5753
    6MOL   H415 2725   4.079   4.805   1.014  1.1296 -0.1904  0.2541
    6MOL   O416 2726   4.375   4.246   1.316 -0.0725 -0.4700  0.5408
    6MOL   C417 2727   4.407   4.270   1.450  0.4344  0.7718  0.0969
    6MOL   C418 2728   4.560   4.242   1.486 -0.2421 -0.1131  0.2260
    6MOL   O419 2729   4.591   4.108   1.499 -0.4179  0.4617 -0.0458
    6MOL   C420 2730   4.590   4.047   1.622  0.6144 -0.4561 -0.3290
    6MOL   O421 2731   4.577   4.102   1.731  0.2621  0.4820  0.9434
    6MOL   C422 2732   4.640   3.903   1.619 -0.2001 -0.2209  0.2270
    6MOL   C423 2733   4.671   3.835   1.739 -0.6255  0.0327 -0.0691
    6MOL   C424 2734   4.727   3.708   1.752  0.2309 -0.2910 -1.0178
    6MOL   C425 2735   4.743   3.632   1.634 -0.5658 -0.5173 -0.1540
    6MOL   C426 2736   4.796   3.493   1.634 -0.2428  0.4559  0.4189
    6MOL   O427 2737   4.807   3.417   1.534 -0.0080 -0.7395  0.1025
    6MOL   O428 2738   4.820   3.444   1.754 -0.2032 -0.4190  0.0617
    6MOL   C429 2739   4.720   3.699   1.508 -0.1065  0.0310 -0.0523
    6MOL   C430 2740   4.670   3.829   1.500 -0.3038  0.3242  0.4837
    6MOL   H431 2741   4.402   4.376   1.472  1.4773  1.1739 -1.5040
    6MOL   H432 2742   4.329   4.221   1.508  3.1965 -0.3179  3.0435
    6MOL   H433 2743   4.583   4.301   1.575 -1.5746  2.6404 -1.2014
    6MOL   H434 2744   4.622   4.284   1.407  1.8007 -1.5650  1.0345
    6MOL   H435 2745   4.641   3.890   1.827 -1.5612 -1.7918  0.8031
    6MOL   H436 2746   4.757   3.668   1.847  1.0173  0.9599 -0.7271
    6MOL   H437 2747   4.739   3.649   1.413  3.5038  4.2018 -1.7275
    6MOL   H438 2748   4.648   3.882   1.408  2.4940  1.1059  0.2416
    6MOL   O439 2749   4.870   3.301   1.753  0.0165 -0.0154 -0.0169
    6MOL   C440 2750   5.004   3.302   1.795  0.1799 -0.2580  0.6908
    6MOL   C441 2751   5.064   3.157   1.787 -0.5108 -0.6386 -0.7630
    6MOL   O442 2752   5.147   3.155   1.667 -0.0517 -0.0091 -0.3760
    6MOL   C443 2753   5.103   3.091   1.560 -0.4841  0.3170 -0.7679
    6MOL   O444 2754   4.990   3.037   1.551 -0.2554  0.6321  0.7395
    6MOL   C445 2755   5.204   3.087   1.449  0.9594 -0.1988 -0.2008
    6MOL   C446 2756   5.326   3.158   1.460  0.0211  0.5558 -0.3311
    6MOL   C447 2757   5.427   3.143   1.364  0.5650  0.0814 -0.6205
    6MOL   C448 2758   5.413   3.073   1.238 -0.4921 -0.3755  0.2274
    6MOL   C449 2759   5.525   3.060   1.137 -0.0379  1.0784  0.1199
    6MOL   O450 2760   5.645   3.061   1.175 -0.0226  0.0062 -0.1311
    6MOL   O451 2761   5.485   3.031   1.010  0.9720 -0.7886 -0.4574
    6MOL   C452 2762   5.288   3.012   1.227  0.0492  0.5010  0.5225
    6MOL   C453 2763   5.183   3.012   1.326 -0.6252 -0.0873  0.1989
    6MOL   H454 2764   5.058   3.378   1.738  0.8626 -0.3479  1.2127
    6MOL   H455 2765   5.002   3.346   1.895 -1.8856  1.9822 -0.2705
    6MOL   H456 2766   4.986   3.080   1.782 -1.6682  0.4513  0.1435
    6MOL   H457 2767   5.125   3.146   1.876  0.0220  1.2800 -0.8796
    6MOL   H458 2768   5.356   3.210   1.551  3.8466 -0.2441 -1.0232
    6MOL   H459 2769   5.524   3.188   1.380  0.7502  0.2031 -1.9798
    6MOL   H460 2770   5.274   2.947   1.142 -2.7447  0.8323  0.7064
    6MOL   H461 2771   5.088   2.962   1.318 -1.2516  0.9785  0.9151
    6MOL   H462 2772   5.562   3.039   0.955  0.7077  2.0265 -0.5150
    7MOL     O1 2773   7.763   1.282   2.209 -0.3445 -0.5279 -0.5360
    7MOL     C2 2774   7.695   1.303   2.331 -0.5233  0.1557 -0.0483
    7MOL     C3 2775   7.541   1.287   2.322 -0.4895 -0.5901 -0.4065
    7MOL     O4 2776   7.508   1.148   2.326 -0.4629  0.4837 -0.0928
    7MOL     C5 2777   7.379   1.112   2.343  0.1475 -0.3119  0.6033
    7MOL     O6 2778   7.286   1.183   2.381 -0.4009 -0.1420  0.0869
    7MOL     C7 2779   7.359   0.965   2.322 -0.0256 -0.5465  0.5135
    7MOL     C8 2780   7.228   0.903   2.337 -0.2398  0.0308  0.9768
    7MOL     C9 2781   7.205   0.766   2.321 -0.1085 -0.3624  0.2108
    7MOL    C10 2782   7.316   0.679   2.282  0.1657 -0.5629  0.4630
    7MOL    C11 2783   7.293   0.538   2.242  0.0779  0.5848 -0.3565
    7MOL    O12 2784   7.385   0.466   2.204 -0.0323  0.0605 -0.0801
    7MOL    O13 2785   7.161   0.496   2.242  0.3559 -0.2557  0.0139
    7MOL    C14 2786   7.446   0.736   2.280  0.5564  0.2984 -0.1202
    7MOL    C15 2787   7.463   0.875   2.292  0.2092  0.3643 -0.6356
    7MOL    H16 2788   7.728   1.239   2.414 -1.2706 -0.3129 -0.1064
    7MOL    H17 2789   7.711   1.406   2.362 -1.5529  0.6213 -1.0310
    7MOL    H18 2790   7.499   1.336   2.235  1.7968 -0.2484 -1.3424
    7MOL    H19 2791   7.498   1.337   2.409 -0.7514 -0.7726 -0.4305
    7MOL    H20 2792   7.143   0.961   2.370  0.1449  1.1764 -0.0094
    7MOL    H21 2793   7.104   0.731   2.329 -0.3989  0.3734 -0.1693
    7MOL    H22 2794   7.530   0.673   2.256 -0.5378 -1.4026  0.4044
    7MOL    H23 2795   7.562   0.918   2.280 -0.5314  2.3268  0.0249
    7MOL    H24 2796   7.855   1.264   2.218 -0.2649 -0.0594 -0.4091
    7MOL    O25 2797   7.147   0.351   2.242 -0.2026 -0.9670 -0.6871
    7MOL    C26 2798   7.109   0.306   2.110 -0.7783  0.3912 -0.0391
    7MOL    C27 2799   7.138   0.153   2.115 -0.9621 -0.7786 -0.2505
    7MOL    O28 2800   7.275   0.120   2.131 -0.1539  0.1256  0.7576
    7MOL    C29 2801   7.367   0.149   2.033  0.1417  0.2959  0.2757
    7MOL    O30 2802   7.336   0.189   1.922  0.5552  0.5217 -0.1310
    7MOL    C31 2803   7.500   0.106   2.068  0.1878  0.4796  0.5246
    7MOL    C32 2804   7.522   0.023   2.179 -0.0120 -0.0353 -0.6007
    7MOL    C33 2805   7.654   8.253   2.204 -0.2311  0.4046 -0.2951
    7MOL    C34 2806   7.766   0.021   2.130 -0.6031 -0.4427  0.3824
    7MOL    C35 2807   7.898   8.268   2.183 -0.0807  0.3529 -0.5925
    7MOL    O36 2808   7.926   8.170   2.253 -0.0106 -0.3230  0.2256
    7MOL    O37 2809   7.996   0.080   2.143  0.1655  0.0012  0.0064
    7MOL    C38 2810   7.746   0.105   2.018 -0.3670 -0.0977  0.7493
    7MOL    C39 2811   7.610   0.140   1.985  0.2109 -0.0220 -0.3355
    7MOL    H40 2812   7.002   0.315   2.090 -0.8201  0.2109  0.1058
    7MOL    H41 2813   7.177   0.356   2.041 -2.9625  2.8362 -0.5200
    7MOL    H42 2814   7.104   0.096   2.029 -1.2513 -0.7826 -0.1348
    7MOL    H43 2815   7.084   0.118   2.203 -0.7906  1.0685  0.6142
    7MOL    H44 2816   7.449   8.264   2.251 -1.1264 -0.3707 -1.8836
    7MOL    H45 2817   7.659   8.199   2.298 -0.1500  1.4419  0.3048
    7MOL    H46 2818   7.826   0.143   1.956 -2.6457  2.9047 -0.5011
    7MOL    H47 2819   7.586   0.200   1.898  4.2024 -1.2376 -2.3533
    7MOL    O48 2820   8.128   0.028   2.173  0.5805 -0.2363  0.3907
    7MOL    C49 2821   8.192   0.102   2.283  0.3964  0.5282 -0.0877
    7MOL    C50 2822   8.265   0.214   2.212  0.6752 -0.6167  0.1867
    7MOL    O51 2823   8.253   0.339   2.273  0.1867  0.7484  0.4993
    7MOL    C52 2824   0.039   0.347   2.391  0.7417  0.3212  0.1654
    7MOL    O53 2825   0.106   0.259   2.440  0.3523 -0.7491  0.5350
    7MOL    C54 2826   0.015   0.476   2.464 -0.2564  0.1939  0.5006
    7MOL    C55 2827   8.220   0.584   2.406  0.0545  0.4669 -0.0186
    7MOL    C56 2828   8.185   0.700   2.478  0.5577  0.2283  0.1500
    7MOL    C57 2829   8.237   0.727   2.606  0.3391 -0.5074  0.0801
    7MOL    C58 2830   8.202   0.851   2.684 -0.4090  0.1574 -1.2963
    7MOL    O59 2831   8.256   0.882   2.792  0.1858 -0.2640 -0.8338
    7MOL    O60 2832   8.115   0.929   2.613 -0.4225  0.7039 -0.2349
    7MOL    C61 2833   0.025   0.618   2.672 -0.5085 -0.2513 -0.4225
    7MOL    C62 2834   0.054   0.497   2.603  0.2241 -0.6545 -0.1389
    7MOL    H63 2835   8.122   0.146   2.354  1.5831  2.4806 -0.0848
    7MOL    H64 2836   8.249   0.038   2.350 -1.2932  1.3366  2.1814
    7MOL    H65 2837   8.231   0.224   2.109  1.4255  0.3651  0.0260
    7MOL    H66 2838   0.093   0.183   2.202  0.5576 -1.8545  2.4868
    7MOL    H67 2839   8.173   0.573   2.310  0.6349 -0.4935 -0.2013
    7MOL    H68 2840   8.119   0.765   2.422 -1.4123 -1.0662  0.9666
    7MOL    H69 2841   0.032   0.632   2.779 -0.9222 -2.4139 -0.0838
    7MOL    H70 2842   0.101   0.422   2.664  0.8545  0.4588  0.7380
    7MOL    O71 2843   8.063   1.043   2.694 -0.6920  0.3888 -0.1323
    7MOL    C72 2844   7.934   1.008   2.744  0.9627 -0.3551  0.0468
    7MOL    C73 2845   7.837   0.993   2.630  0.2288  0.8101  0.0574
    7MOL    O74 2846   7.707   1.022   2.680 -0.1697  0.2089 -0.6122
    7MOL    C75 2847   7.605   0.933   2.668  0.2001 -0.0428  0.1886
    7MOL    O76 2848   7.620   0.814   2.639 -0.4372  0.6386  0.6868
    7MOL    C77 2849   7.476   1.000   2.694  0.1756 -0.6463  0.0578
    7MOL    C78 2850   7.457   1.131   2.745  0.4547 -0.6720  0.6148
    7MOL    C79 2851   7.329   1.191   2.767 -0.6397 -0.2130  0.5900
    7MOL    C80 2852   7.212   1.115   2.734 -0.1933 -0.3822 -0.6657
    7MOL    C81 2853   7.080   1.180   2.761  0.7270 -0.4413  0.1576
    7MOL    O82 2854   7.060   1.299   2.749 -0.3912 -0.4643 -0.0043
    7MOL    O83 2855   6.989   1.100   2.801 -0.7809 -0.4189  0.1638
    7MOL    C84 2856   7.232   0.990   2.674  0.0243 -0.4032 -0.3933
    7MOL    C85 2857   7.360   0.935   2.650  0.1225  0.1189 -0.3434
    7MOL    H86 2858   7.946   0.910   2.789 -1.2788  0.1254  1.7706
    7MOL    H87 2859   7.901   1.082   2.818 -1.8877  0.4839 -1.9843
    7MOL    H88 2860   7.850   0.893   2.588 -2.4717 -0.1366  1.3127
    7MOL    H89 2861   7.851   1.056   2.542  0.7653  1.7270  0.7939
    7MOL    H90 2862   7.542   1.192   2.772 -1.5915  1.5493  2.2108
    7MOL    H91 2863   7.307   1.284   2.817  0.0679  0.2228  0.1042
    7MOL    H92 2864   7.143   0.937   2.641  0.0884 -0.2391 -0.8314
    7MOL    H93 2865   7.369   0.840   2.601 -1.1764 -0.1062 -0.1520
    7MOL    O94 2866   6.871   1.167   2.860  0.0054 -0.4879  0.4514
    7MOL    C95 2867   6.760   1.146   2.761 -0.0910  0.4033 -0.4406
    7MOL    C96 2868   6.627   1.222   2.810 -0.5198  0.0265  0.2978
    7MOL    O97 2869   6.646   1.365   2.844 -0.2328  0.0273 -0.2070
    7MOL    C98 2870   6.664   1.450   2.742  0.1298 -0.1342  0.1112
    7MOL    O99 2871   6.699   1.423   2.630  0.2207 -0.1882  0.6189
    7MOL   C100 2872   6.633   1.587   2.782 -0.2684  0.0550 -0.0249
    7MOL   C101 2873   6.560   1.621   2.901 -0.6319  0.4987  0.0145
    7MOL   C102 2874   6.535   1.755   2.927  0.6076 -0.2172 -0.5546
    7MOL   C103 2875   6.578   1.863   2.846 -0.1873  0.0955  0.8194
    7MOL   C104 2876   6.536   2.007   2.885 -0.2635  0.6871  0.5405
    7MOL   O105 2877   6.452   2.030   2.971  0.2512 -0.1032  0.1484
    7MOL   O106 2878   6.597   2.106   2.814  0.1745  0.2317  0.1926
    7MOL   C107 2879   6.654   1.828   2.732  0.1055  0.1659  0.3278
    7MOL   C108 2880   6.671   1.692   2.692 -0.3663 -0.5331 -0.0974
    7MOL   H109 2881   6.780   1.159   2.655 -0.9132 -1.3554 -0.8255
    7MOL   H110 2882   6.741   1.039   2.763  1.4943  0.1137  0.4150
    7MOL   H111 2883   6.589   1.184   2.904 -0.6738 -0.9076 -0.1337
    7MOL   H112 2884   6.548   1.214   2.736  0.1172  2.1183 -0.6600
    7MOL   H113 2885   6.523   1.536   2.956 -0.3512  0.0127 -0.5403
    7MOL   H114 2886   6.468   1.782   3.008  0.1992 -1.8499 -0.3322
    7MOL   H115 2887   6.680   1.905   2.661 -0.4611  0.9767  0.9779
    7MOL   H116 2888   6.735   1.670   2.608  0.3314 -0.6784  0.4712
    7MOL   O117 2889   6.561   2.238   2.864  0.1836 -0.1141 -0.3050
    7MOL   C118 2890   6.658   2.286   2.956  0.3165  0.3977  0.4475
    7MOL   C119 2891   6.615   2.280   3.101  0.4137 -0.2611 -0.4625
    7MOL   O120 2892   6.658   2.158   3.155 -0.0669 -0.2019  0.0834
    7MOL   C121 2893   6.626   2.128   3.284 -0.7299 -0.7859 -0.5085
    7MOL   O122 2894   6.561   2.201   3.356  0.0423 -0.3758 -0.4004
    7MOL   C123 2895   6.668   1.993   3.325  0.2122 -0.0818  0.6614
    7MOL   C124 2896   6.717   1.896   3.234 -0.2952 -0.2667 -0.0197
    7MOL   C125 2897   6.771   1.774   3.279  0.0223 -0.5675  0.1492
    7MOL   C126 2898   6.782   1.756   3.420 -0.3207 -0.1073  0.0764
    7MOL   C127 2899   6.843   1.627   3.470  0.8449  0.5504 -0.4832
    7MOL   O128 2900   6.815   1.575   3.578  0.0897  0.1696  0.3162
    7MOL   O129 2901   6.927   1.571   3.377 -0.0683 -0.4847  1.4949
    7MOL   C130 2902   6.728   1.850   3.511  0.6183  0.8500 -0.2086
    7MOL   C131 2903   6.672   1.967   3.464  0.1037  0.8435 -0.2504
    7MOL   H132 2904   6.746   2.223   2.944 -1.5231 -1.6685 -2.8078
    7MOL   H133 2905   6.685   2.387   2.924  1.9983  0.1342  1.0101
    7MOL   H134 2906   6.508   2.297   3.116  0.4540 -0.9266  0.6110
    7MOL   H135 2907   6.666   2.362   3.151  1.4989 -1.1045 -0.1698
    7MOL   H136 2908   6.718   1.900   3.126  0.7716  0.4783  0.0156
    7MOL   H137 2909   6.803   1.698   3.209  0.1519  0.6223 -1.0850
    7MOL   H138 2910   6.722   1.837   3.618  1.2830 -3.2554 -0.5618
    7MOL   H139 2911   6.648   2.040   3.540  1.4707  0.6050  0.4290
    7MOL   O140 2912   6.948   1.425   3.393 -0.0234  0.3441  0.1499
    7MOL   C141 2913   6.858   1.351   3.303  0.1256  0.0597  0.0614
    7MOL   C142 2914   6.924   1.356   3.161 -0.3289 -0.4076 -0.1230
    7MOL   O143 2915   7.048   1.288   3.161 -0.4345  0.1563 -0.2518
    7MOL   C144 2916   7.061   1.155   3.128  0.4402 -0.0170  0.0909
    7MOL   O145 2917   6.963   1.078   3.121  0.6494  0.1062 -0.0830
    7MOL   C146 2918   7.202   1.108   3.099 -0.4332  0.5826 -0.5985
    7MOL   C147 2919   7.303   1.205   3.096 -0.2626 -0.2191  0.4938
    7MOL   C148 2920   7.438   1.168   3.074  0.3043  0.5914 -0.4412
    7MOL   C149 2921   7.467   1.027   3.057  0.2822 -0.1190 -0.7006
    7MOL   C150 2922   7.610   0.984   3.025  0.7499 -0.3888  0.0065
    7MOL   O151 2923   7.645   0.878   2.975  0.6591  0.8231 -0.4904
    7MOL   O152 2924   7.706   1.077   3.068 -0.1136  0.1049 -0.4803
    7MOL   C153 2925   7.361   0.928   3.066 -0.3963 -0.4385  0.2843
    7MOL   C154 2926   7.227   0.968   3.079  0.7666  0.3089 -0.3870
    7MOL   H155 2927   6.847   1.246   3.331 -1.7726  0.1814 -0.1587
    7MOL   H156 2928   6.763   1.404   3.300  0.7842  1.3528  1.4206
    7MOL   H157 2929   6.939   1.461   3.137 -0.9194  0.1582  1.8782
    7MOL   H158 2930   6.856   1.317   3.086 -1.7647  1.4397  0.1788
    7MOL   H159 2931   7.287   1.310   3.116 -0.3923 -0.0639 -0.4000
    7MOL   H160 2932   7.510   1.248   3.066  1.2175 -0.2243 -0.5049
    7MOL   H161 2933   7.381   0.823   3.053 -0.2814 -0.4383  0.4657
    7MOL   H162 2934   7.144   0.901   3.062 -0.2383  1.6583 -0.8836
    7MOL   O163 2935   7.845   1.036   3.027  0.0187 -0.0031 -0.2463
    7MOL   C164 2936   7.914   0.996   3.150 -0.4070  0.1869  0.0234
    7MOL   C165 2937   8.060   1.004   3.148  0.0976 -0.2237 -0.0475
    7MOL   O166 2938   8.111   0.896   3.222  0.1605  0.4105 -0.1392
    7MOL   C167 2939   8.108   0.903   3.358 -0.5406  0.0106  0.3726
    7MOL   O168 2940   8.041   0.972   3.434  0.1235 -0.3904 -0.2725
    7MOL   C169 2941   8.206   0.809   3.409 -0.2184  0.4799  0.1373
    7MOL   C170 2942   8.194   0.758   3.539  0.0406  0.3691 -0.5224
    7MOL   C171 2943   0.013   0.671   3.600 -0.0342  0.2424  0.4730
    7MOL   C172 2944   0.116   0.620   3.519  0.2229 -0.3501  0.3941
    7MOL   C173 2945   0.215   0.528   3.580 -0.0931  0.1481 -0.1632
    7MOL   O174 2946   0.254   0.525   3.694  0.0676  0.8242 -0.0197
    7MOL   O175 2947   0.233   0.428   3.497  0.0949  0.1255 -0.5254
    7MOL   C176 2948   0.128   0.662   3.388 -0.1156 -0.8376 -0.4635
    7MOL   C177 2949   0.042   0.767   3.335  0.1194 -0.0033 -0.2517
    7MOL   H178 2950   7.867   1.048   3.234 -0.0475  2.0473 -0.8867
    7MOL   H179 2951   7.875   0.896   3.167  0.8231 -0.2917  0.1108
    7MOL   H180 2952   8.097   1.101   3.179 -0.0783 -0.0883 -0.2599
    7MOL   H181 2953   8.100   0.987   3.048 -0.8272 -1.0092 -0.2899
    7MOL   H182 2954   8.118   0.806   3.600 -0.3446 -0.8002 -0.0636
    7MOL   H183 2955   8.273   0.648   3.704  3.2740 -0.0017  0.9580
    7MOL   H184 2956   0.215   0.634   3.332  3.0365  1.5228  3.0044
    7MOL   H185 2957   0.072   0.818   3.244 -2.3392  1.3814 -0.3196
    7MOL   O186 2958   0.323   0.317   3.547 -0.0418 -0.2160  0.1608
    7MOL   C187 2959   0.235   0.209   3.576 -0.6590  0.4212 -0.2256
    7MOL   C188 2960   0.221   0.197   3.727 -0.1299 -0.2890  0.2179
    7MOL   O189 2961   0.109   0.272   3.759 -0.5280 -0.5305 -0.5917
    7MOL   C190 2962   0.083   0.311   3.890  0.4857 -0.4407 -0.0730
    7MOL   O191 2963   0.166   0.300   3.983 -0.1584 -0.4817  0.1072
    7MOL   C192 2964   8.230   0.385   3.902  0.1208 -0.1933  0.4709
    7MOL   C193 2965   8.182   0.419   4.025 -0.1091 -0.1847 -0.7597
    7MOL   C194 2966   8.052   0.480   4.041 -0.5017 -0.4277  0.3567
    7MOL   C195 2967   7.971   0.500   3.928 -0.3969 -0.3250  0.3141
    7MOL   C196 2968   7.839   0.564   3.944  0.0884  0.2477  0.4739
    7MOL   O197 2969   7.795   0.595   4.048 -0.5807 -0.3064 -0.2432
    7MOL   O198 2970   7.769   0.563   3.831 -0.1260  0.0976 -0.1951
    7MOL   C199 2971   8.023   0.473   3.799  0.2694 -0.6742  0.5167
    7MOL   C200 2972   8.147   0.412   3.785  0.0428 -0.0736  0.4484
    7MOL   H201 2973   0.136   0.220   3.531 -1.0994  0.3363  0.7120
    7MOL   H202 2974   0.280   0.117   3.538 -0.0911  0.2176  0.9239
    7MOL   H203 2975   0.305   0.240   3.782 -0.4386 -1.9877  2.0594
    7MOL   H204 2976   0.202   0.094   3.757  1.1333 -0.4044  0.6479
    7MOL   H205 2977   8.251   0.397   4.105 -1.2306 -2.2916 -0.3347
    7MOL   H206 2978   8.017   0.499   4.141 -0.7497  0.0474  0.1824
    7MOL   H207 2979   7.963   0.484   3.709  3.2437  4.5800 -1.0467
    7MOL   H208 2980   8.185   0.378   3.690  1.1584 -0.1773  0.9219
    7MOL   O209 2981   7.648   0.648   3.835 -0.5517  0.8307 -0.5850
    7MOL   C210 2982   7.671   0.750   3.742 -0.2815  0.3901 -0.4500
    7MOL   C211 2983   7.535   0.825   3.731 -0.0182  0.2171  0.4471
    7MOL   O212 2984   7.508   0.912   3.840 -0.2371  0.0271 -0.1282
    7MOL   C213 2985   7.426   0.881   3.928 -0.5151 -0.0982  0.3963
    7MOL   O214 2986   7.375   0.769   3.937  0.3533 -0.1995  0.0541
    7MOL   C215 2987   7.417   0.985   4.036  0.5367  0.3443 -0.0788
    7MOL   C216 2988   7.393   0.943   4.171 -0.3527 -0.8241  0.5406
    7MOL   C217 2989   7.388   1.043   4.271 -0.6797 -0.5913 -0.1802
    7MOL   C218 2990   7.414   1.176   4.242  0.1025  0.1722 -0.0929
    7MOL   C219 2991   7.430   1.276   4.350  0.2240 -0.2121  0.1021
    7MOL   O220 2992   7.419   1.400   4.333 -0.2484 -0.0875 -0.4993
    7MOL   O221 2993   7.474   1.212   4.472  0.1491  0.0150  0.4955
    7MOL   C222 2994   7.425   1.219   4.108  0.3850  0.3564  0.1192
    7MOL   C223 2995   7.426   1.120   4.008 -0.1661 -0.5043  0.1891
    7MOL   H224 2996   7.752   0.818   3.766 -0.0618  0.5748 -1.6926
    7MOL   H225 2997   7.703   0.702   3.650  3.0911 -0.6856  1.2190
    7MOL   H226 2998   7.455   0.752   3.715  0.7704 -0.3352 -1.0416
    7MOL   H227 2999   7.532   0.884   3.640 -1.6601  0.3732  0.5856
    7MOL   H228 3000   7.394   0.841   4.205  2.1072 -1.1133 -0.2900
    7MOL   H229 3001   7.384   1.012   4.375 -0.9471  0.5301  0.1532
    7MOL   H230 3002   7.454   1.319   4.078  1.2503 -0.1864 -0.8865
    7MOL   H231 3003   7.439   1.153   3.906 -0.9329  1.4385  0.6843
    7MOL   O232 3004   7.535   1.312   4.567 -0.0250 -0.5074 -1.6521
    7MOL   C233 3005   7.432   1.377   4.637  0.8274 -0.3740  0.7155
    7MOL   C234 3006   7.327   1.280   4.698  0.0639 -0.4221  0.2016
    7MOL   O235 3007   7.335   1.258   4.838 -0.5472  0.2564 -0.2234
    7MOL   C236 3008   7.303   1.356   4.919 -0.1020 -0.2629  0.4295
    7MOL   O237 3009   7.279   1.475   4.895 -0.2631 -0.0905  0.1714
    7MOL   C238 3010   7.291   1.315   5.060  0.1249 -0.0091 -0.8803
    7MOL   C239 3011   7.353   1.191   5.097 -0.1878  0.0224 -1.3817
    7MOL   C240 3012   7.338   1.143   5.235  0.5707 -0.0937  0.0943
    7MOL   C241 3013   7.266   1.219   5.329  0.2921  0.3040 -0.0038
    7MOL   C242 3014   7.244   1.169   5.471  0.3233  0.2493  0.0648
    7MOL   O243 3015   7.245   1.053   5.502  0.4662 -0.1745 -0.3633
    7MOL   O244 3016   7.226   1.266   5.558  0.0484 -0.0895  0.1149
    7MOL   C245 3017   7.205   1.338   5.289 -0.5071  0.2614  0.3580
    7MOL   C246 3018   7.217   1.388   5.160  0.2351 -0.2061  0.0682
    7MOL   H247 3019   7.484   1.429   4.717 -2.2295  1.5986  1.4888
    7MOL   H248 3020   7.379   1.452   4.578  0.5026  0.1987  1.7184
    7MOL   H249 3021   7.333   1.181   4.653  1.9291 -0.7010  0.9951
    7MOL   H250 3022   7.232   1.327   4.673 -0.4949 -0.0164  2.9695
    7MOL   H251 3023   7.426   1.143   5.034 -1.8882 -3.1006 -1.0850
    7MOL   H252 3024   7.386   1.054   5.274 -0.9211 -0.1149  1.9548
    7MOL   H253 3025   7.155   1.401   5.361 -0.5368  0.0089  0.5581
    7MOL   H254 3026   7.178   1.485   5.134  1.9550 -0.2886 -3.1961
    7MOL   O255 3027   7.223   1.233   5.701  0.2830 -0.0143 -0.1356
    7MOL   C256 3028   7.344   1.275   5.763  0.0387 -0.8224  1.3689
    7MOL   C257 3029   7.437   1.153   5.783  0.2600 -0.3967  0.4320
    7MOL   O258 3030   7.518   1.132   5.667  0.1943 -0.1805 -0.6627
    7MOL   C259 3031   7.590   1.020   5.648  0.5863 -0.3941  0.4622
    7MOL   O260 3032   7.580   0.925   5.722  0.0244  0.0123  0.0235
    7MOL   C261 3033   7.694   1.027   5.547 -0.4574 -0.2654 -0.8469
    7MOL   C262 3034   7.673   1.095   5.428  0.8646  0.3273  0.0596
    7MOL   C263 3035   7.763   1.092   5.326 -1.4183  0.1272 -0.4315
    7MOL   C264 3036   7.890   1.025   5.346  0.3107 -0.6929  0.2888
    7MOL   C265 3037   8.006   1.033   5.248  0.2780  0.5204  0.2947
    7MOL   O266 3038   8.121   1.005   5.275 -0.2795 -0.4768  0.1393
    7MOL   O267 3039   7.969   1.066   5.123  0.1067  0.3443  0.1719
    7MOL   C268 3040   7.914   0.951   5.465 -0.2418 -0.7089 -0.5359
    7MOL   C269 3041   7.813   0.953   5.566  0.6254  0.4782 -0.1715
    7MOL   H270 3042   7.397   1.356   5.713  1.2975 -1.0454  2.3423
    7MOL   H271 3043   7.309   1.324   5.855  1.7187  0.9391  1.1038
    7MOL   H272 3044   7.378   1.063   5.799 -2.3434  1.0025 -1.1176
    7MOL   H273 3045   7.489   1.169   5.878 -0.0232  0.5434  0.4357
    7MOL   H274 3046   7.581   1.152   5.420  1.8634  1.8310 -1.1087
    7MOL   H275 3047   7.742   1.132   5.228 -0.6055  1.1678 -0.1933
    7MOL   H276 3048   8.009   0.901   5.476 -0.2437 -0.5435  0.2377
    7MOL   H277 3049   7.816   0.891   5.655 -0.2128  1.4956  0.5692
    7MOL   O278 3050   8.069   1.024   5.014 -0.2572 -0.2840  0.1980
    7MOL   C279 3051   8.128   1.145   4.961  0.1305  0.5140  0.0854
    7MOL   C280 3052   8.207   1.120   4.830  0.8533 -0.0348  0.0082
    7MOL   O281 3053   8.219   1.245   4.760  0.1666 -0.2702  0.0316
    7MOL   C282 3054   0.067   1.302   4.726  0.0458  0.1730 -0.2422
    7MOL   O283 3055   0.169   1.233   4.736 -0.0861  0.1019 -0.1205
    7MOL   C284 3056   0.062   1.438   4.665  0.6930 -0.0681  0.0770
    7MOL   C285 3057   8.212   1.513   4.659  0.1119  0.1927  0.2224
    7MOL   C286 3058   8.208   1.638   4.584 -0.5298 -0.4313  0.6568
    7MOL   C287 3059   0.054   1.688   4.526  0.1324  0.3715 -0.0131
    7MOL   C288 3060   0.046   1.823   4.467  0.5507 -0.1579 -0.0907
    7MOL   O289 3061   8.219   1.890   4.456 -0.0645  0.1777  0.0703
    7MOL   O290 3062   0.169   1.862   4.422 -0.5123 -0.1891 -0.1132
    7MOL   C291 3063   0.168   1.610   4.526  0.0855  0.2580 -0.5804
    7MOL   C292 3064   0.177   1.489   4.600 -0.0863 -0.8493 -0.6053
    7MOL   H293 3065   8.048   1.213   4.932 -0.8930 -0.7355 -0.1104
    7MOL   H294 3066   8.195   1.187   5.036  0.2625  1.4140 -0.5348
    7MOL   H295 3067   8.145   1.057   4.767 -0.3580  1.4696 -0.3229
    7MOL   H296 3068   0.023   1.062   4.844  0.0767 -0.8673  1.8199
    7MOL   H297 3069   8.120   1.492   4.710  0.5463  3.0384  2.2854
    7MOL   H298 3070   8.121   1.701   4.573 -0.6853 -0.7898 -0.1820
    7MOL   H299 3071   0.259   1.645   4.479 -1.0058  1.0672 -2.1431
    7MOL   H300 3072   0.270   1.436   4.609 -0.5726 -1.7062 -0.5799
    7MOL   O301 3073   0.171   2.005   4.368 -0.2606  0.3687  0.1176
    7MOL   C302 3074   0.218   2.088   4.481  0.2465 -0.1537 -0.3471
    7MOL   C303 3075   0.365   2.085   4.513 -0.1639  0.8463 -0.2834
    7MOL   O304 3076   0.391   2.138   4.647 -0.1503  0.2316 -0.2316
    7MOL   C305 3077   0.347   2.263   4.688  0.4485  0.6249 -0.7258
    7MOL   O306 3078   0.269   2.336   4.628 -0.4301  0.2618  0.2479
    7MOL   C307 3079   0.393   2.292   4.829 -0.4156  0.9453  0.7523
    7MOL   C308 3080   0.365   2.412   4.885  0.1767  0.3316 -0.1468
    7MOL   C309 3081   0.413   2.447   5.019 -0.4682  0.0161 -1.0849
    7MOL   C310 3082   0.487   2.357   5.092 -0.1961 -0.7900 -0.0741
    7MOL   C311 3083   0.548   2.414   5.227 -0.1464 -0.6762  0.5636
    7MOL   O312 3084   0.576   2.533   5.248  0.0776 -0.0032  0.8615
    7MOL   O313 3085   0.574   2.324   5.318 -0.0362 -0.7567  0.4195
    7MOL   C314 3086   0.502   2.227   5.041 -0.2032 -0.1766  1.2048
    7MOL   C315 3087   0.451   2.196   4.914 -0.3601 -0.3837  0.1377
    7MOL   H316 3088   0.186   2.190   4.456 -0.0873 -0.3723 -0.8101
    7MOL   H317 3089   0.162   2.056   4.569 -0.2018  0.6398 -0.3370
    7MOL   H318 3090   0.418   2.150   4.444  0.2671 -1.8375 -2.5845
    7MOL   H319 3091   0.399   1.982   4.505  1.1727  1.3405 -1.1736
    7MOL   H320 3092   0.302   2.482   4.832 -0.1239  0.6986  0.6905
    7MOL   H321 3093   0.402   2.546   5.062  2.2632  0.1048 -0.5035
    7MOL   H322 3094   0.556   2.154   5.100  0.3873 -2.6054 -2.2206
    7MOL   H323 3095   0.481   2.097   4.881  1.9444 -0.1325  1.3651
    7MOL   O324 3096   0.694   2.360   5.407 -0.1643  0.1829 -0.6000
    7MOL   C325 3097   0.645   2.408   5.530  0.2797  0.3561 -0.4998
    7MOL   C326 3098   0.765   2.462   5.611 -0.3027  0.6731 -0.3211
    7MOL   O327 3099   0.824   2.570   5.549 -0.4064  0.2922  0.0649
    7MOL   C328 3100   0.822   2.691   5.602 -0.9640 -0.4438  0.3914
    7MOL   O329 3101   0.790   2.714   5.719 -0.3706  0.1056 -0.1346
    7MOL   C330 3102   0.855   2.796   5.501 -0.4514 -0.4576  0.4308
    7MOL   C331 3103   0.796   2.928   5.501  0.1323 -0.4818  0.0335
    7MOL   C332 3104   0.829   3.020   5.402  0.0375  0.8787  0.4081
    7MOL   C333 3105   0.923   2.986   5.299 -0.0903 -0.0043 -0.3686
    7MOL   C334 3106   0.972   3.097   5.210 -0.2022  0.2091 -0.1464
    7MOL   O335 3107   0.899   3.187   5.174  0.3155  0.1027  0.2982
    7MOL   O336 3108   1.103   3.081   5.164  0.3255  0.5136 -0.0267
    7MOL   C337 3109   0.977   2.858   5.295  0.1363 -0.6744 -0.5492
    7MOL   C338 3110   0.948   2.766   5.398 -0.1638 -0.1091 -0.7151
    7MOL   H339 3111   0.561   2.476   5.520 -1.5745 -1.7463  0.3956
    7MOL   H340 3112   0.601   2.321   5.579  1.0796  0.0657 -0.2909
    7MOL   H341 3113   0.834   2.378   5.619 -1.0089 -0.0174 -1.3709
    7MOL   H342 3114   0.728   2.484   5.712  1.7266  1.8773  0.1844
    7MOL   H343 3115   0.726   2.951   5.580 -0.4362 -0.7999 -0.3670
    7MOL   H344 3116   0.800   3.124   5.412 -0.5765  0.7554 -0.0800
    7MOL   H345 3117   1.048   2.829   5.219  0.8173 -1.4908  0.3846
    7MOL   H346 3118   0.990   2.668   5.410 -1.0092 -0.7261 -2.6401
    7MOL   O347 3119   1.148   3.173   5.055 -0.2679  0.4435  0.6210
    7MOL   C348 3120   1.115   3.114   4.930 -0.0184  0.4458 -0.0709
    7MOL   C349 3121   1.222   3.158   4.832 -0.9862 -0.2061 -0.3898
    7MOL   O350 3122   1.195   3.134   4.695 -0.3181 -0.2809 -0.4149
    7MOL   C351 3123   1.232   3.018   4.647  0.2733  0.0830 -0.0936
    7MOL   O352 3124   1.296   2.930   4.708 -0.0812 -0.7352  0.2587
    7MOL   C353 3125   1.181   3.006   4.507  0.3074  0.1495 -0.1835
    7MOL   C354 3126   1.214   2.886   4.439  0.0599 -0.1075  0.1579
    7MOL   C355 3127   1.181   2.873   4.303  0.3891 -0.0265  0.3931
    7MOL   C356 3128   1.105   2.974   4.238 -0.2129  0.1235 -0.0408
    7MOL   C357 3129   1.045   2.942   4.103  0.1416 -0.2359  0.1622
    7MOL   O358 3130   0.981   3.024   4.044 -0.0302  0.2611  0.4189
    7MOL   O359 3131   1.074   2.822   4.057  0.6939  0.3491 -0.1591
    7MOL   C360 3132   1.057   3.083   4.314 -0.2467  0.3040 -0.4101
    7MOL   C361 3133   1.104   3.111   4.441  0.0946 -0.1276  0.4366
    7MOL   H362 3134   1.110   3.005   4.929 -0.4812  0.4672 -1.7114
    7MOL   H363 3135   1.015   3.149   4.903 -0.2562 -0.1367  0.0339
    7MOL   H364 3136   1.320   3.116   4.853 -0.0644  1.7522 -0.7009
    7MOL   H365 3137   1.233   3.266   4.844 -1.1784 -0.5208  3.1600
    7MOL   H366 3138   1.262   2.799   4.480  0.2655  0.6664  1.5886
    7MOL   H367 3139   1.194   2.780   4.248  1.1422 -0.6788  1.6512
    7MOL   H368 3140   0.979   3.150   4.279 -0.3157  1.4079  1.7707
    7MOL   H369 3141   1.066   3.195   4.497 -3.9801 -1.2924 -0.4394
    7MOL   O370 3142   1.018   2.788   3.918 -0.5858  0.2974  0.2185
    7MOL   C371 3143   1.107   2.838   3.827 -0.5889  0.0028 -0.2333
    7MOL   C372 3144   1.104   2.742   3.707 -0.0776  0.7645  0.3683
    7MOL   O373 3145   0.979   2.761   3.634  0.4342  0.8774  0.3279
    7MOL   C374 3146   0.970   2.855   3.536 -0.2870  0.2123  0.0182
    7MOL   O375 3147   1.045   2.954   3.528  0.5928  0.3700  0.1155
    7MOL   C376 3148   0.857   2.833   3.442 -0.2396  0.1429 -0.4159
    7MOL   C377 3149   0.766   2.723   3.455  0.0230 -0.4357  0.0279
    7MOL   C378 3150   0.657   2.707   3.360  0.5436  0.3620 -0.3335
    7MOL   C379 3151   0.644   2.797   3.255  0.6435  0.6511 -0.0940
    7MOL   C380 3152   0.540   2.768   3.151  0.2079 -0.2719  0.6075
    7MOL   O381 3153   0.437   2.698   3.173 -0.3185  0.5835 -0.0436
    7MOL   O382 3154   0.568   2.819   3.028  0.0056 -0.8536  0.1379
    7MOL   C383 3155   0.732   2.905   3.246 -0.6205 -0.0404  0.0607
    7MOL   C384 3156   0.835   2.923   3.335 -0.2958 -0.4843 -0.4240
    7MOL   H385 3157   1.097   2.945   3.810 -0.6152 -0.0044 -0.2632
    7MOL   H386 3158   1.209   2.828   3.864 -0.9464 -0.8154  0.5595
    7MOL   H387 3159   1.115   2.637   3.734  1.0598  0.2452 -1.9571
    7MOL   H388 3160   1.195   2.760   3.650 -0.3042 -1.7982 -0.8442
    7MOL   H389 3161   0.765   2.654   3.538  0.6297 -0.5255 -0.0377
    7MOL   H390 3162   0.594   2.620   3.368  0.3432  0.5505  0.1391
    7MOL   H391 3163   0.736   2.978   3.167 -0.6591 -1.7128 -1.5177
    7MOL   H392 3164   0.891   3.015   3.333 -1.5016  0.2370 -1.6161
    7MOL   O393 3165   0.454   2.787   2.931  0.3669  0.1410  0.5064
    7MOL   C394 3166   0.480   2.659   2.868 -0.5184  0.0024  0.3235
    7MOL   C395 3167   0.366   2.632   2.777  0.0804  0.8307 -0.7871
    7MOL   O396 3168   0.244   2.654   2.849 -0.0728  0.4510  0.8228
    7MOL   C397 3169   0.206   2.574   2.952 -0.4475  0.4778  0.4751
    7MOL   O398 3170   0.252   2.461   2.975  0.0242  0.3285 -0.1459
    7MOL   C399 3171   0.091   2.633   3.028 -0.1880 -0.4082  0.1858
    7MOL   C400 3172   0.079   2.600   3.165  0.2208  0.3644  1.1233
    7MOL   C401 3173   8.255   2.671   3.247 -0.1257  0.5243  0.5379
    7MOL   C402 3174   8.175   2.777   3.195 -0.0723 -0.0450  0.2621
    7MOL   C403 3175   8.091   2.863   3.275 -0.1087  0.6045  0.0292
    7MOL   O404 3176   8.015   2.953   3.237  0.2281 -0.4731  0.3699
    7MOL   O405 3177   8.077   2.817   3.396 -0.4135  0.3406  0.0588
    7MOL   C406 3178   8.186   2.801   3.059  0.6962  0.4029 -0.0069
    7MOL   C407 3179   8.275   2.732   2.972  0.7951 -0.5121 -0.4257
    7MOL   H408 3180   0.577   2.664   2.818  0.0372 -0.2912  1.3516
    7MOL   H409 3181   0.497   2.578   2.939 -0.9556  1.0949  1.6985
    7MOL   H410 3182   0.374   2.531   2.737 -0.3613 -0.2868  1.8374
    7MOL   H411 3183   0.367   2.700   2.692 -1.3018  2.1660  0.2187
    7MOL   H412 3184   0.151   2.538   3.216 -1.5880 -0.6404  2.5051
    7MOL   H413 3185   8.257   2.655   3.354 -0.0742  0.0117  0.4615
    7MOL   H414 3186   8.127   2.882   3.017  0.5476 -0.1983 -0.9964
    7MOL   H415 3187   0.003   2.757   2.867 -3.2528 -1.9091 -1.0108
    7MOL   O416 3188   7.990   2.893   3.484  0.1960  0.6348  0.7729
    7MOL   C417 3189   8.063   2.996   3.554 -0.2620  0.0893  0.2678
    7MOL   C418 3190   8.180   2.932   3.633  0.0757 -1.0565 -0.2087
    7MOL   O419 3191   0.010   3.031   3.650 -0.4751  0.2267  0.1285
    7MOL   C420 3192   0.034   3.085   3.776  0.1260 -0.1492 -0.2269
    7MOL   O421 3193   8.240   3.056   3.876  0.5823  0.4348  0.0127
    7MOL   C422 3194   0.151   3.169   3.784  0.1627 -0.9397 -0.3566
    7MOL   C423 3195   0.184   3.226   3.911 -0.6187  0.9260  0.0916
    7MOL   C424 3196   0.289   3.313   3.919  0.4638  0.0662 -0.0738
    7MOL   C425 3197   0.367   3.349   3.806 -0.2920  0.3192 -0.4891
    7MOL   C426 3198   0.473   3.458   3.810  0.3234  0.0001 -0.4667
    7MOL   O427 3199   0.528   3.515   3.711 -0.2056  0.0720 -0.0945
    7MOL   O428 3200   0.484   3.497   3.939  0.0630 -0.3717  0.3914
    7MOL   C429 3201   0.339   3.292   3.679 -0.2539 -0.5100 -0.1959
    7MOL   C430 3202   0.228   3.200   3.672  0.1430  0.7919  0.2335
    7MOL   H431 3203   8.095   3.063   3.475 -0.0239 -0.0014  0.2870
    7MOL   H432 3204   8.003   3.051   3.627 -1.6941 -0.1832 -0.6774
    7MOL   H433 3205   8.212   2.835   3.596  3.8749 -1.4137  3.6777
    7MOL   H434 3206   8.150   2.908   3.735 -0.6753  0.9877  0.0818
    7MOL   H435 3207   0.121   3.213   3.998 -0.4797 -0.6129 -0.0202
    7MOL   H436 3208   0.314   3.353   4.016  0.5053  0.4071 -0.2265
    7MOL   H437 3209   0.388   3.329   3.591  1.9643 -0.2510  1.1025
    7MOL   H438 3210   0.190   3.164   3.578 -0.1486  0.2982  0.5365
    7MOL   O439 3211   0.593   3.600   3.962 -1.0477  0.7655 -0.0955
    7MOL   C440 3212   0.712   3.532   4.001  0.3528  0.3807  0.2886
    7MOL   C441 3213   0.692   3.450   4.124 -0.3855  0.2323 -0.0149
    7MOL   O442 3214   0.679   3.531   4.236 -0.1928  0.4653  0.2689
    7MOL   C443 3215   0.562   3.582   4.279 -0.3000 -0.2393  0.8441
    7MOL   O444 3216   0.464   3.575   4.210 -0.1741 -0.2321  0.0060
    7MOL   C445 3217   0.570   3.641   4.415  0.0845  0.2141 -0.2070
    7MOL   C446 3218   0.463   3.728   4.450 -0.5661 -0.0769 -0.0130
    7MOL   C447 3219   0.457   3.795   4.572 -0.1769 -0.6681  0.8839
    7MOL   C448 3220   0.565   3.774   4.657 -0.0779 -0.5947  0.3153
    7MOL   C449 3221   0.575   3.852   4.789 -0.5862  0.5210  0.3198
    7MOL   O450 3222   0.491   3.941   4.815  0.9767 -0.7634 -0.4909
    7MOL   O451 3223   0.674   3.818   4.870 -0.6401  0.0657  0.4970
    7MOL   C452 3224   0.665   3.683   4.625  0.2299 -1.2682  1.0650
    7MOL   C453 3225   0.671   3.609   4.509  0.2374 -0.2043  0.6069
    7MOL   H454 3226   0.756   3.478   3.918  1.0030  0.4230  0.6032
    7MOL   H455 3227   0.793   3.603   4.017 -0.8170  1.4706  1.4927
    7MOL   H456 3228   0.777   3.382   4.134  0.6131  1.6124  1.0686
    7MOL   H457 3229   0.608   3.381   4.120 -1.2450  1.3887 -2.4059
    7MOL   H458 3230   0.386   3.754   4.379  0.8327  0.1642 -1.4949
    7MOL   H459 3231   0.378   3.862   4.602 -1.1335 -1.6446  0.6114
    7MOL   H460 3232   0.750   3.665   4.689  0.0351 -2.1882  1.0645
    7MOL   H461 3233   0.757   3.552   4.476  1.3215  0.7104  1.7935
    7MOL   H462 3234   0.696   3.893   4.923  0.7819 -0.0635  0.1037
    8MOL     O1 3235   2.705   6.718   1.013  0.2625 -0.9375 -0.6526
    8MOL     C2 3236   2.731   6.854   1.048  0.3046 -0.3880 -0.0444
    8MOL     C3 3237   2.867   6.862   1.114 -0.3655  0.6645  0.7701
    8MOL     O4 3238   2.883   6.982   1.186  0.0296  0.5754 -0.3246
    8MOL     C5 3239   2.997   7.043   1.170 -0.2648  0.0745 -0.3210
    8MOL     O6 3240   3.095   7.003   1.114 -0.4185 -0.7508  0.9021
    8MOL     C7 3241   2.992   7.178   1.233 -0.4720 -0.8003  0.2592
    8MOL     C8 3242   3.114   7.242   1.279 -0.2437  0.8123  0.5672
    8MOL     C9 3243   3.111   7.354   1.355 -0.0332  0.5630 -0.9554
    8MOL    C10 3244   2.990   7.419   1.396 -0.3260  0.2040 -0.3202
    8MOL    C11 3245   2.997   7.529   1.494  0.4752  0.0083 -0.2928
    8MOL    O12 3246   3.101   7.584   1.523  0.9172  0.5791  0.5954
    8MOL    O13 3247   2.879   7.563   1.558 -0.1379  0.3912 -0.7226
    8MOL    C14 3248   2.869   7.365   1.343 -0.5470 -0.0294 -0.2466
    8MOL    C15 3249   2.870   7.245   1.258 -0.1443 -0.1403  0.4283
    8MOL    H16 3250   2.749   6.910   0.956  2.0862 -0.2680  0.3429
    8MOL    H17 3251   2.650   6.905   1.101  1.7530  2.0852 -0.1421
    8MOL    H18 3252   2.946   6.830   1.046 -0.3857  1.0728  0.5531
    8MOL    H19 3253   2.857   6.784   1.190  2.1045 -1.0063 -0.5683
    8MOL    H20 3254   3.203   7.192   1.245 -0.4197  0.5227  0.5304
    8MOL    H21 3255   3.201   7.402   1.393 -1.1603  0.3590  2.1645
    8MOL    H22 3256   2.777   7.402   1.384 -0.7942 -0.1044 -0.7333
    8MOL    H23 3257   2.782   7.187   1.232 -0.6016  0.4134  0.7306
    8MOL    H24 3258   2.616   6.710   0.984 -1.3653  0.5573  3.4941
    8MOL    O25 3259   2.891   7.652   1.680  0.4993 -0.1574 -0.0982
    8MOL    C26 3260   2.868   7.785   1.643 -0.8542 -0.2850 -0.0803
    8MOL    C27 3261   3.009   7.837   1.630  0.6183  0.0802  0.6112
    8MOL    O28 3262   3.002   7.983   1.653 -0.3267 -0.2767 -0.0937
    8MOL    C29 3263   3.036   8.072   1.565 -0.0927 -0.9167  0.1953
    8MOL    O30 3264   3.085   8.044   1.454  0.1238 -0.1703  0.2891
    8MOL    C31 3265   3.018   8.209   1.617 -0.0025 -0.5868 -0.5811
    8MOL    C32 3266   2.971   8.227   1.752  0.4877  0.2119 -0.2740
    8MOL    C33 3267   2.953   0.087   1.793 -0.0113  0.5647 -0.1826
    8MOL    C34 3268   2.966   0.201   1.707 -0.1353  0.0958 -0.2350
    8MOL    C35 3269   2.941   0.343   1.747  0.2626 -0.2583 -0.8124
    8MOL    O36 3270   2.944   0.427   1.657 -0.1784 -0.3729  0.0526
    8MOL    O37 3271   2.924   0.367   1.881  0.2069 -0.5701 -0.5028
    8MOL    C38 3272   3.004   0.173   1.569 -0.3202  0.2428 -0.2893
    8MOL    C39 3273   3.030   0.046   1.523 -0.4669 -0.3565 -0.1032
    8MOL    H40 3274   2.808   7.805   1.555 -1.8117 -1.0559  0.3885
    8MOL    H41 3275   2.820   7.828   1.731  1.3154  0.4715  0.7654
    8MOL    H42 3276   3.060   7.814   1.536 -2.4935 -1.7070 -0.6857
    8MOL    H43 3277   3.068   7.796   1.712 -1.8522  0.1650  2.4591
    8MOL    H44 3278   2.965   8.148   1.826 -2.3823 -0.2186 -0.9166
    8MOL    H45 3279   2.927   0.108   1.896 -0.5461  2.3207 -0.6530
    8MOL    H46 3280   3.014   0.251   1.495 -2.3632  0.2313 -0.5990
    8MOL    H47 3281   3.052   0.035   1.418  2.9448  3.6092  0.0953
    8MOL    O48 3282   2.927   0.508   1.921 -0.5569  0.5719  0.0631
    8MOL    C49 3283   2.810   0.529   1.997 -0.6743  0.0911  0.1036
    8MOL    C50 3284   2.797   0.684   2.021  0.6663  0.5619 -0.1788
    8MOL    O51 3285   2.893   0.730   2.117  0.6785  0.2218  0.0883
    8MOL    C52 3286   3.006   0.789   2.078  0.1796  0.1979 -0.1480
    8MOL    O53 3287   3.034   0.819   1.961  0.2990  0.1494 -0.0405
    8MOL    C54 3288   3.093   0.827   2.192  0.2284  0.1440 -0.7045
    8MOL    C55 3289   3.065   0.811   2.329  0.0065 -1.0860 -0.3788
    8MOL    C56 3290   3.157   0.849   2.430  0.5593 -0.6307 -0.0069
    8MOL    C57 3291   3.280   0.902   2.395 -0.4268 -0.3211 -1.0987
    8MOL    C58 3292   3.367   0.942   2.507  0.1442 -0.7476  0.0802
    8MOL    O59 3293   3.309   0.968   2.613 -0.3355 -0.0545  0.3537
    8MOL    O60 3294   3.496   0.940   2.488 -0.0535 -0.0891 -0.3524
    8MOL    C61 3295   3.314   0.919   2.261  0.0262 -0.4037 -0.6201
    8MOL    C62 3296   3.227   0.878   2.162  0.5712  0.0393 -0.2797
    8MOL    H63 3297   2.735   0.497   1.924 -1.7361  1.4381  0.5725
    8MOL    H64 3298   2.827   0.463   2.082  2.1605 -1.2205 -1.4137
    8MOL    H65 3299   2.706   0.721   2.068 -0.7978 -0.6708 -1.9665
    8MOL    H66 3300   2.809   0.734   1.925 -1.1134 -0.8986 -1.1984
    8MOL    H67 3301   2.971   0.770   2.364 -1.5766  3.2029  0.7036
    8MOL    H68 3302   3.127   0.843   2.534 -2.3828 -2.9365 -0.9417
    8MOL    H69 3303   3.413   0.957   2.243 -0.5653  0.8308 -1.3043
    8MOL    H70 3304   3.254   0.890   2.058  0.4380  0.5813 -0.2542
    8MOL    O71 3305   3.575   0.952   2.621 -0.4781  0.5077 -0.6547
    8MOL    C72 3306   3.629   1.078   2.633 -0.3179  0.1984 -0.0023
    8MOL    C73 3307   3.750   1.067   2.730 -0.1690 -0.0124  0.2056
    8MOL    O74 3308   3.731   1.167   2.831 -0.1009  0.0523  0.5624
    8MOL    C75 3309   3.841   1.219   2.896 -0.0879  0.4296 -0.3515
    8MOL    O76 3310   3.964   1.200   2.879  0.2228 -0.5340  0.8794
    8MOL    C77 3311   3.802   1.314   3.000 -0.2666  0.8147 -0.8416
    8MOL    C78 3312   3.677   1.371   3.001  0.1783 -0.3941  0.0444
    8MOL    C79 3313   3.638   1.460   3.099 -1.2500 -0.0101 -0.4876
    8MOL    C80 3314   3.721   1.484   3.206 -0.8911 -1.0386  0.1409
    8MOL    C81 3315   3.668   1.576   3.307 -0.4200  0.9136 -0.4273
    8MOL    O82 3316   3.549   1.599   3.324 -0.1504  0.4598 -0.4560
    8MOL    O83 3317   3.763   1.631   3.381 -0.0974 -0.1853 -0.1187
    8MOL    C84 3318   3.847   1.422   3.215  0.2289  0.1016 -0.2399
    8MOL    C85 3319   3.891   1.337   3.115  0.4598 -0.2659  0.1084
    8MOL    H86 3320   3.677   1.108   2.540  0.0785  2.7828  0.9876
    8MOL    H87 3321   3.555   1.150   2.670 -2.2142 -1.3469 -0.7063
    8MOL    H88 3322   3.848   1.070   2.683 -0.8271 -1.6725 -1.3438
    8MOL    H89 3323   3.739   0.966   2.769  2.0608 -0.3427  0.0034
    8MOL    H90 3324   3.598   1.346   2.931 -0.1967  0.9873 -0.0494
    8MOL    H91 3325   3.541   1.508   3.103 -0.6175  1.4101 -1.6567
    8MOL    H92 3326   3.906   1.445   3.302  0.9087 -0.3764 -0.5661
    8MOL    H93 3327   3.989   1.291   3.126  1.2848  1.4123 -0.0375
    8MOL    O94 3328   3.713   1.704   3.497  0.8302 -0.5905 -0.1296
    8MOL    C95 3329   3.701   1.844   3.473  0.3365  0.6670 -0.0351
    8MOL    C96 3330   3.652   1.909   3.605 -1.2245 -0.6026 -0.2107
    8MOL    O97 3331   3.538   1.851   3.645  0.6276 -0.3348  0.0980
    8MOL    C98 3332   3.419   1.893   3.598  0.1881  0.9290  0.2495
    8MOL    O99 3333   3.398   1.987   3.521 -0.2323 -0.1811 -0.5780
    8MOL   C100 3334   3.305   1.819   3.658 -0.0763  0.5200 -0.1531
    8MOL   C101 3335   3.322   1.694   3.721 -0.5626 -0.1896 -0.4489
    8MOL   C102 3336   3.218   1.614   3.760  0.6080 -0.0474  0.0321
    8MOL   C103 3337   3.089   1.664   3.754  0.2778  0.3401 -0.3747
    8MOL   C104 3338   2.972   1.577   3.784  0.3100 -0.1463  0.0962
    8MOL   O105 3339   2.861   1.622   3.815 -0.3056  0.5295 -0.1013
    8MOL   O106 3340   3.003   1.443   3.785 -0.1756 -0.0836  0.6468
    8MOL   C107 3341   3.065   1.797   3.705  0.3369  0.5312  0.1143
    8MOL   C108 3342   3.170   1.870   3.658  0.3693 -0.0380 -0.1450
    8MOL   H109 3343   3.793   1.896   3.445  0.6925 -0.6277 -1.2969
    8MOL   H110 3344   3.631   1.871   3.394 -2.5091 -3.0240  1.0609
    8MOL   H111 3345   3.629   2.014   3.590  1.6919  0.4739  2.3938
    8MOL   H112 3346   3.725   1.903   3.686 -0.9289  0.0824 -0.4269
    8MOL   H113 3347   3.424   1.661   3.726 -0.0649  1.3700 -0.1425
    8MOL   H114 3348   3.238   1.513   3.795  0.0716  0.2471  1.2131
    8MOL   H115 3349   2.964   1.833   3.712 -0.7304 -2.3617  0.3999
    8MOL   H116 3350   3.145   1.964   3.611  0.3707 -0.2230 -0.5235
    8MOL   O117 3351   2.887   1.342   3.798  0.4970 -0.4899  0.2985
    8MOL   C118 3352   2.825   1.333   3.670 -0.5678  0.5242  0.1320
    8MOL   C119 3353   2.705   1.249   3.680 -0.2131  0.3397  0.3375
    8MOL   O120 3354   2.602   1.319   3.742  0.3721 -0.2149 -0.4413
    8MOL   C121 3355   2.537   1.281   3.847  0.4372  1.0029  0.0940
    8MOL   O122 3356   2.540   1.160   3.881 -0.0036 -0.0248 -0.1307
    8MOL   C123 3357   2.459   1.389   3.916 -0.2865 -1.3865  0.3734
    8MOL   C124 3358   2.496   1.521   3.897 -0.8197  0.5786 -0.1365
    8MOL   C125 3359   2.426   1.623   3.962  0.2255 -0.5840  0.1490
    8MOL   C126 3360   2.317   1.599   4.052 -0.3703 -0.2560 -0.1831
    8MOL   C127 3361   2.262   1.707   4.131 -0.1168 -0.7109  0.6568
    8MOL   O128 3362   2.263   1.827   4.093 -0.0654 -0.0396 -0.6023
    8MOL   O129 3363   2.202   1.672   4.240  0.2110  0.3803  0.6149
    8MOL   C130 3364   2.288   1.464   4.073 -0.2882  0.1834 -0.3618
    8MOL   C131 3365   2.358   1.356   4.006 -0.0362 -0.0310  0.1080
    8MOL   H132 3366   2.799   1.429   3.625  0.5302  0.0304 -1.6026
    8MOL   H133 3367   2.902   1.293   3.604  1.1251  3.6945  0.0779
    8MOL   H134 3368   2.734   1.157   3.732 -0.6433 -0.4883 -0.8534
    8MOL   H135 3369   2.669   1.219   3.581  0.6684 -2.3665  0.7830
    8MOL   H136 3370   2.578   1.540   3.829 -2.1324 -0.2932 -1.9890
    8MOL   H137 3371   2.453   1.727   3.946  0.3800 -0.6219  0.1590
    8MOL   H138 3372   2.203   1.441   4.137  0.0815  0.7577  0.3417
    8MOL   H139 3373   2.323   1.254   4.014  0.1926 -0.1056  0.1585
    8MOL   O140 3374   2.120   1.785   4.303 -0.2747  0.1478  0.2582
    8MOL   C141 3375   1.989   1.734   4.297 -0.0986 -0.3357 -0.7996
    8MOL   C142 3376   1.890   1.841   4.323  0.3234  0.3653 -0.2177
    8MOL   O143 3377   1.890   1.928   4.207  0.2369  0.1741  0.7342
    8MOL   C144 3378   1.808   1.911   4.101  0.5325  0.3930 -0.3021
    8MOL   O145 3379   1.743   1.813   4.093 -0.0088 -0.0454  0.2219
    8MOL   C146 3380   1.819   2.016   3.997 -0.5607 -0.4022  0.0370
    8MOL   C147 3381   1.908   2.119   4.012  0.2059 -0.1658 -0.3992
    8MOL   C148 3382   1.920   2.216   3.903  0.5190 -0.3671 -1.0275
    8MOL   C149 3383   1.833   2.214   3.792  0.2372  0.2535  0.0221
    8MOL   C150 3384   1.838   2.309   3.684 -0.0865  0.9238  0.3238
    8MOL   O151 3385   1.776   2.302   3.576 -0.2376 -0.0460  0.0180
    8MOL   O152 3386   1.913   2.411   3.712  0.1234  0.0054 -0.0356
    8MOL   C153 3387   1.749   2.096   3.782  0.6739 -0.5555  0.4570
    8MOL   C154 3388   1.745   2.000   3.886  0.5827  0.7169 -0.2384
    8MOL   H155 3389   1.955   1.679   4.209 -2.1170 -0.5206  0.0755
    8MOL   H156 3390   1.985   1.659   4.376  0.9524  0.3057 -0.1151
    8MOL   H157 3391   1.921   1.902   4.408  1.9300 -0.8212  0.0844
    8MOL   H158 3392   1.793   1.800   4.351  0.2047  0.9076  0.1523
    8MOL   H159 3393   1.974   2.132   4.096  1.0689 -1.3360 -0.8891
    8MOL   H160 3394   1.985   2.301   3.909 -1.1735  0.8093  1.2404
    8MOL   H161 3395   1.685   2.074   3.699 -2.6646  1.2549  2.4169
    8MOL   H162 3396   1.672   1.920   3.881 -0.1462  1.4038 -0.6562
    8MOL   O163 3397   1.870   2.531   3.640  0.6154 -0.2451 -0.2468
    8MOL   C164 3398   1.980   2.574   3.561 -0.3978  1.1294 -0.3316
    8MOL   C165 3399   2.119   2.585   3.621 -0.0371 -0.0988  0.8984
    8MOL   O166 3400   2.110   2.638   3.754  0.3375 -0.1167  0.5448
    8MOL   C167 3401   2.091   2.770   3.777  0.2037  0.1670 -0.9853
    8MOL   O168 3402   2.074   2.855   3.694  0.1420  0.0384 -0.3012
    8MOL   C169 3403   2.103   2.800   3.930 -0.1650 -0.5843  0.8091
    8MOL   C170 3404   2.077   2.927   3.984 -0.3560 -0.2120  0.3201
    8MOL   C171 3405   2.063   2.933   4.124  0.0115  0.4453 -0.2191
    8MOL   C172 3406   2.104   2.826   4.215 -0.3397  0.6731  0.1268
    8MOL   C173 3407   2.109   2.841   4.363  0.0872  0.0606 -1.4122
    8MOL   O174 3408   2.143   2.754   4.442  0.0341  0.8515 -0.4672
    8MOL   O175 3409   2.081   2.969   4.406 -0.7743 -0.0272  0.1524
    8MOL   C176 3410   2.146   2.707   4.157  0.0197 -0.1428  0.2925
    8MOL   C177 3411   2.138   2.693   4.013  0.3719  0.1099 -0.1018
    8MOL   H178 3412   1.986   2.521   3.466  0.0525 -1.7821  1.2264
    8MOL   H179 3413   1.954   2.676   3.537  2.4103  1.7273 -0.9577
    8MOL   H180 3414   2.170   2.652   3.551 -1.3679 -1.0294 -1.0182
    8MOL   H181 3415   2.170   2.489   3.614 -1.3304 -0.6905 -0.9534
    8MOL   H182 3416   2.054   3.015   3.927  0.1812 -0.2428  0.0499
    8MOL   H183 3417   2.033   3.024   4.175  0.9472 -0.3667  1.8434
    8MOL   H184 3418   2.162   2.624   4.224  0.8300 -0.0406  0.2251
    8MOL   H185 3419   2.144   2.592   3.976  0.6505 -0.4847  1.5349
    8MOL   O186 3420   2.092   2.995   4.557  0.1175  0.3305 -0.0235
    8MOL   C187 3421   1.966   3.012   4.619 -1.0074  0.2325 -0.1620
    8MOL   C188 3422   1.896   2.874   4.647 -0.0121 -0.4812 -0.3786
    8MOL   O189 3423   1.814   2.829   4.541 -0.0544 -0.2382 -0.3590
    8MOL   C190 3424   1.729   2.724   4.553  0.0945  0.4119 -0.0759
    8MOL   O191 3425   1.717   2.658   4.655 -0.4746  0.1111  0.2237
    8MOL   C192 3426   1.647   2.719   4.432 -0.3476  0.0732  0.7428
    8MOL   C193 3427   1.528   2.647   4.432  0.5174 -0.5193  0.4899
    8MOL   C194 3428   1.449   2.638   4.314  0.1812 -0.0743 -0.2141
    8MOL   C195 3429   1.484   2.703   4.196  0.1899  0.1993 -0.2258
    8MOL   C196 3430   1.405   2.678   4.074 -0.2377  0.4910  0.4644
    8MOL   O197 3431   1.294   2.627   4.074 -0.3218 -0.2127  0.1818
    8MOL   O198 3432   1.472   2.709   3.965 -0.1413 -0.1926  0.1266
    8MOL   C199 3433   1.598   2.789   4.200 -0.7955 -0.9627 -0.2047
    8MOL   C200 3434   1.681   2.793   4.315  0.9340  0.5373  0.6199
    8MOL   H201 3435   1.992   3.052   4.717  1.5973  0.4099 -0.8927
    8MOL   H202 3436   1.907   3.092   4.572 -1.5389 -0.0754 -0.0291
    8MOL   H203 3437   1.831   2.889   4.733  0.6711  0.7832 -0.0571
    8MOL   H204 3438   1.960   2.794   4.684  1.4412 -0.2263 -2.2465
    8MOL   H205 3439   1.491   2.591   4.517  0.2165  0.9681  1.3559
    8MOL   H206 3440   1.363   2.574   4.305  1.5274 -1.8468 -0.8114
    8MOL   H207 3441   1.626   2.842   4.110  0.6332 -0.4373  0.5366
    8MOL   H208 3442   1.763   2.863   4.313 -0.9693  2.8408  1.0932
    8MOL   O209 3443   1.387   2.671   3.843 -0.2840 -0.5374  0.0844
    8MOL   C210 3444   1.425   2.540   3.800  0.6758  1.0140 -0.1584
    8MOL   C211 3445   1.575   2.515   3.794 -0.6648  0.6867  0.0165
    8MOL   O212 3446   1.627   2.464   3.911 -0.3762 -0.8625  0.1812
    8MOL   C213 3447   1.725   2.517   3.992  0.3361 -0.2174  0.1750
    8MOL   O214 3448   1.792   2.617   3.962 -0.7446  0.1821 -0.2121
    8MOL   C215 3449   1.729   2.459   4.124  0.1634  0.0555  0.4950
    8MOL   C216 3450   1.637   2.366   4.178  0.5484 -0.0459  0.0647
    8MOL   C217 3451   1.639   2.332   4.313  0.0363  0.6709  0.4664
    8MOL   C218 3452   1.746   2.370   4.395  0.6244  0.0990  0.3606
    8MOL   C219 3453   1.747   2.341   4.544 -0.2283 -0.1525 -0.6289
    8MOL   O220 3454   1.646   2.320   4.611  0.4533 -0.7457 -0.3141
    8MOL   O221 3455   1.868   2.332   4.588 -0.3596 -0.4011  0.0417
    8MOL   C222 3456   1.850   2.453   4.336  0.2622  0.6305 -0.1494
    8MOL   C223 3457   1.840   2.504   4.205  0.3565  0.0249  0.1499
    8MOL   H224 3458   1.373   2.464   3.858 -2.9310  3.1248 -0.4960
    8MOL   H225 3459   1.373   2.544   3.704 -1.8575 -0.2788  1.1212
    8MOL   H226 3460   1.625   2.610   3.774  0.6432  0.3257  1.4634
    8MOL   H227 3461   1.613   2.438   3.727  0.9683  0.6500  0.9694
    8MOL   H228 3462   1.556   2.328   4.117  0.2294 -1.2673  1.2259
    8MOL   H229 3463   1.559   2.271   4.352  0.0840  1.6607  2.1506
    8MOL   H230 3464   1.930   2.477   4.405  1.0328 -3.0439  0.3694
    8MOL   H231 3465   1.915   2.572   4.169 -2.1553  3.0458  0.3893
    8MOL   O232 3466   1.869   2.290   4.737  0.0542 -0.6446 -0.2743
    8MOL   C233 3467   1.854   2.394   4.831  0.1386 -0.2053 -0.1700
    8MOL   C234 3468   1.989   2.481   4.836  0.7015  0.0573 -0.0178
    8MOL   O235 3469   1.974   2.586   4.932 -0.7132  0.2806 -0.2362
    8MOL   C236 3470   1.971   2.560   5.068 -0.4423 -1.2386 -0.7714
    8MOL   O237 3471   1.995   2.449   5.113 -0.3755  0.5721 -0.1219
    8MOL   C238 3472   1.931   2.673   5.161 -0.2941  0.1956  0.0459
    8MOL   C239 3473   1.919   2.665   5.302 -0.1468 -0.5107 -0.2002
    8MOL   C240 3474   1.882   2.780   5.375  0.1362 -0.2366 -0.2838
    8MOL   C241 3475   1.854   2.904   5.305  0.4778 -0.1351 -0.5255
    8MOL   C242 3476   1.802   3.023   5.373  0.5493  0.4039 -0.0876
    8MOL   O243 3477   1.784   3.132   5.320  0.3559 -0.0270 -0.3205
    8MOL   O244 3478   1.787   3.000   5.505 -0.2694  0.1803 -0.0008
    8MOL   C245 3479   1.867   2.914   5.167 -0.2981 -0.4698  0.2244
    8MOL   C246 3480   1.899   2.793   5.092  0.0773  0.1854 -0.8263
    8MOL   H247 3481   1.773   2.466   4.823  1.5081  1.6465  2.1472
    8MOL   H248 3482   1.827   2.340   4.921 -2.1550  1.6129  0.2727
    8MOL   H249 3483   1.996   2.524   4.736  1.0612 -2.2296 -1.0063
    8MOL   H250 3484   2.081   2.425   4.855  1.6598  2.2518  2.1124
    8MOL   H251 3485   1.946   2.573   5.352  1.4589 -0.4868 -0.9963
    8MOL   H252 3486   1.887   2.758   5.480  0.7044 -1.9200 -0.6403
    8MOL   H253 3487   1.845   3.008   5.120 -1.2361 -0.4795  0.6402
    8MOL   H254 3488   1.908   2.812   4.986 -1.1708 -2.6472 -1.4889
    8MOL   O255 3489   1.706   3.102   5.566 -0.1764  0.1874 -0.0174
    8MOL   C256 3490   1.600   3.027   5.630  0.5453 -0.3326 -0.1873
    8MOL   C257 3491   1.480   3.115   5.660  0.2736 -0.1165 -0.2276
    8MOL   O258 3492   1.491   3.196   5.774 -0.2805  0.0312 -0.3543
    8MOL   C259 3493   1.482   3.141   5.898  0.1734  0.2659 -0.0148
    8MOL   O260 3494   1.481   3.018   5.919  0.6028  0.0194  0.3642
    8MOL   C261 3495   1.495   3.238   6.009  0.4006  0.2125  0.2832
    8MOL   C262 3496   1.434   3.212   6.131  0.0184  0.1214  0.6498
    8MOL   C263 3497   1.449   3.304   6.237 -0.6953  0.0029  0.3343
    8MOL   C264 3498   1.520   3.421   6.214  0.2394 -0.4574 -0.7604
    8MOL   C265 3499   1.536   3.524   6.319  0.1338 -0.2649  0.1395
    8MOL   O266 3500   1.582   3.634   6.295  0.2235  0.1288 -0.0154
    8MOL   O267 3501   1.500   3.488   6.447  0.2995  0.4171 -0.1969
    8MOL   C268 3502   1.575   3.453   6.087  0.1818 -1.2909  0.3577
    8MOL   C269 3503   1.556   3.365   5.987 -0.8223  0.6103  0.7697
    8MOL   H270 3504   1.555   2.943   5.577 -0.5735 -1.1236  1.9470
    8MOL   H271 3505   1.642   2.994   5.725 -0.7610  0.2529  0.6202
    8MOL   H272 3506   1.396   3.048   5.679  0.8359  0.0182  2.9849
    8MOL   H273 3507   1.447   3.182   5.581  0.3377  1.1958  0.8306
    8MOL   H274 3508   1.394   3.114   6.151 -0.4454  0.2830  0.5416
    8MOL   H275 3509   1.414   3.288   6.337 -1.5875  2.7143  0.4967
    8MOL   H276 3510   1.614   3.549   6.060  1.1489 -1.1665  2.0828
    8MOL   H277 3511   1.588   3.388   5.886  0.9747 -2.3683  0.5912
    8MOL   O278 3512   1.551   3.575   6.553  0.5045 -0.2029 -0.4813
    8MOL   C279 3513   1.672   3.513   6.591 -0.0168  0.6957  0.1414
    8MOL   C280 3514   1.686   3.487   6.742  0.5810 -0.0486 -0.0684
    8MOL   O281 3515   1.586   3.403   6.787  0.0098  0.1230  0.1232
    8MOL   C282 3516   1.460   3.447   6.828 -0.2925 -0.4404  0.1877
    8MOL   O283 3517   1.422   3.565   6.821 -0.7096  0.0197  0.7565
    8MOL   C284 3518   1.375   3.339   6.882  0.1434  0.5138 -0.3625
    8MOL   C285 3519   1.424   3.207   6.887  0.5201  0.4510 -0.0447
    8MOL   C286 3520   1.350   3.099   6.947 -0.0498 -0.7170 -0.2077
    8MOL   C287 3521   1.229   3.132   7.011 -0.1579  0.0708 -0.2059
    8MOL   C288 3522   1.159   3.025   7.076  1.0618 -0.1748  0.2035
    8MOL   O289 3523   1.200   2.911   7.092 -0.1366 -0.1567 -0.1661
    8MOL   O290 3524   1.039   3.062   7.128 -0.1220 -0.3367 -0.1503
    8MOL   C291 3525   1.176   3.263   7.003 -0.0122 -0.3934  0.3343
    8MOL   C292 3526   1.241   3.361   6.925  0.1734 -0.1052 -0.1192
    8MOL   H293 3527   1.672   3.408   6.564 -2.0092 -0.2708  3.5917
    8MOL   H294 3528   1.759   3.557   6.543  1.0629 -2.2186 -0.6893
    8MOL   H295 3529   1.673   3.581   6.796  0.7343  0.1048 -0.2960
    8MOL   H296 3530   1.782   3.445   6.771  0.7031  0.1035 -0.2520
    8MOL   H297 3531   1.522   3.191   6.844  0.3136 -1.3166  0.0984
    8MOL   H298 3532   1.398   3.002   6.955 -1.9845 -1.7583 -1.0074
    8MOL   H299 3533   1.074   3.278   7.034  0.4104  1.2247  0.9803
    8MOL   H300 3534   1.197   3.460   6.923 -1.5326 -0.8456 -0.2685
    8MOL   O301 3535   0.958   2.947   7.180  0.1037 -0.1600 -0.7482
    8MOL   C302 3536   0.992   2.940   7.316  0.0695  1.1554  0.5134
    8MOL   C303 3537   0.959   2.802   7.361 -0.1509 -0.2378  0.6353
    8MOL   O304 3538   0.983   2.786   7.500  0.2032 -0.3299 -0.5092
    8MOL   C305 3539   0.888   2.817   7.586 -0.3711  0.5050  0.6041
    8MOL   O306 3540   0.773   2.841   7.550  0.1551 -0.6244  0.1954
    8MOL   C307 3541   0.941   2.810   7.727 -0.0448  0.3939 -0.3282
    8MOL   C308 3542   1.080   2.787   7.750  0.1196 -0.6113  0.2243
    8MOL   C309 3543   1.133   2.790   7.884 -0.1404  0.2073  0.5065
    8MOL   C310 3544   1.047   2.799   7.995 -0.1393 -0.1017 -0.0144
    8MOL   C311 3545   1.096   2.791   8.137 -0.3857  0.8946 -0.6082
    8MOL   O312 3546   1.214   2.794   8.170  0.7360  0.1513 -0.3905
    8MOL   O313 3547   0.995   2.771   8.223  0.2500 -0.3028 -0.0136
    8MOL   C314 3548   0.912   2.828   7.974  0.3089  0.4503  0.1452
    8MOL   C315 3549   0.862   2.843   7.842 -0.9441 -1.0023 -0.0651
    8MOL   H316 3550   1.096   2.966   7.337 -0.7769  2.1649  3.7561
    8MOL   H317 3551   0.934   3.015   7.369 -0.3761  0.0455  1.6046
    8MOL   H318 3552   1.008   2.722   7.306 -1.3158 -1.4904  1.3782
    8MOL   H319 3553   0.856   2.795   7.325 -0.4581  1.7487  1.0653
    8MOL   H320 3554   1.143   2.771   7.664  1.2357 -0.9072  1.0995
    8MOL   H321 3555   1.239   2.771   7.892  0.0865 -0.0512 -2.5603
    8MOL   H322 3556   0.843   2.832   8.056 -0.0847 -0.0379 -0.1630
    8MOL   H323 3557   0.758   2.864   7.824 -0.6707  1.5672  1.0863
    8MOL   O324 3558   1.035   2.739   0.084  0.6784 -0.4863 -0.2071
    8MOL   C325 3559   1.015   2.605   0.121 -0.2437  0.1601  0.2694
    8MOL   C326 3560   1.070   2.569   0.260 -0.8936  1.1722  0.3602
    8MOL   O327 3561   1.042   2.432   0.294 -0.0306  0.2552  0.0594
    8MOL   C328 3562   0.918   2.390   0.329  0.7564  0.0981  0.4523
    8MOL   O329 3563   0.817   2.456   0.312  0.0522 -0.0860 -1.0182
    8MOL   C330 3564   0.914   2.252   0.371  0.2357 -0.1560 -0.3264
    8MOL   C331 3565   0.786   2.187   0.377 -0.3338  0.6643 -0.1092
    8MOL   C332 3566   0.770   2.053   0.427  0.1378  0.6409  0.1680
    8MOL   C333 3567   0.882   1.981   0.473 -0.4383  0.8456  0.0884
    8MOL   C334 3568   0.880   1.834   0.513  0.1585 -0.5337  0.1021
    8MOL   O335 3569   0.979   1.761   0.532 -0.1024 -0.7095 -0.8566
    8MOL   O336 3570   0.762   1.782   0.515 -0.3705  0.0887 -0.1622
    8MOL   C337 3571   1.011   2.047   0.466 -0.3289  0.9508  0.4439
    8MOL   C338 3572   1.026   2.178   0.418 -0.2121  0.7401 -0.3793
    8MOL   H339 3573   0.906   2.599   0.125 -0.2409  0.0326  0.1759
    8MOL   H340 3574   1.043   2.525   0.052 -0.6190 -0.9081  1.3373
    8MOL   H341 3575   1.018   2.624   0.339 -0.0567 -0.5869  2.1845
    8MOL   H342 3576   1.176   2.596   0.257 -0.4360 -0.3303  2.1410
    8MOL   H343 3577   0.700   2.248   0.353 -0.6453 -0.0376 -0.8273
    8MOL   H344 3578   0.678   1.997   0.433  1.5755 -1.5737  2.6319
    8MOL   H345 3579   1.093   1.984   0.497 -2.7247 -1.5440  2.1007
    8MOL   H346 3580   1.120   2.231   0.424 -0.1046  0.7363 -1.7977
    8MOL   O347 3581   0.769   1.634   0.534  0.0214  0.5056 -0.2209
    8MOL   C348 3582   0.776   1.577   0.404 -0.1860  0.7222  0.3358
    8MOL   C349 3583   0.652   1.612   0.319  0.1853 -0.3649 -0.2672
    8MOL   O350 3584   0.689   1.726   0.247  0.2193  0.0929 -0.1750
    8MOL   C351 3585   0.694   1.728   0.108 -0.1500 -1.1921  0.7116
    8MOL   O352 3586   0.633   1.650   0.037 -0.6257  0.2297 -0.1544
    8MOL   C353 3587   0.763   1.844   0.052 -0.0040 -0.0129  0.0101
    8MOL   C354 3588   0.729   1.898   8.203  0.0573  1.0543 -0.4649
    8MOL   C355 3589   0.816   1.995   8.139  0.2976  0.8596 -0.3073
    8MOL   C356 3590   0.914   2.058   8.218 -0.4407 -0.1826  0.0309
    8MOL   C357 3591   0.994   2.175   8.182 -0.4171 -0.2345 -0.6208
    8MOL   O358 3592   1.065   2.240   8.257  0.3626  0.2018 -0.1183
    8MOL   O359 3593   0.988   2.208   8.046 -0.2519  0.1406  0.3596
    8MOL   C360 3594   0.936   2.016   0.071  0.4957 -0.3817  0.1291
    8MOL   C361 3595   0.866   1.908   0.127  0.0247 -0.6120  0.3122
    8MOL   H362 3596   0.868   1.610   0.356 -0.4901  1.3862  0.2053
    8MOL   H363 3597   0.793   1.470   0.416 -2.2802  0.1359 -1.4670
    8MOL   H364 3598   0.573   1.634   0.391  0.4932  0.1390 -0.0792
    8MOL   H365 3599   0.627   1.528   0.254  3.0855 -0.4551 -1.3501
    8MOL   H366 3600   0.643   1.857   8.151 -0.0768  1.0262 -0.2233
    8MOL   H367 3601   0.796   2.023   8.037  0.5502  0.0250 -0.5945
    8MOL   H368 3602   0.999   2.074   0.136  1.3342 -0.5810 -0.4978
    8MOL   H369 3603   0.893   1.868   0.224  0.9707 -1.0076 -0.1046
    8MOL   O370 3604   1.091   2.293   7.998 -0.0039 -0.2760 -0.4373
    8MOL   C371 3605   1.041   2.427   7.998  0.0349  0.3818 -0.3558
    8MOL   C372 3606   0.906   2.450   7.930  0.0348 -0.4994 -0.1952
    8MOL   O373 3607   0.795   2.409   8.005  0.2057 -0.5812 -0.2768
    8MOL   C374 3608   0.744   2.479   8.107 -0.5195 -0.1753  0.1339
    8MOL   O375 3609   0.759   2.598   8.126  0.4106  0.0561 -0.3534
    8MOL   C376 3610   0.661   2.396   8.197  0.7908 -0.2890  0.4163
    8MOL   C377 3611   0.631   2.258   8.174 -0.1780 -0.5544 -0.3470
    8MOL   C378 3612   0.563   2.183   8.273 -0.0575  0.1285  0.0194
    8MOL   C379 3613   0.506   2.249   0.111 -0.6239 -0.2836 -0.3731
    8MOL   C380 3614   0.419   2.171   0.210  0.0875 -0.6248 -0.5066
    8MOL   O381 3615   0.429   2.052   0.230  0.0043 -0.4571 -0.3847
    8MOL   O382 3616   0.334   2.253   0.270 -0.8562 -0.5461  0.6309
    8MOL   C383 3617   0.531   2.384   0.129  0.0228 -0.3329  0.5040
    8MOL   C384 3618   0.607   2.454   0.033  0.5222 -0.6242 -0.2689
    8MOL   H385 3619   1.049   2.465   8.100  1.2101  0.6477 -0.5443
    8MOL   H386 3620   1.118   2.496   7.964  1.7527 -1.2473  0.1251
    8MOL   H387 3621   0.896   2.394   7.837 -1.9883 -0.3408 -0.0917
    8MOL   H388 3622   0.895   2.557   7.908 -1.8828 -0.5333  0.5832
    8MOL   H389 3623   0.683   2.211   8.092  1.0151  0.9940 -0.4898
    8MOL   H390 3624   0.556   2.076   8.262  0.6116  0.0204  0.6507
    8MOL   H391 3625   0.502   2.426   0.225 -2.9264  2.7151 -1.5798
    8MOL   H392 3626   0.636   2.556   0.050  1.1772 -1.2707  2.8021
    8MOL   O393 3627   0.252   2.172   0.372 -0.3800 -0.0111  0.6667
    8MOL   C394 3628   0.120   2.176   0.327 -0.3753 -0.0272  0.6903
    8MOL   C395 3629   0.051   2.307   0.373  0.6058  0.1297 -0.3300
    8MOL   O396 3630   0.093   2.407   0.286  0.5258 -0.7494  0.0880
    8MOL   C397 3631   0.078   2.537   0.323  0.2769 -0.1586 -0.0741
    8MOL   O398 3632   0.032   2.569   0.434 -0.3698 -0.0801 -0.5963
    8MOL   C399 3633   0.129   2.627   0.215 -0.8237  0.1044  0.8483
    8MOL   C400 3634   0.102   2.760   0.236  0.2016 -0.3773 -0.2134
    8MOL   C401 3635   0.142   2.852   0.138 -0.2742  0.7659  0.0616
    8MOL   C402 3636   0.190   2.811   0.009  0.4438  0.2034  0.1127
    8MOL   C403 3637   0.230   2.914   8.175  0.5562 -0.1630  0.3077
    8MOL   O404 3638   0.216   3.036   8.195 -0.0296  0.3059  0.1995
    8MOL   O405 3639   0.291   2.858   8.065 -0.1764 -0.4589 -0.1091
    8MOL   C406 3640   0.218   2.677   8.272 -0.0847  0.0250  0.0775
    8MOL   C407 3641   0.187   2.583   0.098  0.3828 -0.1062  0.1595
    8MOL   H408 3642   0.121   2.159   0.220 -0.6707 -0.4476  0.7545
    8MOL   H409 3643   0.073   2.088   0.370 -1.9830  0.9276  0.9031
    8MOL   H410 3644   0.061   2.327   0.479  3.7966 -0.1917 -0.4914
    8MOL   H411 3645   8.221   2.288   0.357  0.2660 -0.3722  2.2797
    8MOL   H412 3646   0.049   2.801   0.321 -1.9487 -2.0566 -0.7194
    8MOL   H413 3647   0.122   2.957   0.152 -0.2241  0.8155 -0.2233
    8MOL   H414 3648   0.248   2.634   8.177 -2.4634  1.1514 -1.2408
    8MOL   H415 3649   0.213   2.479   0.086  1.9873  0.3234 -0.2959
    8MOL   O416 3650   0.342   2.960   7.959 -0.1658  0.2719 -0.4635
    8MOL   C417 3651   0.485   2.971   7.969  0.5610 -0.1388  0.0968
    8MOL   C418 3652   0.515   3.068   8.084 -0.0281 -0.5857 -0.1112
    8MOL   O419 3653   0.515   2.999   8.207 -0.9417 -0.6014  0.1488
    8MOL   C420 3654   0.632   2.957   8.254 -0.1805  0.5462  0.3716
    8MOL   O421 3655   0.746   2.973   8.199  0.0178  0.0610  0.1191
    8MOL   C422 3656   0.610   2.887   0.110  0.2034 -0.2887  0.1768
    8MOL   C423 3657   0.720   2.835   0.174  0.8048  0.3016 -0.0250
    8MOL   C424 3658   0.708   2.768   0.300 -0.2013  0.1881  0.9413
    8MOL   C425 3659   0.581   2.750   0.358  0.0761  0.1264 -0.1837
    8MOL   C426 3660   0.559   2.667   0.483  0.6656 -0.3742 -0.0591
    8MOL   O427 3661   0.643   2.636   0.561 -0.0422  0.2366 -0.5961
    8MOL   O428 3662   0.433   2.635   0.504  0.4232 -0.1507 -0.3443
    8MOL   C429 3663   0.469   2.814   0.297  0.1979 -0.0214 -0.0284
    8MOL   C430 3664   0.479   2.880   0.173  0.0585 -0.4044 -0.3090
    8MOL   H431 3665   0.524   2.872   7.992  0.2829 -0.2732  0.0016
    8MOL   H432 3666   0.536   3.010   7.881 -0.7242 -1.3219 -1.1927
    8MOL   H433 3667   0.438   3.145   8.086  0.6003  0.0301  1.3243
    8MOL   H434 3668   0.613   3.111   8.062  0.2914 -0.1234  2.0398
    8MOL   H435 3669   0.812   2.838   0.118  0.3968 -0.7664 -0.7827
    8MOL   H436 3670   0.789   2.718   0.351 -0.8117 -0.9753  0.7980
    8MOL   H437 3671   0.372   2.795   0.342 -0.4646 -1.1250 -1.9057
    8MOL   H438 3672   0.384   2.912   0.133 -0.7586  0.3473  2.1138
    8MOL   O439 3673   0.415   2.527   0.603  0.0100  0.1838 -0.9043
    8MOL   C440 3674   0.402   2.399   0.538 -0.0305 -0.1374 -0.5829
    8MOL   C441 3675   0.420   2.288   0.646 -0.0036  0.3121 -0.8491
    8MOL   O442 3676   0.554   2.276   0.681  0.0164 -0.1823  0.0267
    8MOL   C443 3677   0.594   2.170   0.753  0.0625 -0.3477  0.0695
    8MOL   O444 3678   0.512   2.082   0.798  0.1939 -0.1876 -0.1208
    8MOL   C445 3679   0.740   2.168   0.785  0.1146 -0.1331 -0.1499
    8MOL   C446 3680   0.814   2.270   0.725 -0.3229 -0.8439  0.5021
    8MOL   C447 3681   0.950   2.286   0.765 -0.2139  0.4412  0.5498
    8MOL   C448 3682   1.014   2.193   0.856  0.2352  0.6860 -0.5028
    8MOL   C449 3683   1.155   2.214   0.896 -0.1736  0.2320 -0.1258
    8MOL   O450 3684   1.217   2.312   0.848  0.6734  0.6365  0.4846
    8MOL   O451 3685   1.219   2.128   0.975 -0.2081  0.3422 -0.0165
    8MOL   C452 3686   0.938   2.080   0.905  0.0254  0.0342  0.3304
    8MOL   C453 3687   0.799   2.070   0.863  0.8002 -0.4774 -1.0351
    8MOL   H454 3688   0.312   2.404   0.477 -1.9815  1.9645  2.3348
    8MOL   H455 3689   0.490   2.389   0.474 -0.3607  0.2548 -1.1041
    8MOL   H456 3690   0.375   2.192   0.622  0.9735 -0.5308  0.6024
    8MOL   H457 3691   0.347   2.312   0.724 -0.4632 -1.7247 -0.6274
    8MOL   H458 3692   0.777   2.342   0.654 -1.9344 -1.3267  0.8273
    8MOL   H459 3693   1.011   2.362   0.719 -0.6804  1.5268  1.7251
    8MOL   H460 3694   0.975   2.001   0.969 -1.7230 -1.5695 -0.6029
    8MOL   H461 3695   0.746   1.984   0.901  0.2921  0.8629  1.3965
    8MOL   H462 3696   1.312   2.146   0.980 -0.0601 -0.4163  0.0784
    9MOL     O1 3697   6.429   8.234   5.472 -0.2465 -0.2657 -0.0769
    9MOL     C2 3698   6.487   8.145   5.378  0.4566 -0.3113 -0.5525
    9MOL     C3 3699   6.382   8.122   5.266  0.4874 -0.0281  0.0527
    9MOL     O4 3700   6.404   7.999   5.187 -0.4512 -0.7790  0.2626
    9MOL     C5 3701   6.375   7.877   5.241 -0.2533  0.4839  0.9293
    9MOL     O6 3702   6.339   7.857   5.361 -0.4087 -0.3298  0.2646
    9MOL     C7 3703   6.383   7.765   5.135 -0.5531 -0.4565 -0.1983
    9MOL     C8 3704   6.418   7.793   5.002 -0.0692 -0.1522  0.6658
    9MOL     C9 3705   6.420   7.696   4.898  0.3004  0.4456 -0.3556
    9MOL    C10 3706   6.383   7.563   4.937  0.5005 -0.4857 -0.3496
    9MOL    C11 3707   6.383   7.456   4.822 -0.6406 -0.1835  1.0428
    9MOL    O12 3708   6.399   7.487   4.699  0.3074  0.8381  0.1911
    9MOL    O13 3709   6.352   7.334   4.874 -0.2022 -0.0407  0.1048
    9MOL    C14 3710   6.346   7.529   5.070 -0.4611 -0.1804  0.1904
    9MOL    C15 3711   6.348   7.631   5.168 -0.2915  0.4165  0.5872
    9MOL    H16 3712   6.571   8.192   5.327  0.9871  0.6585  1.1868
    9MOL    H17 3713   6.527   8.055   5.425 -2.6031 -0.9819  0.8949
    9MOL    H18 3714   6.371   8.211   5.203  0.8729  1.4273  1.9778
    9MOL    H19 3715   6.284   8.115   5.313  1.0740  1.4593  1.5731
    9MOL    H20 3716   6.443   7.897   4.989 -1.0199 -0.1094 -0.9302
    9MOL    H21 3717   6.442   7.718   4.794 -0.5632 -0.4029 -0.7227
    9MOL    H22 3718   6.317   7.430   5.099  1.0305 -1.5147 -2.7044
    9MOL    H23 3719   6.315   7.606   5.268  0.5597  0.9952  1.0209
    9MOL    H24 3720   6.374   8.186   5.533  1.8075 -0.2735  1.8318
    9MOL    O25 3721   6.360   7.218   4.783 -0.2364  0.1905 -0.1396
    9MOL    C26 3722   6.240   7.144   4.803 -0.7489  0.7891  0.5683
    9MOL    C27 3723   6.213   7.054   4.684 -0.2194 -0.1087  0.3435
    9MOL    O28 3724   6.143   7.125   4.578  0.1728 -0.1427  0.5099
    9MOL    C29 3725   6.007   7.130   4.575 -0.1255  0.0191 -0.2192
    9MOL    O30 3726   5.935   7.086   4.661 -0.2683 -0.0101 -0.3989
    9MOL    C31 3727   5.944   7.201   4.455 -0.4327 -0.0008 -0.6790
    9MOL    C32 3728   5.818   7.263   4.464 -0.1572  0.2678  0.1642
    9MOL    C33 3729   5.781   7.352   4.367 -0.5527 -0.1943  0.0604
    9MOL    C34 3730   5.854   7.370   4.247 -0.0982 -0.3172  0.1100
    9MOL    C35 3731   5.801   7.466   4.149 -0.5252 -0.5946 -0.6716
    9MOL    O36 3732   5.687   7.517   4.160 -0.2576  0.0585 -0.2318
    9MOL    O37 3733   5.889   7.490   4.053 -0.0748  0.3040  0.3572
    9MOL    C38 3734   5.978   7.301   4.231 -0.0478 -0.3359  0.3669
    9MOL    C39 3735   6.022   7.218   4.337 -0.4756 -0.2868 -0.0387
    9MOL    H40 3736   6.255   7.079   4.889  1.0586 -0.2742 -0.5259
    9MOL    H41 3737   6.151   7.202   4.827  1.1752  3.4986  1.4139
    9MOL    H42 3738   6.162   6.964   4.718  3.4382 -2.7891 -0.8405
    9MOL    H43 3739   6.317   7.028   4.662  0.7335  0.9390  3.2344
    9MOL    H44 3740   5.750   7.262   4.549 -2.0502  0.7733 -1.3055
    9MOL    H45 3741   5.684   7.398   4.375 -0.9289 -1.1923  1.2844
    9MOL    H46 3742   6.043   7.311   4.146 -1.3914  0.3876 -0.6077
    9MOL    H47 3743   6.121   7.176   4.333  0.1166  1.0761 -0.1207
    9MOL    O48 3744   5.826   7.572   3.943  0.4021  0.4024 -0.3271
    9MOL    C49 3745   5.790   7.483   3.841  0.6889 -0.3914 -0.3783
    9MOL    C50 3746   5.678   7.541   3.760  0.6646  0.3027  0.1585
    9MOL    O51 3747   5.567   7.563   3.847 -0.0174  0.5721  0.1666
    9MOL    C52 3748   5.457   7.478   3.856  0.0549  0.0209 -0.1822
    9MOL    O53 3749   5.449   7.377   3.781 -0.1256 -0.1243 -0.5769
    9MOL    C54 3750   5.341   7.525   3.940  0.5890 -0.8961 -0.1667
    9MOL    C55 3751   5.218   7.462   3.922  0.4393  0.3750 -0.3879
    9MOL    C56 3752   5.103   7.511   3.979  0.3523  0.4900 -0.2350
    9MOL    C57 3753   5.112   7.627   4.064 -0.0182  0.3584 -0.4087
    9MOL    C58 3754   4.983   7.687   4.115 -0.0815  0.0602  0.0928
    9MOL    O59 3755   4.875   7.630   4.123  0.1893  0.1274 -0.0347
    9MOL    O60 3756   5.003   7.814   4.163  0.1779 -0.0107 -0.5524
    9MOL    C61 3757   5.238   7.685   4.093 -0.4090  0.1741 -0.9374
    9MOL    C62 3758   5.352   7.636   4.030  0.4045  0.3569  0.5765
    9MOL    H63 3759   5.878   7.448   3.787  0.0509 -2.6648  0.0320
    9MOL    H64 3760   5.740   7.400   3.890 -1.0958  0.6635 -0.3615
    9MOL    H65 3761   5.656   7.462   3.688 -2.3605 -0.7583  2.1296
    9MOL    H66 3762   5.723   7.626   3.709  1.4700  1.9737  3.5653
    9MOL    H67 3763   5.212   7.369   3.868 -0.6257  0.6686 -0.7806
    9MOL    H68 3764   5.008   7.461   3.969 -0.9315  2.8528 -0.1968
    9MOL    H69 3765   5.250   7.768   4.162 -2.6642 -2.3071  2.6433
    9MOL    H70 3766   5.447   7.685   4.045 -0.1396  1.4883  0.3979
    9MOL    O71 3767   4.877   7.878   4.227  0.0090 -0.0747 -0.7975
    9MOL    C72 3768   4.828   7.983   4.140  0.4769 -0.0080  0.0911
    9MOL    C73 3769   4.808   8.114   4.224  0.2281  0.3465 -0.0491
    9MOL    O74 3770   4.681   8.131   4.287  0.0540 -0.3926 -0.2778
    9MOL    C75 3771   4.654   8.246   4.361 -0.1792  0.1874  0.7658
    9MOL    O76 3772   4.742   0.058   4.382 -0.0268  0.4296  0.3780
    9MOL    C77 3773   4.526   8.247   4.431 -0.5201  0.2925  0.1955
    9MOL    C78 3774   4.442   8.133   4.425 -0.4280 -0.1138 -0.3570
    9MOL    C79 3775   4.319   8.139   4.499  0.5644  0.2273 -0.4983
    9MOL    C80 3776   4.280   8.248   4.575 -0.3777 -0.0007  0.2377
    9MOL    C81 3777   4.149   8.243   4.654 -0.1606  0.2119  0.4314
    9MOL    O82 3778   4.109   0.056   4.722 -0.1689 -0.1447 -0.0941
    9MOL    O83 3779   4.080   8.131   4.631 -0.1724 -0.3658 -0.6441
    9MOL    C84 3780   4.367   0.088   4.578  0.2895 -0.8250  0.3142
    9MOL    C85 3781   4.492   0.083   4.509 -0.2030 -0.1317  0.6395
    9MOL    H86 3782   4.903   8.015   4.067  0.2740 -1.0520 -0.5755
    9MOL    H87 3783   4.733   7.957   4.094  0.0881 -0.1418  0.9719
    9MOL    H88 3784   4.827   8.194   4.153 -0.6634 -1.0513 -1.9156
    9MOL    H89 3785   4.883   8.127   4.301 -0.0807 -1.1603  0.5344
    9MOL    H90 3786   4.453   8.054   4.352  0.1950  1.1484 -1.6513
    9MOL    H91 3787   4.252   8.055   4.483  1.0497 -0.0181 -1.2751
    9MOL    H92 3788   4.332   0.174   4.633 -0.0652  0.2746 -1.6121
    9MOL    H93 3789   4.546   0.176   4.514  1.8664 -1.2034 -1.0794
    9MOL    O94 3790   3.956   8.120   4.712 -0.9447  0.6151 -0.2188
    9MOL    C95 3791   3.850   8.183   4.644  0.0848 -0.3958  0.2429
    9MOL    C96 3792   3.717   8.170   4.714 -0.8273  0.3549 -0.2409
    9MOL    O97 3793   3.639   8.051   4.681 -0.4455 -0.6862  0.4298
    9MOL    C98 3794   3.580   8.049   4.567  0.1594 -0.3020 -0.0606
    9MOL    O99 3795   3.604   8.128   4.475  0.2075 -0.2013 -0.6252
    9MOL   C100 3796   3.470   7.944   4.560 -0.7635 -0.3874  0.0226
    9MOL   C101 3797   3.379   7.954   4.454  0.1077 -0.2707  0.0408
    9MOL   C102 3798   3.259   7.878   4.446 -0.1055 -0.0823 -0.4434
    9MOL   C103 3799   3.237   7.781   4.543 -0.2842 -0.2907 -0.6566
    9MOL   C104 3800   3.114   7.696   4.530  0.2861 -0.0474 -0.1600
    9MOL   O105 3801   3.047   7.691   4.432  0.9031 -0.0054 -0.3307
    9MOL   O106 3802   3.081   7.632   4.642 -0.3244 -0.4843  0.2242
    9MOL   C107 3803   3.327   7.769   4.650  0.1277 -0.3981  0.1887
    9MOL   C108 3804   3.448   7.840   4.652 -0.0995  0.0125  0.1867
    9MOL   H109 3805   3.870   0.014   4.643  1.0098 -0.5615  0.3469
    9MOL   H110 3806   3.842   8.151   4.540  1.4380 -1.0214  0.3180
    9MOL   H111 3807   3.653   8.258   4.714  0.5529  1.4359  3.6670
    9MOL   H112 3808   3.745   8.167   4.819  1.6037 -3.3481 -0.9043
    9MOL   H113 3809   3.392   8.033   4.381  0.2959 -1.7420 -1.5633
    9MOL   H114 3810   3.191   7.894   4.364  1.6073  0.3325 -1.7917
    9MOL   H115 3811   3.297   7.711   4.736 -1.3813 -0.1449 -0.1470
    9MOL   H116 3812   3.513   7.830   4.738 -1.0864  2.1618  1.2358
    9MOL   O117 3813   2.943   7.571   4.641 -0.0785  0.6225  0.1463
    9MOL   C118 3814   2.952   7.431   4.636  0.2878  0.6977 -0.7573
    9MOL   C119 3815   3.032   7.375   4.525  0.0368 -0.6387 -0.3361
    9MOL   O120 3816   3.173   7.397   4.556  0.2497  0.1035 -0.1448
    9MOL   C121 3817   3.276   7.347   4.485 -0.4096  1.6543 -0.7868
    9MOL   O122 3818   3.256   7.275   4.384  0.1798 -0.4782  0.5574
    9MOL   C123 3819   3.408   7.378   4.547  0.0254 -0.1780 -0.3203
    9MOL   C124 3820   3.425   7.441   4.668 -0.4074 -0.0237  0.6141
    9MOL   C125 3821   3.552   7.457   4.731  0.4696 -0.3486  0.7731
    9MOL   C126 3822   3.668   7.430   4.655 -0.2053 -0.4948  0.1263
    9MOL   C127 3823   3.799   7.490   4.696 -0.4648 -0.7733 -0.2421
    9MOL   O128 3824   3.907   7.464   4.636 -0.7731  0.1608  0.3593
    9MOL   O129 3825   3.791   7.566   4.807  0.5120 -0.2569  0.3805
    9MOL   C130 3826   3.658   7.365   4.529  1.1425  0.1716  0.0677
    9MOL   C131 3827   3.524   7.344   4.477  0.0274 -0.1271 -0.1397
    9MOL   H132 3828   3.002   7.403   4.729  0.4953  1.7081 -0.5524
    9MOL   H133 3829   2.850   7.395   4.650 -0.1021  1.7640 -0.8054
    9MOL   H134 3830   3.003   7.429   4.435 -0.7905 -0.5023  0.0038
    9MOL   H135 3831   3.014   7.267   4.519 -2.8376 -0.1615 -1.1090
    9MOL   H136 3832   3.338   7.472   4.725  0.2901  3.1155  0.0676
    9MOL   H137 3833   3.549   7.496   4.831  1.0662  0.9001  0.3116
    9MOL   H138 3834   3.744   7.350   4.466  1.9509 -0.8103  1.4046
    9MOL   H139 3835   3.506   7.305   4.378  2.2871 -0.9295 -0.2666
    9MOL   O140 3836   3.926   7.623   4.845 -0.2083 -0.1575 -0.0891
    9MOL   C141 3837   3.929   7.763   4.814  0.3522 -0.6426 -0.0857
    9MOL   C142 3838   3.949   7.795   4.667 -0.2101  0.2741 -0.2190
    9MOL   O143 3839   3.834   7.796   4.579 -0.2976 -0.0664 -0.2373
    9MOL   C144 3840   3.856   7.835   4.448  0.6221  0.0812  0.2607
    9MOL   O145 3841   3.960   7.895   4.403  0.3750  0.5674  0.7046
    9MOL   C146 3842   3.746   7.800   4.357  0.1960  0.0847 -1.3107
    9MOL   C147 3843   3.724   7.855   4.226 -0.0207 -0.5104  0.3708
    9MOL   C148 3844   3.615   7.822   4.148 -0.5339 -0.1615 -0.3374
    9MOL   C149 3845   3.512   7.741   4.205 -0.2983 -0.4081 -0.3151
    9MOL   C150 3846   3.384   7.707   4.132 -0.0155 -0.0943 -0.3168
    9MOL   O151 3847   3.290   7.656   4.186 -0.2334  0.0286 -0.2920
    9MOL   O152 3848   3.386   7.749   3.997 -0.0996 -0.0112  0.3296
    9MOL   C153 3849   3.526   7.684   4.336  0.2292 -0.0493 -0.5478
    9MOL   C154 3850   3.644   7.714   4.409  0.1757  0.8635  0.5477
    9MOL   H155 3851   3.841   7.818   4.846  0.8265 -0.5786  1.1494
    9MOL   H156 3852   4.019   7.796   4.867 -0.5590  0.0045  1.0756
    9MOL   H157 3853   4.030   7.749   4.610  0.6308 -0.8475  1.8187
    9MOL   H158 3854   3.968   7.902   4.665  0.7868  0.1144  0.1622
    9MOL   H159 3855   3.800   7.921   4.187  0.5567 -0.3713  1.7290
    9MOL   H160 3856   3.601   7.859   4.048  2.5433  1.2084 -0.2928
    9MOL   H161 3857   3.449   7.625   4.384  0.4419 -0.7778 -1.0919
    9MOL   H162 3858   3.643   7.673   4.509  4.9797  0.2355  0.4658
    9MOL   O163 3859   3.249   7.721   3.934 -0.2624 -0.1371 -0.0314
    9MOL   C164 3860   3.267   7.621   3.837 -0.1671 -0.4932 -0.1220
    9MOL   C165 3861   3.114   7.594   3.793 -0.6418 -0.6847  0.1172
    9MOL   O166 3862   3.110   7.514   3.680  0.4131  0.6436  0.3640
    9MOL   C167 3863   3.011   7.529   3.589 -0.0337  0.2485 -0.0307
    9MOL   O168 3864   2.902   7.578   3.618 -0.1236  0.2273 -0.0402
    9MOL   C169 3865   3.050   7.472   3.452  0.1909 -0.5072 -1.1185
    9MOL   C170 3866   2.944   7.450   3.358 -0.4154  0.4158  0.1895
    9MOL   C171 3867   2.971   7.411   3.224  0.3826  0.1079  0.0369
    9MOL   C172 3868   3.102   7.382   3.185 -0.6175 -0.1497 -0.0517
    9MOL   C173 3869   3.114   7.316   3.048 -1.0961 -0.2133  0.2047
    9MOL   O174 3870   3.023   7.300   2.968 -0.3788 -0.0361 -0.1297
    9MOL   O175 3871   3.239   7.274   3.011  0.0551 -0.1421  0.6467
    9MOL   C176 3872   3.212   7.399   3.277 -0.3821 -0.2493 -0.2478
    9MOL   C177 3873   3.186   7.452   3.409  0.6362 -0.4223  0.9476
    9MOL   H178 3874   3.320   7.676   3.759  0.1285  0.8901  1.0319
    9MOL   H179 3875   3.327   7.539   3.877  1.5599  0.8647  0.1387
    9MOL   H180 3876   3.067   7.692   3.780  0.7288 -0.0790 -0.3029
    9MOL   H181 3877   3.062   7.547   3.877 -0.7905  0.2940  0.5820
    9MOL   H182 3878   2.838   7.466   3.371 -0.6275 -0.3541 -0.6016
    9MOL   H183 3879   2.893   7.399   3.150  1.0994 -0.4223 -0.6437
    9MOL   H184 3880   3.307   7.370   3.234  0.5189  1.5360  0.4978
    9MOL   H185 3881   3.274   7.475   3.467 -0.2384 -0.5779  2.3718
    9MOL   O186 3882   3.253   7.234   2.868 -0.1112 -1.0546 -0.4283
    9MOL   C187 3883   3.343   7.322   2.814 -0.5082  0.1516 -0.6224
    9MOL   C188 3884   3.285   7.456   2.768  0.2641  1.0681 -0.0632
    9MOL   O189 3885   3.348   7.568   2.834  0.6274 -0.4397 -0.5592
    9MOL   C190 3886   3.288   7.639   2.927  0.2547 -0.1728  0.8021
    9MOL   O191 3887   3.174   7.630   2.969 -0.1504 -0.3035  0.0109
    9MOL   C192 3888   3.378   7.751   2.972 -0.1457  0.2682  0.3331
    9MOL   C193 3889   3.380   7.789   3.109  0.1514 -0.8295  0.8418
    9MOL   C194 3890   3.473   7.888   3.152  0.3353  0.0263 -0.1576
    9MOL   C195 3891   3.564   7.943   3.062 -0.3782 -0.3418 -0.1349
    9MOL   C196 3892   3.666   8.039   3.106 -0.0498 -0.3011  0.0278
    9MOL   O197 3893   3.694   8.051   3.228  0.3744 -0.8930  0.0474
    9MOL   O198 3894   3.735   8.100   3.008 -0.7015  0.2985 -0.0596
    9MOL   C199 3895   3.559   7.904   2.924 -0.0199 -0.3773 -0.3947
    9MOL   C200 3896   3.465   7.815   2.877  0.2690 -1.1509 -0.2507
    9MOL   H201 3897   3.416   7.353   2.889  0.1742 -1.5435 -0.5739
    9MOL   H202 3898   3.392   7.292   2.721 -0.6446 -0.0550 -0.6267
    9MOL   H203 3899   3.177   7.450   2.782  0.0867  2.6971 -0.6827
    9MOL   H204 3900   3.288   7.464   2.660 -1.4758  0.2302 -0.1893
    9MOL   H205 3901   3.325   7.730   3.181 -0.2392  1.0515  2.1159
    9MOL   H206 3902   3.470   7.907   3.258 -0.6622  1.8009 -0.4784
    9MOL   H207 3903   3.622   7.933   2.841 -1.2456  0.5726 -1.0193
    9MOL   H208 3904   3.445   7.803   2.771 -2.3150 -2.7697  0.3548
    9MOL   O209 3905   3.858   8.175   3.052  0.8309  0.3352 -0.2971
    9MOL   C210 3906   3.968   8.133   2.973 -0.0788  0.2778 -0.0876
    9MOL   C211 3907   4.087   8.230   3.010 -0.8121 -0.1927  0.0424
    9MOL   O212 3908   4.048   0.077   2.946 -0.6146 -0.6524 -0.4056
    9MOL   C213 3909   4.130   0.157   2.874  0.8209 -0.0523  0.2051
    9MOL   O214 3910   4.250   0.141   2.868 -0.1000  0.0172  0.3927
    9MOL   C215 3911   4.056   0.255   2.794 -0.1930  0.1670 -0.4876
    9MOL   C216 3912   3.911   0.260   2.783  0.6164 -0.1267 -0.1627
    9MOL   C217 3913   3.853   0.358   2.700  0.9451 -0.0706 -0.2323
    9MOL   C218 3914   3.930   0.466   2.651  0.7175  0.3965  0.1819
    9MOL   C219 3915   3.855   0.581   2.586 -0.3243  0.9223  0.5178
    9MOL   O220 3916   3.732   0.583   2.565  0.1033 -0.3788 -0.3859
    9MOL   O221 3917   3.934   0.687   2.536  0.0383  0.6579  0.0916
    9MOL   C222 3918   4.068   0.465   2.661  0.1067  0.8330 -0.0003
    9MOL   C223 3919   4.133   0.359   2.727 -0.0267  0.1026  0.1561
    9MOL   H224 3920   3.999   8.037   3.015  2.8513  1.4468  0.5447
    9MOL   H225 3921   3.948   8.117   2.867 -0.9684  1.6663 -0.1351
    9MOL   H226 3922   4.185   8.190   2.984 -0.4514  0.6202  0.1373
    9MOL   H227 3923   4.087   8.243   3.118  2.0845  3.0880 -0.2398
    9MOL   H228 3924   3.854   0.188   2.839 -1.5561  1.1691 -0.6704
    9MOL   H229 3925   3.746   0.356   2.687  0.8779  3.0434 -0.5535
    9MOL   H230 3926   4.124   0.550   2.625  1.9239 -0.5611 -0.5045
    9MOL   H231 3927   4.241   0.355   2.725 -0.0034  0.8978 -1.0399
    9MOL   O232 3928   3.858   0.790   2.470 -0.4286  0.4849 -0.0154
    9MOL   C233 3929   3.898   0.786   2.334  0.5809  1.0442 -0.3722
    9MOL   C234 3930   3.813   0.906   2.282  0.1966  0.7498  0.4478
    9MOL   O235 3931   3.886   1.021   2.256 -0.9658  0.2726 -0.3706
    9MOL   C236 3932   3.953   1.019   2.139  0.9402 -0.1835  0.0922
    9MOL   O237 3933   3.942   0.934   2.051  0.0553 -0.2367 -0.6429
    9MOL   C238 3934   4.040   1.140   2.124 -0.5296  0.3703 -0.7034
    9MOL   C239 3935   4.068   1.222   2.240  0.1197 -0.0589  0.1596
    9MOL   C240 3936   4.162   1.326   2.228 -0.2056  0.7185  0.5506
    9MOL   C241 3937   4.218   1.354   2.097  0.1312 -0.2330  0.5213
    9MOL   C242 3938   4.324   1.460   2.088 -0.3555  0.0864  0.4689
    9MOL   O243 3939   4.388   1.477   1.987 -0.4492  0.0551  0.0342
    9MOL   O244 3940   4.339   1.520   2.212  0.7299  0.0855 -0.5857
    9MOL   C245 3941   4.176   1.280   1.986 -0.0238  0.5765  0.6197
    9MOL   C246 3942   4.086   1.173   1.997  0.3404 -0.0249 -0.3788
    9MOL   H247 3943   4.007   0.790   2.336  0.7914 -0.5224 -4.5798
    9MOL   H248 3944   3.860   0.693   2.291  0.9604  0.3043  0.8720
    9MOL   H249 3945   3.736   0.933   2.354 -0.7048  0.3115 -0.3446
    9MOL   H250 3946   3.756   0.888   2.191  1.5568  2.8174 -0.8513
    9MOL   H251 3947   4.025   1.196   2.336 -0.7369  2.3341  0.4595
    9MOL   H252 3948   4.170   1.385   2.318 -0.4282 -2.6747  2.8689
    9MOL   H253 3949   4.220   1.306   1.891 -1.1872  0.7983  0.1275
    9MOL   H254 3950   4.067   1.119   1.906 -1.9676  0.3082 -0.1319
    9MOL   O255 3951   4.439   1.639   2.221 -0.3274 -0.1269 -0.6781
    9MOL   C256 3952   4.562   1.588   2.262  0.4268 -0.4796 -0.4284
    9MOL   C257 3953   4.659   1.701   2.247 -0.2162  1.4080  0.0543
    9MOL   O258 3954   4.690   1.704   2.108 -0.0912 -0.2544 -0.1392
    9MOL   C259 3955   4.798   1.635   2.058  0.6155 -0.1924  0.0743
    9MOL   O260 3956   4.886   1.569   2.125  0.9383  0.2082  0.0020
    9MOL   C261 3957   4.795   1.655   1.908  0.2571 -0.1342  0.1112
    9MOL   C262 3958   4.682   1.710   1.841 -0.8516 -0.0192 -0.1350
    9MOL   C263 3959   4.671   1.713   1.699  0.4031 -0.1047 -0.1776
    9MOL   C264 3960   4.780   1.667   1.617  0.5458 -0.1041 -0.0904
    9MOL   C265 3961   4.773   1.673   1.468 -0.4608 -0.0651 -0.9319
    9MOL   O266 3962   4.846   1.605   1.393  0.1885  0.2417 -0.0333
    9MOL   O267 3963   4.682   1.776   1.431  0.3604 -0.3004 -0.4907
    9MOL   C268 3964   4.891   1.617   1.681  0.0662 -0.2178  0.5284
    9MOL   C269 3965   4.905   1.618   1.825 -0.3158  0.0189  0.0766
    9MOL   H270 3966   4.562   1.557   2.367  1.0780  2.8217  0.5896
    9MOL   H271 3967   4.593   1.494   2.216  1.0866 -0.5930  0.2242
    9MOL   H272 3968   4.735   1.682   2.323 -1.0822  0.8412  0.7865
    9MOL   H273 3969   4.612   1.795   2.273  1.5090  2.1569  0.5460
    9MOL   H274 3970   4.598   1.745   1.899 -2.3954  0.0300 -2.3535
    9MOL   H275 3971   4.577   1.739   1.652  0.2336 -2.4773 -1.1854
    9MOL   H276 3972   4.978   1.593   1.622  0.6523  0.8945  0.9204
    9MOL   H277 3973   4.999   1.577   1.860 -0.2806 -2.2474 -2.4960
    9MOL   O278 3974   4.664   1.787   1.280 -0.2411  0.4238 -0.0279
    9MOL   C279 3975   4.539   1.733   1.239  0.1473 -0.4209 -0.2144
    9MOL   C280 3976   4.562   1.613   1.149 -0.7017  0.3039  0.4556
    9MOL   O281 3977   4.574   1.497   1.229 -0.2172  0.1933 -0.0927
    9MOL   C282 3978   4.618   1.388   1.171 -0.5372  0.7178  0.3821
    9MOL   O283 3979   4.637   1.377   1.049 -0.2565  0.2942 -0.5651
    9MOL   C284 3980   4.612   1.268   1.258 -0.0954 -0.1978 -0.1931
    9MOL   C285 3981   4.725   1.183   1.260 -0.5591  0.0418 -0.0030
    9MOL   C286 3982   4.708   1.057   1.322  0.9647  0.1221  0.3357
    9MOL   C287 3983   4.591   1.022   1.389  0.3143  0.0481  0.4484
    9MOL   C288 3984   4.577   0.901   1.468 -0.6014  0.6011 -0.0582
    9MOL   O289 3985   4.623   0.795   1.436 -0.5232 -0.2880 -0.0183
    9MOL   O290 3986   4.492   0.915   1.574 -0.1140  0.0463  0.1563
    9MOL   C291 3987   4.482   1.106   1.377  0.2636  0.3857  0.9551
    9MOL   C292 3988   4.493   1.230   1.316 -0.0054  0.2160 -0.0193
    9MOL   H293 3989   4.480   1.719   1.329  2.0168  0.4022  1.1705
    9MOL   H294 3990   4.511   1.827   1.190 -0.4679 -0.1920  0.5779
    9MOL   H295 3991   4.650   1.617   1.086 -1.3291  1.9051 -0.3327
    9MOL   H296 3992   4.472   1.601   1.089  0.8850  0.1915 -1.9509
    9MOL   H297 3993   4.814   1.216   1.208 -1.0576 -1.9175 -2.1812
    9MOL   H298 3994   4.797   0.997   1.337  1.6148  0.9925  0.0437
    9MOL   H299 3995   4.382   1.086   1.411 -0.8909 -1.8343 -3.3488
    9MOL   H300 3996   4.405   1.291   1.303  0.7422  1.1837 -0.6457
    9MOL   O301 3997   4.463   0.788   1.654 -0.2317 -0.1881 -0.2090
    9MOL   C302 3998   4.326   0.749   1.641 -0.2410 -0.1079  0.0650
    9MOL   C303 3999   4.247   0.818   1.751  0.6348 -0.0313 -0.1189
    9MOL   O304 4000   4.147   0.913   1.700  0.0742  0.4738 -0.2406
    9MOL   C305 4001   4.181   1.034   1.681 -0.3749 -0.1128  0.6821
    9MOL   O306 4002   4.293   1.083   1.697 -0.1333  0.3741  0.4354
    9MOL   C307 4003   4.060   1.116   1.647  0.7047 -0.4204  0.4155
    9MOL   C308 4004   4.067   1.250   1.604 -0.1338  0.2673 -0.2826
    9MOL   C309 4005   3.954   1.330   1.577 -0.1429 -0.5285 -0.2282
    9MOL   C310 4006   3.826   1.271   1.588 -1.0566  0.0589  0.1613
    9MOL   C311 4007   3.705   1.355   1.570 -0.5466  0.5119 -0.5970
    9MOL   O312 4008   3.592   1.303   1.577 -0.3282  0.1364 -0.7294
    9MOL   O313 4009   3.721   1.480   1.537 -0.6899 -0.1769  0.1731
    9MOL   C314 4010   3.810   1.130   1.617  0.5324  0.2439 -0.7984
    9MOL   C315 4011   3.927   1.055   1.639 -0.5117 -0.0895  0.0958
    9MOL   H316 4012   4.289   0.783   1.544 -1.0872  1.8774  1.0677
    9MOL   H317 4013   4.319   0.640   1.633  0.1606 -0.1118 -0.2650
    9MOL   H318 4014   4.317   0.849   1.829  1.4767 -1.9216 -0.0945
    9MOL   H319 4015   4.198   0.731   1.795  0.2375  0.2429 -0.0054
    9MOL   H320 4016   4.161   1.305   1.608  0.6175 -0.7646 -3.0834
    9MOL   H321 4017   3.961   1.433   1.545  2.7283  0.0156  1.8857
    9MOL   H322 4018   3.715   1.081   1.627  1.0563 -0.5755  0.2528
    9MOL   H323 4019   3.919   0.948   1.654 -0.4820 -0.0314  0.5466
    9MOL   O324 4020   3.601   1.560   1.507 -0.3981 -0.2627  0.5883
    9MOL   C325 4021   3.573   1.637   1.623  0.2261 -0.4397 -1.4074
    9MOL   C326 4022   3.461   1.739   1.608 -0.5945 -0.1058 -0.6550
    9MOL   O327 4023   3.499   1.870   1.569 -0.0436  0.0118 -0.0874
    9MOL   C328 4024   3.517   1.957   1.674  0.1544 -0.0825  0.3431
    9MOL   O329 4025   3.499   1.931   1.792 -0.0020  0.0382 -0.4346
    9MOL   C330 4026   3.562   2.090   1.620 -0.5623  0.4981 -0.6582
    9MOL   C331 4027   3.589   2.112   1.477 -0.0228  0.2982 -1.2776
    9MOL   C332 4028   3.642   2.235   1.434  0.9403 -0.3824 -0.3638
    9MOL   C333 4029   3.675   2.338   1.528 -0.3062 -0.2129 -0.4803
    9MOL   C334 4030   3.722   2.470   1.486 -0.5873 -0.6373  0.4112
    9MOL   O335 4031   3.732   2.562   1.564 -0.2966 -0.2204 -0.7008
    9MOL   O336 4032   3.744   2.485   1.355  0.3186 -0.4933 -0.2186
    9MOL   C337 4033   3.640   2.318   1.666 -0.3209  0.3450  0.4743
    9MOL   C338 4034   3.587   2.195   1.709 -0.0560  0.1320 -0.0744
    9MOL   H339 4035   3.534   1.570   1.700 -1.6948  0.3413 -1.6646
    9MOL   H340 4036   3.663   1.677   1.669 -0.5021  0.2430 -0.5504
    9MOL   H341 4037   3.402   1.737   1.700  1.9913 -0.6939  1.0654
    9MOL   H342 4038   3.396   1.703   1.529 -0.7031  0.6693 -0.9275
    9MOL   H343 4039   3.564   2.039   1.401 -2.4838 -0.9156  0.6456
    9MOL   H344 4040   3.645   2.264   1.329  0.0331  0.1791 -0.2395
    9MOL   H345 4041   3.645   2.403   1.731  2.7713  0.6406 -0.0455
    9MOL   H346 4042   3.569   2.179   1.814  0.7346 -2.5850 -0.2932
    9MOL   O347 4043   3.761   2.629   1.303  0.4363 -0.6716 -0.1837
    9MOL   C348 4044   3.634   2.674   1.261  0.3716  1.0170 -0.5914
    9MOL   C349 4045   3.644   2.772   1.135  0.0378  0.1762  1.4617
    9MOL   O350 4046   3.516   2.797   1.085 -0.1140  0.6594 -0.3668
    9MOL   C351 4047   3.448   2.914   1.119 -0.2028  0.4641  0.0748
    9MOL   O352 4048   3.488   2.981   1.215  0.0271  0.3305  0.4570
    9MOL   C353 4049   3.326   2.941   1.034  0.5665 -0.1868  0.4436
    9MOL   C354 4050   3.245   3.052   1.050  0.2539  0.1403 -0.0759
    9MOL   C355 4051   3.134   3.081   0.966  0.4715  0.6072  0.0262
    9MOL   C356 4052   3.108   2.993   0.859  0.8369  0.2037  0.5762
    9MOL   C357 4053   2.988   3.025   0.771 -0.2759  0.2346 -0.7034
    9MOL   O358 4054   2.939   3.141   0.761 -0.0922  0.1871  1.0625
    9MOL   O359 4055   2.943   2.914   0.709 -0.1057  0.2148  0.4875
    9MOL   C360 4056   3.184   2.877   0.843 -0.3404  0.1023 -0.3819
    9MOL   C361 4057   3.299   2.862   0.924  0.0458  0.1744  1.0703
    9MOL   H362 4058   3.569   2.590   1.236 -0.4505  0.6121  2.6900
    9MOL   H363 4059   3.589   2.724   1.347  0.6996  0.4028 -0.0593
    9MOL   H364 4060   3.692   2.713   1.057  0.7980  1.6248  0.8296
    9MOL   H365 4061   3.697   2.865   1.153  1.6914 -0.4620 -0.0038
    9MOL   H366 4062   3.255   3.112   1.139 -2.4816  0.0228  0.3562
    9MOL   H367 4063   3.063   3.159   0.990  1.4273  1.5954 -0.3339
    9MOL   H368 4064   3.161   2.799   0.771  0.6225  1.2556 -1.9638
    9MOL   H369 4065   3.355   2.770   0.913 -1.7469 -0.9285  1.0335
    9MOL   O370 4066   2.855   2.945   0.591 -0.7291  0.4003 -0.2420
    9MOL   C371 4067   2.938   2.942   0.468 -0.6518 -0.0498 -0.4211
    9MOL   C372 4068   2.990   2.799   0.440  0.4875  0.3409  0.3153
    9MOL   O373 4069   3.121   2.777   0.490 -0.0544 -0.4034 -0.1419
    9MOL   C374 4070   3.162   2.650   0.506  0.0544  0.4084 -0.3191
    9MOL   O375 4071   3.108   2.552   0.462  0.4980 -0.4073 -0.2701
    9MOL   C376 4072   3.290   2.639   0.586  0.0101  0.1581 -0.5427
    9MOL   C377 4073   3.312   2.522   0.664  0.2101  0.7698  0.2696
    9MOL   C378 4074   3.425   2.506   0.751 -0.1063  0.3585 -0.1432
    9MOL   C379 4075   3.527   2.609   0.755 -0.6088  0.4372  0.1687
    9MOL   C380 4076   3.663   2.581   0.811 -0.5589  0.7258 -0.2445
    9MOL   O381 4077   3.739   2.675   0.832 -0.2087  0.0206 -0.0518
    9MOL   O382 4078   3.684   2.447   0.831  0.2223 -0.1081  0.4035
    9MOL   C383 4079   3.499   2.732   0.685  0.4147  0.1093 -0.4740
    9MOL   C384 4080   3.380   2.748   0.609  0.3977  0.1974 -0.3476
    9MOL   H385 4081   2.867   2.966   0.389  1.2882  1.9484 -1.6074
    9MOL   H386 4082   3.017   3.017   0.460 -1.0272  0.3299 -0.5982
    9MOL   H387 4083   2.978   2.785   0.332  0.9365  0.7577  0.2128
    9MOL   H388 4084   2.917   2.733   0.487 -1.2018  1.3681 -0.7660
    9MOL   H389 4085   3.250   2.436   0.644  0.3407  0.8616 -0.5680
    9MOL   H390 4086   3.448   2.418   0.809 -0.3961 -1.3825 -2.5703
    9MOL   H391 4087   3.572   2.812   0.685 -1.0185  1.4395 -0.7355
    9MOL   H392 4088   3.365   2.841   0.557  2.4014  1.2749  0.9217
    9MOL   O393 4089   3.831   2.408   0.858  0.1999  0.3902 -0.2648
    9MOL   C394 4090   3.838   2.383   1.001  0.2133  0.4028  0.8871
    9MOL   C395 4091   3.956   2.279   1.013  0.2292  0.3887  0.4145
    9MOL   O396 4092   3.908   2.159   0.950 -0.4090 -0.2478  0.4492
    9MOL   C397 4093   3.905   2.040   1.000 -0.0723  0.1571 -0.2152
    9MOL   O398 4094   3.943   2.014   1.112 -0.0861  0.3946 -0.1131
    9MOL   C399 4095   3.866   1.938   0.899  0.4876  0.0282 -0.6658
    9MOL   C400 4096   3.921   1.808   0.898  0.1389 -0.0941 -0.4557
    9MOL   C401 4097   3.900   1.715   0.794  0.0133 -0.2791  0.9314
    9MOL   C402 4098   3.806   1.750   0.696 -0.3545 -0.3973 -0.0764
    9MOL   C403 4099   3.767   1.638   0.604 -0.0326 -0.5575  0.6364
    9MOL   O404 4100   3.817   1.528   0.602 -0.0759 -0.4043 -0.3856
    9MOL   O405 4101   3.661   1.662   0.524  0.0195  0.2304  0.5061
    9MOL   C406 4102   3.740   1.871   0.698  0.2340  0.0913 -0.1567
    9MOL   C407 4103   3.776   1.969   0.793 -0.2741  0.0507  0.4758
    9MOL   H408 4104   3.865   2.471   1.059  2.3498  0.3303  0.0513
    9MOL   H409 4105   3.747   2.335   1.037  0.8385 -1.8574 -0.4120
    9MOL   H410 4106   3.984   2.256   1.116  2.6510 -0.8765 -0.4839
    9MOL   H411 4107   4.047   2.318   0.968  0.5293  1.1024  1.6186
    9MOL   H412 4108   3.989   1.790   0.980  0.0414  2.6298  0.2644
    9MOL   H413 4109   3.933   1.612   0.784 -3.6340 -1.6198  1.7038
    9MOL   H414 4110   3.676   1.892   0.614  0.9944 -0.4339 -0.8766
    9MOL   H415 4111   3.730   2.066   0.783  0.6776  0.2759 -2.2818
    9MOL   O416 4112   3.642   1.560   0.421 -0.0731 -0.4332 -0.1027
    9MOL   C417 4113   3.699   1.609   0.303 -1.3535  0.0800  0.0873
    9MOL   C418 4114   3.851   1.571   0.271  1.1094 -0.0450  0.4661
    9MOL   O419 4115   3.928   1.663   0.342 -0.3021 -0.1539  0.2069
    9MOL   C420 4116   4.058   1.657   0.326 -0.4832 -0.4818  0.1178
    9MOL   O421 4117   4.113   1.567   0.267  0.1527  0.1091  0.4599
    9MOL   C422 4118   4.126   1.770   0.383  0.2215 -0.3724 -0.2107
    9MOL   C423 4119   4.073   1.846   0.493 -0.4014  0.3764 -0.0698
    9MOL   C424 4120   4.144   1.951   0.553  0.3890 -0.2287  0.5691
    9MOL   C425 4121   4.284   1.957   0.536  0.2726  0.2716 -0.1811
    9MOL   C426 4122   4.364   2.045   0.622 -0.0155 -0.2537 -0.2334
    9MOL   O427 4123   4.322   2.114   0.715 -0.1875 -0.0954 -0.4881
    9MOL   O428 4124   4.491   2.058   0.569 -0.1240  0.2322 -0.3058
    9MOL   C429 4125   4.341   1.867   0.442 -0.6386  0.2647  0.1301
    9MOL   C430 4126   4.264   1.783   0.359 -0.3597  0.4930 -0.7734
    9MOL   H431 4127   3.645   1.550   0.229 -1.0228  1.2578 -1.1020
    9MOL   H432 4128   3.677   1.715   0.298 -1.6420  0.0454  0.5583
    9MOL   H433 4129   3.861   1.580   0.163  0.6655 -1.4249  0.2969
    9MOL   H434 4130   3.875   1.465   0.281  0.4808 -0.3222 -0.8252
    9MOL   H435 4131   3.968   1.846   0.519 -0.7436 -1.0208 -1.3730
    9MOL   H436 4132   4.090   2.014   0.621 -0.4002  1.1141 -1.2650
    9MOL   H437 4133   4.443   1.877   0.410  0.1955 -1.3879  2.2056
    9MOL   H438 4134   4.308   1.747   0.267  0.4696  1.5757 -0.8152
    9MOL   O439 4135   4.594   2.075   0.678  0.0765  0.0686  0.0376
    9MOL   C440 4136   4.641   2.212   0.672 -0.5795 -0.1461  0.0621
    9MOL   C441 4137   4.745   2.242   0.776 -0.1804 -0.0744  0.2674
    9MOL   O442 4138   4.801   2.378   0.767  0.0720  0.2376 -0.4416
    9MOL   C443 4139   4.902   2.414   0.838 -0.3781  0.0929 -0.4027
    9MOL   O444 4140   4.964   2.329   0.906  0.2573  0.4636 -0.1735
    9MOL   C445 4141   4.924   2.557   0.836 -0.8649 -0.7264 -0.3328
    9MOL   C446 4142   5.021   2.619   0.923 -0.0616 -0.2659  0.2549
    9MOL   C447 4143   5.036   2.758   0.942 -0.3545 -0.2682  0.2259
    9MOL   C448 4144   4.946   2.842   0.872  0.1488 -0.3260  0.6104
    9MOL   C449 4145   4.964   2.987   0.882  0.0826 -0.0946  0.1087
    9MOL   O450 4146   4.977   3.042   0.988 -0.3415  0.0125  0.6343
    9MOL   O451 4147   4.953   3.050   0.755  0.2212  0.0050  0.1615
    9MOL   C452 4148   4.850   2.787   0.780  0.1158 -0.0498  0.2241
    9MOL   C453 4149   4.835   2.648   0.766 -1.0987 -0.1087 -0.3370
    9MOL   H454 4150   4.677   2.235   0.571 -3.4477  0.6058 -0.8491
    9MOL   H455 4151   4.552   2.272   0.694 -1.3794 -1.6784  1.0864
    9MOL   H456 4152   4.825   2.168   0.773 -0.7903 -0.7441  0.5931
    9MOL   H457 4153   4.704   2.232   0.877  1.2243  0.8175  0.9404
    9MOL   H458 4154   5.088   2.550   0.972 -0.3050 -0.8662 -0.2412
    9MOL   H459 4155   5.103   2.797   1.017 -0.0254 -0.3851 -0.0069
    9MOL   H460 4156   4.785   2.863   0.740  3.8349  2.8912 -0.5421
    9MOL   H461 4157   4.755   2.605   0.707 -1.3344  1.3261 -1.0816
    9MOL   H462 4158   4.944   3.143   0.764  0.3580 -0.0850  1.2525
   10MOL     O1 4159   3.539   7.776   8.206 -0.3899  0.5157 -0.1657
   10MOL     C2 4160   3.643   7.679   8.205  0.7630 -0.4053 -0.4274
   10MOL     C3 4161   3.615   7.581   0.053  0.1755  0.7271  0.1728
   10MOL     O4 4162   3.681   7.635   0.167 -0.0275  0.8082 -0.3986
   10MOL     C5 4163   3.597   7.705   0.251 -0.4689 -0.3032  0.3290
   10MOL     O6 4164   3.480   7.729   0.220  0.0011 -0.0640 -0.3991
   10MOL     C7 4165   3.664   7.751   0.375  0.3195  0.0757  0.2885
   10MOL     C8 4166   3.623   7.868   0.440  0.5137  0.2996  0.3064
   10MOL     C9 4167   3.672   7.904   0.566  0.0212 -0.1126  1.0496
   10MOL    C10 4168   3.773   7.826   0.636  0.0717 -0.2895 -0.0669
   10MOL    C11 4169   3.815   7.855   0.778 -0.1229 -0.1429  0.2187
   10MOL    O12 4170   3.918   7.819   0.828  0.0915 -0.0130  0.0893
   10MOL    O13 4171   3.721   7.918   0.855 -0.4567  0.2364  0.8391
   10MOL    C14 4172   3.813   7.708   0.572 -0.2065  0.3740 -0.3233
   10MOL    C15 4173   3.766   7.673   0.441  0.1388 -1.1380  0.4692
   10MOL    H16 4174   3.641   7.632   8.107  0.8457 -0.3942 -0.4348
   10MOL    H17 4175   3.740   7.730   8.214  0.8515 -0.3770 -1.5663
   10MOL    H18 4176   3.675   7.492   0.034  0.3685  1.1049 -1.0089
   10MOL    H19 4177   3.513   7.549   0.070 -0.1224  1.2596 -0.5920
   10MOL    H20 4178   3.549   7.936   0.400  1.8557  1.6501  0.0606
   10MOL    H21 4179   3.641   7.992   0.620  1.2138  0.0532  1.4687
   10MOL    H22 4180   3.875   7.643   0.632 -1.8946 -1.2307 -0.2806
   10MOL    H23 4181   3.789   7.578   0.395  0.0379 -0.3034 -1.3239
   10MOL    H24 4182   3.464   7.738   8.250 -0.8694 -1.0571 -2.2982
   10MOL    O25 4183   3.738   7.895   1.004 -0.1277  0.1257  0.8220
   10MOL    C26 4184   3.624   7.824   1.049 -0.1906 -0.4662 -0.2793
   10MOL    C27 4185   3.596   7.685   0.971  0.2882 -0.0353  0.2245
   10MOL    O28 4186   3.688   7.586   1.000 -0.8275 -0.3490  0.7005
   10MOL    C29 4187   3.730   7.504   0.904  0.4362 -0.1035 -0.1499
   10MOL    O30 4188   3.696   7.503   0.788 -0.0082  0.0005  0.0450
   10MOL    C31 4189   3.826   7.397   0.954 -0.7731  0.3668 -0.2213
   10MOL    C32 4190   3.848   7.388   1.094 -0.2003 -1.1047  0.1979
   10MOL    C33 4191   3.932   7.296   1.158 -0.3371 -0.7155  0.5269
   10MOL    C34 4192   4.001   7.204   1.073  0.1815  0.0385  0.1457
   10MOL    C35 4193   4.096   7.101   1.129  0.1700  0.4563  0.1745
   10MOL    O36 4194   4.131   7.097   1.247  0.1002 -0.9217  0.3896
   10MOL    O37 4195   4.129   7.002   1.042 -0.1427 -0.3979  0.6588
   10MOL    C38 4196   3.983   7.213   0.930  0.3799  0.0451  0.5440
   10MOL    C39 4197   3.898   7.310   0.866 -0.1369 -0.3061  0.0636
   10MOL    H40 4198   3.653   7.785   1.147 -2.4673 -2.3921 -0.3201
   10MOL    H41 4199   3.532   7.882   1.057 -0.1965 -0.4028 -0.8085
   10MOL    H42 4200   3.583   7.712   0.866 -1.1125  0.7149  0.5684
   10MOL    H43 4201   3.496   7.643   0.986 -1.1081  2.5480 -1.4406
   10MOL    H44 4202   3.798   7.457   1.161  0.4220  0.9164 -1.3661
   10MOL    H45 4203   3.947   7.297   1.265  0.5768  0.3276  0.3971
   10MOL    H46 4204   4.051   7.152   0.871 -0.2642  1.2698 -1.5362
   10MOL    H47 4205   3.894   7.324   0.759 -0.9426  0.6942  0.2124
   10MOL    O48 4206   4.203   6.886   1.102 -0.2354  0.3818  0.3717
   10MOL    C49 4207   4.346   6.920   1.100 -0.6131  0.1548  0.0581
   10MOL    C50 4208   4.418   6.784   1.077  0.4446  0.4373  0.5959
   10MOL    O51 4209   4.395   6.738   0.948 -0.2817 -0.6021 -0.7212
   10MOL    C52 4210   4.493   6.756   0.852  0.2481  0.1132  0.5929
   10MOL    O53 4211   4.597   6.811   0.870  0.0744  0.0353 -0.1067
   10MOL    C54 4212   4.466   6.688   0.728  0.0865 -0.1568  0.0090
   10MOL    C55 4213   4.332   6.661   0.682  0.4157 -0.0332 -0.4925
   10MOL    C56 4214   4.303   6.610   0.555  0.4747 -0.2338  0.9455
   10MOL    C57 4215   4.409   6.573   0.465 -0.7876 -0.7154 -0.1401
   10MOL    C58 4216   4.381   6.497   0.335  0.2934  0.3095  0.0430
   10MOL    O59 4217   4.456   6.495   0.234  0.6644  0.0010 -0.5655
   10MOL    O60 4218   4.268   6.422   0.332  0.4785  0.4262 -0.2090
   10MOL    C61 4219   4.545   6.606   0.508 -0.1855 -0.0299  0.4839
   10MOL    C62 4220   4.573   6.661   0.634  0.2165  0.4882  0.1674
   10MOL    H63 4221   4.376   6.996   1.028  0.8663  0.3050  0.8263
   10MOL    H64 4222   4.361   6.970   1.196  2.3046 -0.9688  0.2538
   10MOL    H65 4223   4.387   6.702   1.141 -1.1426  0.6293  0.0826
   10MOL    H66 4224   4.523   6.800   1.105  1.0899  0.3551 -1.6543
   10MOL    H67 4225   4.255   6.684   0.754 -1.2611 -3.2315 -1.1695
   10MOL    H68 4226   4.198   6.588   0.541  0.8558 -1.6424  0.1469
   10MOL    H69 4227   4.624   6.585   0.438 -2.0269 -1.0350 -1.3388
   10MOL    H70 4228   4.676   6.682   0.658  0.2733  2.4281 -1.6685
   10MOL    O71 4229   4.258   6.320   0.230  0.0704 -0.2993  0.0440
   10MOL    C72 4230   4.196   6.382   0.122 -0.3266 -0.2667  0.0180
   10MOL    C73 4231   4.146   6.271   0.028  0.3581 -0.0825  0.3244
   10MOL    O74 4232   4.102   6.321   8.180  0.2382  0.5245  0.2922
   10MOL    C75 4233   3.967   6.341   8.165  0.8464 -0.5000  0.0032
   10MOL    O76 4234   3.887   6.324   8.255 -0.4144 -0.1544  0.1882
   10MOL    C77 4235   3.933   6.371   8.024  1.0846 -0.5075 -0.8247
   10MOL    C78 4236   3.800   6.405   7.997 -0.6036 -0.6568  0.0310
   10MOL    C79 4237   3.764   6.432   7.864  0.4478 -0.1591 -0.5140
   10MOL    C80 4238   3.861   6.428   7.761  0.0519  0.5348  0.2017
   10MOL    C81 4239   3.808   6.423   7.616  0.5237 -0.3528 -0.4615
   10MOL    O82 4240   3.867   6.350   7.540 -0.8070 -0.3164  0.2893
   10MOL    O83 4241   3.698   6.500   7.596 -0.2660  0.0654  0.1906
   10MOL    C84 4242   3.997   6.409   7.793  0.3524  0.0988 -0.2984
   10MOL    C85 4243   4.030   6.384   7.926 -0.5768  0.7426  0.3535
   10MOL    H86 4244   4.115   6.441   0.165  1.3807  0.0853  2.8165
   10MOL    H87 4245   4.261   6.447   0.064 -2.7188  1.0055 -1.3604
   10MOL    H88 4246   4.075   6.204   0.078 -0.3733 -0.2921 -0.9544
   10MOL    H89 4247   4.225   6.201   0.003  1.8917  1.0863  1.8308
   10MOL    H90 4248   3.724   6.394   8.073  1.5368 -0.9495  2.1770
   10MOL    H91 4249   3.657   6.442   7.852  0.6086  2.2635 -0.1825
   10MOL    H92 4250   4.074   6.402   7.717 -0.8284  0.7022 -1.5784
   10MOL    H93 4251   4.135   6.368   7.942 -0.5353 -0.1416 -0.7419
   10MOL    O94 4252   3.640   6.488   7.455 -0.0679 -0.0743  0.1471
   10MOL    C95 4253   3.558   6.369   7.446 -0.2871 -0.1369  0.1335
   10MOL    C96 4254   3.456   6.382   7.335  0.4540  0.3058  0.7334
   10MOL    O97 4255   3.377   6.269   7.340  0.5802 -0.3631 -0.5340
   10MOL    C98 4256   3.294   6.241   7.242  0.0039  0.4253  0.6794
   10MOL    O99 4257   3.283   6.302   7.141  0.3489  0.4508 -0.2228
   10MOL   C100 4258   3.219   6.120   7.268  0.1378  0.2539 -0.2549
   10MOL   C101 4259   3.279   6.007   7.324  0.0414 -0.5586  0.0142
   10MOL   C102 4260   3.209   5.896   7.372 -0.9057  0.0827  0.0574
   10MOL   C103 4261   3.070   5.890   7.362  0.6066 -0.5321  0.6445
   10MOL   C104 4262   2.989   5.783   7.430 -0.0884 -0.2706  0.6641
   10MOL   O105 4263   2.864   5.778   7.436 -0.0821  0.1631 -0.6283
   10MOL   O106 4264   3.065   5.710   7.512 -0.1178  0.7736 -0.0043
   10MOL   C107 4265   3.006   6.004   7.302  0.1433 -0.8385  0.4155
   10MOL   C108 4266   3.082   6.117   7.254  0.0189  0.0025 -0.0855
   10MOL   H109 4267   3.629   6.287   7.429  0.7043  0.7537 -0.0698
   10MOL   H110 4268   3.511   6.351   7.542  0.0611 -2.5406 -0.1039
   10MOL   H111 4269   3.496   6.394   7.234 -1.1584  0.4852  0.1048
   10MOL   H112 4270   3.393   6.467   7.360 -0.6651 -0.4976  0.6823
   10MOL   H113 4271   3.386   5.993   7.320  0.0521 -0.0279 -2.1111
   10MOL   H114 4272   3.258   5.816   7.426 -1.1244 -0.3256 -0.3454
   10MOL   H115 4273   2.899   6.012   7.294  0.2256 -0.0441 -0.0028
   10MOL   H116 4274   3.031   6.202   7.210  0.6592  1.1541  1.3458
   10MOL   O117 4275   2.984   5.655   7.630 -0.0930 -0.2022  0.0544
   10MOL   C118 4276   2.932   5.526   7.601  0.8528 -0.4015 -0.6745
   10MOL   C119 4277   2.846   5.483   7.714  0.4217  0.3377 -0.1689
   10MOL   O120 4278   2.733   5.566   7.740 -0.2037 -0.1328 -0.0708
   10MOL   C121 4279   2.746   5.664   7.831  0.3576  0.8124 -1.1510
   10MOL   O122 4280   2.840   5.671   7.911 -0.3831 -0.0436  0.3067
   10MOL   C123 4281   2.639   5.768   7.820  0.1202 -0.3421  0.1201
   10MOL   C124 4282   2.515   5.732   7.771  0.0268 -0.5934  0.2090
   10MOL   C125 4283   2.414   5.825   7.751  0.5162  0.2529  0.4633
   10MOL   C126 4284   2.437   5.959   7.778  0.2553 -0.5691 -0.1444
   10MOL   C127 4285   2.332   6.057   7.744 -0.0275 -0.2809 -1.1033
   10MOL   O128 4286   2.222   6.034   7.705 -0.0252 -0.3683  0.2602
   10MOL   O129 4287   2.367   6.185   7.782  0.3095  0.0473 -0.2603
   10MOL   C130 4288   2.559   6.000   7.836  0.2732 -0.1278 -0.0559
   10MOL   C131 4289   2.657   5.900   7.866  0.6261  0.0855  0.2854
   10MOL   H132 4290   2.864   5.522   7.515  0.9846  0.5450 -0.8363
   10MOL   H133 4291   3.009   5.449   7.594 -0.1194 -1.5279  0.7350
   10MOL   H134 4292   2.914   5.465   7.797  2.3183 -1.3851 -2.0143
   10MOL   H135 4293   2.802   5.388   7.682  0.5706 -0.0091  0.6589
   10MOL   H136 4294   2.491   5.635   7.730  1.7376 -0.1414 -2.0089
   10MOL   H137 4295   2.321   5.796   7.705 -0.3046  1.0666  1.6014
   10MOL   H138 4296   2.583   6.101   7.865 -1.0161  0.0754  0.3231
   10MOL   H139 4297   2.753   5.929   7.905  0.9574 -0.8847  0.1981
   10MOL   O140 4298   2.257   6.284   7.773 -0.4105  0.6045  0.0799
   10MOL   C141 4299   2.303   6.372   7.671  0.1721  0.2053 -0.1895
   10MOL   C142 4300   2.187   6.462   7.626  0.0585  0.2463  0.4851
   10MOL   O143 4301   2.216   6.518   7.503  0.2616  0.2137  0.0478
   10MOL   C144 4302   2.283   6.641   7.498  0.5846  0.0716 -0.7166
   10MOL   O145 4303   2.338   6.678   7.600  0.1907 -0.2316  0.2970
   10MOL   C146 4304   2.292   6.715   7.369  0.4082  0.5384  0.5657
   10MOL   C147 4305   2.214   6.679   7.260  0.0234 -0.2945 -0.3815
   10MOL   C148 4306   2.225   6.751   7.137  0.2587 -0.5647 -0.6331
   10MOL   C149 4307   2.323   6.853   7.125  0.1765  0.0780  0.4465
   10MOL   C150 4308   2.336   6.911   6.982  0.4680  0.2238  0.2333
   10MOL   O151 4309   2.279   6.874   6.877  0.3326 -0.0694 -0.1697
   10MOL   O152 4310   2.422   7.016   6.978 -0.0638 -0.4096  0.3958
   10MOL   C153 4311   2.398   6.893   7.235  0.3142  0.0254 -0.1338
   10MOL   C154 4312   2.381   6.827   7.359  0.5597  0.4708 -0.0409
   10MOL   H155 4313   2.388   6.428   7.710  0.1639  0.5711 -0.6940
   10MOL   H156 4314   2.339   6.316   7.585 -1.7746  1.7389 -2.0401
   10MOL   H157 4315   2.171   6.536   7.704  0.1884  1.4066 -0.5731
   10MOL   H158 4316   2.101   6.395   7.626  0.0678  0.2319  1.1263
   10MOL   H159 4317   2.146   6.595   7.261 -0.0928 -0.2645 -2.6515
   10MOL   H160 4318   2.166   6.717   7.054 -1.5878  1.5500 -0.2183
   10MOL   H161 4319   2.470   6.972   7.223  1.4108 -0.9593 -0.1393
   10MOL   H162 4320   2.430   6.871   7.445  0.2964  0.6530  0.0184
   10MOL   O163 4321   2.459   7.058   6.835  0.5928 -0.4217  0.2834
   10MOL   C164 4322   2.593   7.010   6.810 -0.2848 -0.4121  0.2952
   10MOL   C165 4323   2.660   7.050   6.674 -0.0938  0.4382 -0.2831
   10MOL   O166 4324   2.606   6.968   6.569 -0.4227 -0.3331  0.8000
   10MOL   C167 4325   2.640   6.833   6.559  0.6084 -0.0664 -0.3002
   10MOL   O168 4326   2.717   6.773   6.629 -0.4528 -0.2957 -0.2366
   10MOL   C169 4327   2.558   6.769   6.456  0.2282  0.4959  0.0078
   10MOL   C170 4328   2.570   6.628   6.440  0.3814  0.3389 -0.0526
   10MOL   C171 4329   2.478   6.547   6.368 -0.1488 -0.7666  0.2584
   10MOL   C172 4330   2.379   6.613   6.293  0.8709  0.6016 -0.6212
   10MOL   C173 4331   2.299   6.531   6.191 -0.2458 -0.5868  0.1646
   10MOL   O174 4332   2.305   6.408   6.194  0.3716 -0.4840 -0.0453
   10MOL   O175 4333   2.229   6.606   6.093  0.0509  0.1326 -0.3721
   10MOL   C176 4334   2.375   6.758   6.301 -0.3023 -0.9039 -0.3721
   10MOL   C177 4335   2.462   6.836   6.381  0.4092 -0.2132  0.1137
   10MOL   H178 4336   2.653   7.065   6.882 -4.1562  1.3371  2.3500
   10MOL   H179 4337   2.619   6.905   6.826 -0.6258 -0.4860  0.3819
   10MOL   H180 4338   2.765   7.025   6.689 -0.4084 -0.9489 -0.3553
   10MOL   H181 4339   2.652   7.157   6.655  0.1089  0.7478  1.3895
   10MOL   H182 4340   2.657   6.579   6.481  0.9964 -0.0699 -1.8313
   10MOL   H183 4341   2.500   6.442   6.359 -1.4329 -1.0045 -0.2366
   10MOL   H184 4342   2.306   6.815   6.240  0.4044 -0.7487 -1.0381
   10MOL   H185 4343   2.465   6.944   6.385 -0.2808 -0.1700 -0.5399
   10MOL   O186 4344   2.186   6.515   5.976 -0.0123 -0.1206 -0.1487
   10MOL   C187 4345   2.055   6.475   5.998 -0.0086  0.6302 -0.8500
   10MOL   C188 4346   1.961   6.588   6.026 -0.1852  0.0152 -0.8048
   10MOL   O189 4347   1.946   6.680   5.920 -0.5128 -0.0531  0.1275
   10MOL   C190 4348   1.860   6.781   5.947 -0.1145  0.1960  0.4705
   10MOL   O191 4349   1.802   6.801   6.055 -0.1334 -0.3849 -0.0869
   10MOL   C192 4350   1.831   6.861   5.824 -0.6482 -0.9449  0.1444
   10MOL   C193 4351   1.905   6.864   5.703  0.9134  0.9282  0.1129
   10MOL   C194 4352   1.860   6.951   5.597 -0.1972  0.4882 -0.0010
   10MOL   C195 4353   1.752   7.042   5.608 -0.5063  0.6153  0.3453
   10MOL   C196 4354   1.709   7.133   5.496  0.4642 -1.0599  0.1701
   10MOL   O197 4355   1.762   7.139   5.382 -0.2241  0.4840 -0.2174
   10MOL   O198 4356   1.603   7.208   5.532  0.0663 -0.5820  0.2163
   10MOL   C199 4357   1.693   7.043   5.732 -0.1006  0.4186  0.1741
   10MOL   C200 4358   1.728   6.957   5.831  0.0941  0.6521 -0.0348
   10MOL   H201 4359   2.022   6.421   5.910 -1.5036 -0.1854  0.1837
   10MOL   H202 4360   2.061   6.403   6.080 -2.0879 -0.8035 -1.9301
   10MOL   H203 4361   1.997   6.638   6.116 -0.8399  0.7496 -0.9484
   10MOL   H204 4362   1.862   6.545   6.040 -0.3376  0.8548  0.9077
   10MOL   H205 4363   1.987   6.796   5.685 -0.1765 -0.6639  0.9561
   10MOL   H206 4364   1.916   6.953   5.505 -1.2630  0.6485 -0.6576
   10MOL   H207 4365   1.607   7.105   5.754 -1.5112 -0.9274 -1.4113
   10MOL   H208 4366   1.671   6.950   5.922  0.2894  2.2766  0.2191
   10MOL   O209 4367   1.557   7.299   5.418 -0.3600  0.4840 -0.1862
   10MOL   C210 4368   1.449   7.241   5.345 -0.7721 -0.3837 -0.0682
   10MOL   C211 4369   1.400   7.340   5.237  0.6765 -0.3849 -0.7347
   10MOL   O212 4370   1.495   7.371   5.138  0.0985 -0.0631  0.5095
   10MOL   C213 4371   1.535   7.286   5.039 -0.0447  0.7002  0.3150
   10MOL   O214 4372   1.501   7.170   5.030  0.1732  0.0090  0.5442
   10MOL   C215 4373   1.628   7.358   4.942  0.3047 -0.6365 -0.3444
   10MOL   C216 4374   1.628   7.498   4.930 -0.0321  0.1270  0.0836
   10MOL   C217 4375   1.700   7.548   4.817  0.2112 -0.0579  0.4424
   10MOL   C218 4376   1.779   7.469   4.731 -0.4466  0.0212  0.6026
   10MOL   C219 4377   1.861   7.533   4.624  0.4420  0.0391  0.4332
   10MOL   O220 4378   1.878   7.657   4.626 -0.9589  0.4232 -0.0899
   10MOL   O221 4379   1.908   7.444   4.537  0.6136 -0.2185 -0.0038
   10MOL   C222 4380   1.783   7.328   4.750 -0.2342 -0.1928  0.1463
   10MOL   C223 4381   1.711   7.280   4.861  0.3452  0.0227 -0.7143
   10MOL   H224 4382   1.480   7.149   5.295 -0.7519  0.1684 -1.0992
   10MOL   H225 4383   1.366   7.205   5.406 -1.0055 -0.2927 -0.3266
   10MOL   H226 4384   1.360   7.430   5.284 -0.1612 -0.1695 -1.8453
   10MOL   H227 4385   1.312   7.290   5.198  2.6365 -2.3783 -2.7161
   10MOL   H228 4386   1.561   7.563   4.984 -2.1764  0.6208 -3.0457
   10MOL   H229 4387   1.673   7.651   4.798  3.7847  0.4182 -2.5568
   10MOL   H230 4388   1.848   7.255   4.704 -0.8508  0.1882 -1.3514
   10MOL   H231 4389   1.723   7.173   4.876 -1.2321  0.2217  2.4406
   10MOL   O232 4390   2.001   7.502   4.430  0.2403 -0.4527  0.0005
   10MOL   C233 4391   1.912   7.525   4.312 -0.2080  0.4852  0.6352
   10MOL   C234 4392   1.996   7.486   4.194  0.1150 -0.2994 -0.4556
   10MOL   O235 4393   2.102   7.573   4.162  0.0535  0.5321  0.4539
   10MOL   C236 4394   2.230   7.525   4.146  1.0016 -0.1871 -0.5364
   10MOL   O237 4395   2.271   7.413   4.182 -0.2916  0.2958 -0.2125
   10MOL   C238 4396   2.329   7.622   4.084  0.0211 -0.4617  0.6774
   10MOL   C239 4397   2.465   7.610   4.099 -0.8639  0.4930  0.3095
   10MOL   C240 4398   2.547   7.691   4.031 -0.2490 -0.1892 -0.2423
   10MOL   C241 4399   2.500   7.808   3.963  0.1297 -0.4223 -0.0274
   10MOL   C242 4400   2.594   7.904   3.895 -0.0788  0.2208  0.5816
   10MOL   O243 4401   2.551   8.009   3.845 -0.9848 -0.0743  0.0857
   10MOL   O244 4402   2.719   7.852   3.870 -0.0045 -0.3240  0.4564
   10MOL   C245 4403   2.363   7.828   3.954 -0.0277  0.1873 -0.3308
   10MOL   C246 4404   2.274   7.728   4.010  0.1970 -0.3273 -0.5204
   10MOL   H247 4405   1.826   7.463   4.337  0.5976  0.1624  2.7488
   10MOL   H248 4406   1.878   7.629   4.316 -0.1492  0.6039 -1.7219
   10MOL   H249 4407   1.925   7.486   4.111 -1.2510  4.2464  0.5741
   10MOL   H250 4408   2.028   7.383   4.211 -0.8347 -0.8130 -1.6866
   10MOL   H251 4409   2.508   7.525   4.150 -0.7907 -0.6772 -1.6555
   10MOL   H252 4410   2.653   7.677   4.047 -0.3355 -5.0380 -3.0954
   10MOL   H253 4411   2.324   7.913   3.900  2.0559  1.4124  0.0788
   10MOL   H254 4412   2.168   7.745   3.994  0.1914 -0.4626 -0.6242
   10MOL   O255 4413   2.815   7.951   3.819 -0.0764 -0.0305  0.0780
   10MOL   C256 4414   2.818   7.945   3.681  0.2492  0.5837  0.5835
   10MOL   C257 4415   2.912   8.045   3.631 -0.2618 -0.7256 -0.4222
   10MOL   O258 4416   3.051   8.006   3.632  0.3264 -0.3074 -0.4222
   10MOL   C259 4417   3.087   7.914   3.551 -0.1317  0.8132 -0.4944
   10MOL   O260 4418   3.012   7.854   3.477  0.5565 -0.2984 -0.2771
   10MOL   C261 4419   3.232   7.894   3.544  0.0069  1.2977  0.0821
   10MOL   C262 4420   3.280   7.771   3.489 -0.4799  0.3538  0.1787
   10MOL   C263 4421   3.417   7.742   3.484 -0.7072  0.4389  0.1650
   10MOL   C264 4422   3.505   7.842   3.533 -0.1992  0.1550  0.1867
   10MOL   C265 4423   3.650   7.828   3.526 -0.0692  0.1418  0.2632
   10MOL   O266 4424   3.701   7.723   3.475 -0.6543 -0.0110  0.2417
   10MOL   O267 4425   3.725   7.937   3.571  0.8184  0.0836  0.0141
   10MOL   C268 4426   3.453   7.954   3.604  0.8698  0.1435 -0.8246
   10MOL   C269 4427   3.314   7.984   3.601  0.3003 -0.3946  0.2006
   10MOL   H270 4428   2.838   7.844   3.645 -2.0742  0.0452  0.7666
   10MOL   H271 4429   2.723   7.980   3.641  1.4828  1.6719 -1.5284
   10MOL   H272 4430   2.893   8.140   3.681  0.7964 -0.0590 -1.2585
   10MOL   H273 4431   2.893   8.074   3.528  0.9501  1.8731  0.0296
   10MOL   H274 4432   3.208   7.697   3.457 -0.1719 -0.0494  0.4321
   10MOL   H275 4433   3.464   7.652   3.450 -2.8173 -0.1774 -1.2303
   10MOL   H276 4434   3.526   8.023   3.644  1.8594 -1.5352  0.3587
   10MOL   H277 4435   3.285   8.080   3.640  2.2204  1.7145 -3.3065
   10MOL   O278 4436   3.875   7.925   3.571  0.1034 -0.1718  0.1639
   10MOL   C279 4437   3.909   7.893   3.709  0.2230 -0.4859  0.5250
   10MOL   C280 4438   4.053   7.934   3.716  0.3633 -0.1897 -0.2581
   10MOL   O281 4439   4.069   8.069   3.756  0.0373 -0.0464  0.1240
   10MOL   C282 4440   4.186   8.124   3.788 -0.5668 -0.2613 -0.2116
   10MOL   O283 4441   4.294   8.063   3.773 -0.4261 -0.3248  0.1026
   10MOL   C284 4442   4.166   8.257   3.846  0.5921 -0.0111  0.5775
   10MOL   C285 4443   4.280   0.045   3.894  0.2559 -0.3654 -0.1733
   10MOL   C286 4444   4.278   0.179   3.942 -0.7305 -0.2724 -0.2371
   10MOL   C287 4445   4.154   0.245   3.960  0.1074  0.1516  0.0232
   10MOL   C288 4446   4.144   0.375   4.033  0.5872  0.1220  0.1742
   10MOL   O289 4447   4.029   0.409   4.075 -0.8706  0.6151  0.1058
   10MOL   O290 4448   4.255   0.443   4.052  0.4245 -0.4153 -0.3928
   10MOL   C291 4449   4.036   0.173   3.927  0.0481 -0.2079  0.3536
   10MOL   C292 4450   4.040   0.043   3.871  0.7772 -0.5687  0.4575
   10MOL   H293 4451   3.846   7.933   3.788  1.5868 -0.5645  1.6832
   10MOL   H294 4452   3.895   7.785   3.706 -0.7137 -0.3395 -1.7743
   10MOL   H295 4453   4.097   7.925   3.616 -1.4284  1.1331 -1.1830
   10MOL   H296 4454   4.117   7.878   3.784  0.6673 -0.0584 -0.4325
   10MOL   H297 4455   4.377   8.274   3.883  1.1859  1.3458  0.5574
   10MOL   H298 4456   4.368   0.229   3.974 -1.1856  0.2706  0.1828
   10MOL   H299 4457   3.939   0.214   3.952  0.2903 -0.5866  1.9632
   10MOL   H300 4458   3.951   8.270   3.833  1.8888 -1.1396 -1.5432
   10MOL   O301 4459   4.238   0.561   4.140  0.2754  0.0897  0.2731
   10MOL   C302 4460   4.276   0.526   4.275 -0.4765  0.0541  0.3068
   10MOL   C303 4461   4.421   0.477   4.290  0.3670 -0.5763  0.7338
   10MOL   O304 4462   4.498   0.593   4.308 -0.2587 -0.1290  0.1863
   10MOL   C305 4463   4.534   0.658   4.203  0.7286  0.1428  0.7894
   10MOL   O306 4464   4.531   0.609   4.090  0.0872 -0.1832 -0.9663
   10MOL   C307 4465   4.578   0.796   4.235 -0.0795 -0.3459  0.6616
   10MOL   C308 4466   4.607   0.829   4.370  0.4150  0.1310  0.6689
   10MOL   C309 4467   4.638   0.960   4.410 -0.8691  0.3454  0.0190
   10MOL   C310 4468   4.650   1.057   4.308  0.2688  0.0587  1.0406
   10MOL   C311 4469   4.707   1.199   4.340 -0.2105  0.1688 -0.2851
   10MOL   O312 4470   4.747   1.271   4.251 -0.3140  0.4730 -0.0667
   10MOL   O313 4471   4.693   1.231   4.477  0.4135  0.2671 -0.7359
   10MOL   C314 4472   4.635   1.023   4.175  0.2263  0.3291  0.1718
   10MOL   C315 4473   4.594   0.894   4.139  0.5437 -0.2572  0.0913
   10MOL   H316 4474   4.265   0.618   4.333 -0.5687 -1.7160  3.2359
   10MOL   H317 4475   4.206   0.452   4.315  1.8427 -0.7156  3.0941
   10MOL   H318 4476   4.452   0.416   4.205 -0.5414 -0.8615  0.6017
   10MOL   H319 4477   4.433   0.417   4.380 -0.1729 -0.9970  0.5299
   10MOL   H320 4478   4.617   0.756   4.449 -2.4970 -0.2650  0.7181
   10MOL   H321 4479   4.665   0.978   4.513 -0.1177 -2.4953  0.3550
   10MOL   H322 4480   4.661   1.093   4.097  1.8473 -1.5343 -1.0220
   10MOL   H323 4481   4.583   0.881   4.032 -1.5185  0.7262  0.1546
   10MOL   O324 4482   4.719   1.378   4.516 -0.4544  0.4047 -0.3260
   10MOL   C325 4483   4.854   1.393   4.555  0.0138  0.0572 -0.4757
   10MOL   C326 4484   4.875   1.539   4.586  0.3217  0.4041  0.5501
   10MOL   O327 4485   4.853   1.567   4.718 -0.1920 -0.6946  0.1497
   10MOL   C328 4486   4.911   1.683   4.759  0.0017 -0.1705  0.3136
   10MOL   O329 4487   4.962   1.763   4.682  0.1610 -0.0368 -0.4290
   10MOL   C330 4488   4.894   1.711   4.906  0.4242 -0.1032 -0.8912
   10MOL   C331 4489   4.927   1.835   4.960 -0.2205  0.4095 -0.7567
   10MOL   C332 4490   4.919   1.858   5.095 -0.5493  0.2610  0.1129
   10MOL   C333 4491   4.855   1.763   5.175  0.2759 -0.1038 -0.7987
   10MOL   C334 4492   4.818   1.799   5.314  0.6328  0.2493 -0.0906
   10MOL   O335 4493   4.790   1.709   5.396 -0.4333 -0.3256 -0.2418
   10MOL   O336 4494   4.806   1.937   5.342 -0.2372  0.1346 -0.1192
   10MOL   C337 4495   4.831   1.632   5.123  0.0942 -0.2522 -0.8084
   10MOL   C338 4496   4.861   1.604   4.993  0.7424  0.0684  0.3895
   10MOL   H339 4497   4.871   1.323   4.637 -2.1495  1.0006  0.8031
   10MOL   H340 4498   4.907   1.363   4.464 -0.3317  0.1776 -0.7181
   10MOL   H341 4499   4.829   1.611   4.518 -0.3389  0.4217  1.0212
   10MOL   H342 4500   4.984   1.536   4.576  0.5555 -0.7940  3.2352
   10MOL   H343 4501   4.947   1.917   4.893  0.0087 -0.2612 -1.5144
   10MOL   H344 4502   4.941   1.959   5.125  1.2364 -0.2505  0.5763
   10MOL   H345 4503   4.786   1.562   5.191 -2.8984  0.3447 -2.0827
   10MOL   H346 4504   4.851   1.502   4.960 -1.4398  0.7811 -1.3071
   10MOL   O347 4505   4.753   1.961   5.478 -0.5953  0.0194 -0.2641
   10MOL   C348 4506   4.615   1.976   5.479 -0.4617 -0.0968  0.2303
   10MOL   C349 4507   4.584   2.000   5.626 -0.1759 -0.5693  0.3351
   10MOL   O350 4508   4.456   2.061   5.644 -0.4853 -0.2178  0.4982
   10MOL   C351 4509   4.434   2.199   5.636 -0.0585 -0.0050 -0.2337
   10MOL   O352 4510   4.524   2.276   5.603 -0.1352 -0.1027  1.3765
   10MOL   C353 4511   4.301   2.247   5.688  0.1150  0.1376 -0.1070
   10MOL   C354 4512   4.216   2.164   5.759 -0.2920  0.7763 -0.8749
   10MOL   C355 4513   4.107   2.217   5.822 -0.0790 -1.1854 -0.2041
   10MOL   C356 4514   4.075   2.358   5.807 -0.6493  0.1641  0.3579
   10MOL   C357 4515   3.946   2.412   5.854  0.1077 -0.2043 -0.6388
   10MOL   O358 4516   3.926   2.537   5.861  0.5106  0.0216  0.5402
   10MOL   O359 4517   3.850   2.312   5.879  0.3688 -0.1688 -0.0393
   10MOL   C360 4518   4.158   2.441   5.730  0.9843  0.3561  0.1273
   10MOL   C361 4519   4.277   2.385   5.680 -0.6697  0.0397 -0.4265
   10MOL   H362 4520   4.598   2.071   5.428  1.4197  0.1020 -0.1012
   10MOL   H363 4521   4.552   1.899   5.436 -1.0631  0.7029 -0.3258
   10MOL   H364 4522   4.664   2.039   5.689 -1.6901  1.5290  0.9953
   10MOL   H365 4523   4.564   1.905   5.676 -1.8588 -0.7497 -0.6373
   10MOL   H366 4524   4.236   2.060   5.780 -2.1225  0.6465  0.3467
   10MOL   H367 4525   4.036   2.153   5.872 -0.5341  0.2490  1.0029
   10MOL   H368 4526   4.136   2.547   5.720 -2.2336 -0.2681  0.0037
   10MOL   H369 4527   4.340   2.448   5.620 -0.4860  0.4810  0.2281
   10MOL   O370 4528   3.714   2.380   5.889  0.0905  0.1662 -0.4468
   10MOL   C371 4529   3.681   2.370   6.026  0.2189 -0.2717 -0.1494
   10MOL   C372 4530   3.607   2.244   6.049  0.4561  0.5530 -0.0003
   10MOL   O373 4531   3.700   2.138   6.074  0.4114  0.1199  0.5941
   10MOL   C374 4532   3.755   2.124   6.202  0.2507  0.2465  0.4392
   10MOL   O375 4533   3.708   2.187   6.296 -0.6580  0.0304 -0.1411
   10MOL   C376 4534   3.864   2.025   6.208 -0.2220  0.6278  0.4672
   10MOL   C377 4535   3.910   1.960   6.085  0.2436 -0.8685  0.1193
   10MOL   C378 4536   4.001   1.857   6.104  0.6609  0.0520  0.2706
   10MOL   C379 4537   4.064   1.831   6.232  0.2152 -0.4973  0.1168
   10MOL   C380 4538   4.171   1.729   6.248  0.3070  0.5330 -0.4633
   10MOL   O381 4539   4.238   1.730   6.349 -0.5044 -0.0264  0.0894
   10MOL   O382 4540   4.205   1.658   6.143  0.5646 -0.4248  0.1129
   10MOL   C383 4541   4.032   1.916   6.341 -0.4293 -0.6684 -0.2222
   10MOL   C384 4542   3.924   2.004   6.330 -0.6148  0.1619 -0.7346
   10MOL   H385 4543   3.764   2.382   6.097  0.7793  1.8707 -1.1060
   10MOL   H386 4544   3.608   2.451   6.035  1.3702  0.6081  1.7064
   10MOL   H387 4545   3.552   2.220   5.958 -1.7596 -0.4598  1.5927
   10MOL   H388 4546   3.539   2.246   6.133 -1.2045  0.4523 -1.3256
   10MOL   H389 4547   3.867   1.985   5.989  2.5495 -3.1625 -1.5695
   10MOL   H390 4548   4.028   1.808   6.011  0.5390  0.1590  0.1787
   10MOL   H391 4549   4.076   1.889   6.436  1.5658  1.6620 -0.4384
   10MOL   H392 4550   3.880   2.054   6.415 -0.9390 -0.2519 -0.6635
   10MOL   O393 4551   4.258   1.522   6.191 -0.1762 -0.3370  0.1552
   10MOL   C394 4552   4.166   1.416   6.165  0.2616  0.3774  0.1048
   10MOL   C395 4553   4.218   1.287   6.223 -0.0230 -0.1887  0.0723
   10MOL   O396 4554   4.129   1.188   6.191  0.0619 -0.1044 -0.3908
   10MOL   C397 4555   4.160   1.109   6.086  1.0176  0.0561  0.4928
   10MOL   O398 4556   4.256   1.114   6.013 -0.0266  0.5593 -0.1213
   10MOL   C399 4557   4.051   1.012   6.057  0.3884 -0.2642 -0.2689
   10MOL   C400 4558   3.965   0.969   6.159  0.7040 -0.1922 -0.4447
   10MOL   C401 4559   3.860   0.881   6.131 -0.0392 -0.0884  0.3338
   10MOL   C402 4560   3.833   0.853   5.996  0.0549 -0.0828 -0.3519
   10MOL   C403 4561   3.713   0.779   5.955 -0.4285  0.0850  0.4051
   10MOL   O404 4562   3.647   0.795   5.857  1.1530 -0.5052  0.1931
   10MOL   O405 4563   3.685   0.679   6.045 -0.2833 -0.1592 -0.3515
   10MOL   C406 4564   3.924   0.892   5.898  0.0200  0.0312  0.3636
   10MOL   C407 4565   4.037   0.971   5.923  0.2964  0.1273 -0.4535
   10MOL   H408 4566   4.074   1.447   6.215 -0.4565  1.0238 -1.5421
   10MOL   H409 4567   4.164   1.413   6.056  1.5626 -1.0373  0.1082
   10MOL   H410 4568   4.208   1.294   6.331 -0.5922 -0.7841  0.0587
   10MOL   H411 4569   4.322   1.272   6.191 -0.2933 -3.7876  0.6513
   10MOL   H412 4570   3.975   1.010   6.258 -0.0836 -0.4743 -0.2411
   10MOL   H413 4571   3.795   0.846   6.210 -1.1561  0.2237 -0.4312
   10MOL   H414 4572   3.903   0.862   5.796  2.4242 -0.9865  0.1452
   10MOL   H415 4573   4.099   0.998   5.838  0.1207  3.1178  0.2903
   10MOL   O416 4574   3.561   0.608   6.027  0.1833 -0.2100  0.3139
   10MOL   C417 4575   3.456   0.681   6.091 -0.2738  0.4608  0.8976
   10MOL   C418 4576   3.475   0.662   6.244 -0.2082 -0.2492 -0.6050
   10MOL   O419 4577   3.401   0.542   6.279  0.0246 -0.2206 -0.0824
   10MOL   C420 4578   3.274   0.553   6.312  0.3692  0.2173 -0.2664
   10MOL   O421 4579   3.214   0.659   6.312 -0.4458  0.1200  0.3207
   10MOL   C422 4580   3.222   0.419   6.352 -0.1069  0.0130  0.3939
   10MOL   C423 4581   3.088   0.411   6.399  0.0561  0.2227  0.2671
   10MOL   C424 4582   3.024   0.293   6.425  0.3669 -0.0171 -1.1968
   10MOL   C425 4583   3.103   0.175   6.424  0.4183  0.6787 -0.2310
   10MOL   C426 4584   3.040   0.038   6.456  0.7888  0.1227  0.6315
   10MOL   O427 4585   3.094   8.201   6.436  0.2275 -0.4444  0.7107
   10MOL   O428 4586   2.921   0.044   6.519  0.8448  0.4956  0.5403
   10MOL   C429 4587   3.231   0.176   6.386 -0.1125  0.3242 -0.4165
   10MOL   C430 4588   3.298   0.302   6.355  0.2692  0.5126  0.9168
   10MOL   H431 4589   3.460   0.784   6.057  2.0167 -0.8060 -2.9297
   10MOL   H432 4590   3.362   0.634   6.065 -1.0547  1.2199  2.2459
   10MOL   H433 4591   3.428   0.753   6.280 -2.0808 -0.9213 -1.2806
   10MOL   H434 4592   3.581   0.672   6.268 -0.4180  0.0089  0.2281
   10MOL   H435 4593   3.033   0.504   6.404  1.6484  1.2195 -0.1922
   10MOL   H436 4594   2.923   0.298   6.463  1.6804  2.1750  2.2294
   10MOL   H437 4595   3.296   0.090   6.388  1.6510  1.6452  0.3090
   10MOL   H438 4596   3.406   0.304   6.356  0.3225 -1.3162 -0.2516
   10MOL   O439 4597   2.865   8.191   6.557  0.0710  0.4641 -0.0901
   10MOL   C440 4598   2.888   8.177   6.696 -0.2395 -0.7719 -0.5971
   10MOL   C441 4599   2.797   8.256   6.782 -0.7711 -0.2048  0.0551
   10MOL   O442 4600   2.855   0.109   6.793 -0.0679 -0.2820  0.2512
   10MOL   C443 4601   2.809   0.197   6.880  0.2475 -0.0734  0.0362
   10MOL   O444 4602   2.717   0.164   6.955 -0.3316 -0.3233 -0.1191
   10MOL   C445 4603   2.857   0.331   6.870 -0.3953  0.0461  0.4630
   10MOL   C446 4604   2.932   0.370   6.759  0.2264 -0.1055 -0.3863
   10MOL   C447 4605   2.964   0.508   6.753  0.0470  0.5389  0.0027
   10MOL   C448 4606   2.935   0.602   6.858  0.4448  0.8897 -0.3673
   10MOL   C449 4607   2.999   0.735   6.852 -0.0805 -0.6507  0.2219
   10MOL   O450 4608   3.042   0.798   6.946  0.7265  0.1803 -0.0088
   10MOL   O451 4609   2.980   0.785   6.731 -0.3003  0.0034  0.3571
   10MOL   C452 4610   2.870   0.558   6.971  0.5182  0.4684  0.5539
   10MOL   C453 4611   2.827   0.423   6.975 -0.6039  0.4768 -0.0442
   10MOL   H454 4612   2.868   8.071   6.711 -0.2273 -0.9318 -1.6699
   10MOL   H455 4613   2.994   8.190   6.718 -0.8340  0.0349  1.8681
   10MOL   H456 4614   2.791   8.210   6.881  0.7080 -1.1061 -0.2581
   10MOL   H457 4615   2.700   0.001   6.737 -2.5396 -2.3974  2.6481
   10MOL   H458 4616   2.959   0.300   6.682 -3.4030 -0.9905 -0.9393
   10MOL   H459 4617   3.030   0.542   6.675 -2.5693 -0.2060 -2.6545
   10MOL   H460 4618   2.853   0.620   7.058  1.8593  1.3874  0.1771
   10MOL   H461 4619   2.757   0.393   7.052 -2.1310 -3.5575 -2.8492
   10MOL   H462 4620   3.006   0.875   6.744 -2.3495  1.0155 -2.1134
   11MOL     O1 4621   6.548   7.778   7.826 -0.0649  0.0269 -0.1643
   11MOL     C2 4622   6.444   7.692   7.857  0.3306  0.0694 -0.6940
   11MOL     C3 4623   6.338   7.701   7.744  0.2860 -0.5470 -0.1382
   11MOL     O4 4624   6.229   7.614   7.776 -0.6801 -0.1656  0.4631
   11MOL     C5 4625   6.122   7.655   7.851 -0.7623 -0.0238 -0.1841
   11MOL     O6 4626   6.118   7.768   7.895 -0.0632  0.2001 -1.1221
   11MOL     C7 4627   6.021   7.548   7.867  0.7230  0.2069  0.8675
   11MOL     C8 4628   6.030   7.432   7.784  0.2156 -0.2394 -0.0725
   11MOL     C9 4629   5.939   7.330   7.797 -0.6312  0.1529  0.7282
   11MOL    C10 4630   5.836   7.336   7.893  0.2410  0.0449 -0.1208
   11MOL    C11 4631   5.736   7.227   7.905  0.3162  0.0911 -0.5024
   11MOL    O12 4632   5.703   7.153   7.815  0.3019  0.2744 -0.0580
   11MOL    O13 4633   5.680   7.224   8.031 -0.2871  0.8087 -0.1999
   11MOL    C14 4634   5.824   7.451   7.973  0.3811  0.4345 -0.2051
   11MOL    C15 4635   5.922   7.552   7.965 -0.2324  0.1430 -0.3107
   11MOL    H16 4636   6.474   7.587   7.852  0.1757  0.0279 -0.7839
   11MOL    H17 4637   6.410   7.717   7.957  2.1801 -0.4133  0.0724
   11MOL    H18 4638   6.384   7.662   7.653 -3.2534 -1.3480 -1.6666
   11MOL    H19 4639   6.291   7.798   7.732  2.1827  0.5145  0.9198
   11MOL    H20 4640   6.098   7.433   7.700  0.8876 -2.8455  0.4137
   11MOL    H21 4641   5.945   7.248   7.727 -0.0055  2.1933 -1.7108
   11MOL    H22 4642   5.742   7.457   8.042  1.8051  2.6999  1.3816
   11MOL    H23 4643   5.939   7.625   8.043 -1.1160 -2.0583  1.9932
   11MOL    H24 4644   6.508   7.862   7.807 -0.4434 -0.0900  0.0976
   11MOL    O25 4645   5.570   7.121   8.052 -0.4804 -0.2665  0.1859
   11MOL    C26 4646   5.452   7.196   8.080  0.3859  0.0015  0.3861
   11MOL    C27 4647   5.338   7.093   8.099  0.0359 -0.6009  0.2008
   11MOL    O28 4648   5.297   7.034   7.978 -0.1895  0.8373  0.5068
   11MOL    C29 4649   5.244   6.907   7.984  0.0561  0.3896 -0.6970
   11MOL    O30 4650   5.206   6.847   8.089  0.3985 -0.7234  0.1310
   11MOL    C31 4651   5.213   6.849   7.845  0.5345 -0.0760  0.7705
   11MOL    C32 4652   5.141   6.731   7.826 -1.4169  0.1069  0.2632
   11MOL    C33 4653   5.120   6.672   7.701 -0.2539  0.2381  0.6291
   11MOL    C34 4654   5.138   6.748   7.580 -0.2220  0.1576 -0.4066
   11MOL    C35 4655   5.100   6.687   7.456  0.3878 -0.9770  0.5013
   11MOL    O36 4656   5.038   6.583   7.444 -0.0869  0.0184 -0.6434
   11MOL    O37 4657   5.138   6.761   7.348 -0.6350 -0.2014 -0.3912
   11MOL    C38 4658   5.205   6.872   7.599 -0.6239  1.0742  0.1627
   11MOL    C39 4659   5.239   6.920   7.727 -0.2442  0.4642  0.9840
   11MOL    H40 4660   5.468   7.245   8.176  0.8843  1.3631 -0.3674
   11MOL    H41 4661   5.420   7.262   7.999 -1.0040  0.5194  1.3487
   11MOL    H42 4662   5.257   7.141   8.153 -0.6360 -0.1258 -1.1936
   11MOL    H43 4663   5.388   7.024   8.167  0.0752  0.4548  1.2549
   11MOL    H44 4664   5.119   6.670   7.912 -1.0381 -1.9203 -1.0496
   11MOL    H45 4665   5.095   6.568   7.695 -2.0654  0.6208  1.3309
   11MOL    H46 4666   5.246   6.917   7.510  1.1645 -0.1559  0.3426
   11MOL    H47 4667   5.296   7.012   7.720  1.1688 -0.4984 -0.7242
   11MOL    O48 4668   5.106   6.689   7.218 -0.4691 -0.2162  0.2940
   11MOL    C49 4669   4.985   6.752   7.166 -0.5555  0.2214 -0.6531
   11MOL    C50 4670   4.923   6.652   7.078 -0.3175  0.1256  0.0826
   11MOL    O51 4671   4.847   6.715   6.979 -0.3564  0.5036 -0.2265
   11MOL    C52 4672   4.804   6.645   6.870  0.5254  0.8000  0.1810
   11MOL    O53 4673   4.838   6.526   6.853 -0.0267 -0.4304 -0.2296
   11MOL    C54 4674   4.696   6.703   6.785  0.1579  1.2608 -0.8795
   11MOL    C55 4675   4.673   6.837   6.788 -0.4194  0.1117 -0.1608
   11MOL    C56 4676   4.583   6.903   6.695 -0.0063 -0.2429 -0.2165
   11MOL    C57 4677   4.514   6.827   6.598 -0.7479  0.4760 -0.0047
   11MOL    C58 4678   4.428   6.891   6.498  0.0582  0.0001  0.2467
   11MOL    O59 4679   4.414   7.015   6.489  0.6528  0.8021 -0.2871
   11MOL    O60 4680   4.366   6.808   6.405  0.0860 -0.2295 -0.1973
   11MOL    C61 4681   4.535   6.687   6.600  0.2743  0.4428  0.3714
   11MOL    C62 4682   4.623   6.624   6.692  0.4043  0.2020  1.0091
   11MOL    H63 4683   4.914   6.781   7.243  1.7462  0.8008  1.3421
   11MOL    H64 4684   5.013   6.846   7.118 -0.8635  2.9089  4.1552
   11MOL    H65 4685   4.861   6.580   7.132  1.0408 -2.2069 -1.3818
   11MOL    H66 4686   5.000   6.601   7.021 -1.9800 -0.6302 -1.5565
   11MOL    H67 4687   4.729   6.899   6.856  0.8054  0.6622 -1.6505
   11MOL    H68 4688   4.562   7.009   6.696 -4.2908 -0.9877 -0.4254
   11MOL    H69 4689   4.497   6.620   6.524 -0.2885  1.3749 -0.1615
   11MOL    H70 4690   4.659   6.523   6.678  1.5571  0.3192  2.8592
   11MOL    O71 4691   4.295   6.877   6.295  0.5731 -0.5847  0.1965
   11MOL    C72 4692   4.152   6.846   6.299 -0.0226 -0.3489 -0.7819
   11MOL    C73 4693   4.111   6.712   6.235 -0.0587  0.3656  0.5602
   11MOL    O74 4694   3.967   6.716   6.227  0.3623 -0.0969  0.5146
   11MOL    C75 4695   3.884   6.671   6.320 -0.6782 -0.0352 -0.4229
   11MOL    O76 4696   3.923   6.600   6.410 -0.0075  0.0094 -0.0352
   11MOL    C77 4697   3.742   6.681   6.271  0.0023  0.0680  0.0245
   11MOL    C78 4698   3.706   6.751   6.154  0.0578  0.2859 -0.1832
   11MOL    C79 4699   3.576   6.739   6.105 -0.1789 -0.9075  0.2850
   11MOL    C80 4700   3.473   6.688   6.188 -1.0756  0.7804 -0.3089
   11MOL    C81 4701   3.327   6.684   6.148 -0.8836  0.8840 -0.4311
   11MOL    O82 4702   3.230   6.676   6.221  0.0620 -0.2635  0.4355
   11MOL    O83 4703   3.308   6.707   6.014  0.1800  0.7255 -0.0819
   11MOL    C84 4704   3.503   6.632   6.317 -0.2296 -0.3143 -0.5990
   11MOL    C85 4705   3.640   6.628   6.351 -0.0254 -0.2790 -0.6992
   11MOL    H86 4706   4.124   6.842   6.405 -2.1284  2.6862 -1.1613
   11MOL    H87 4707   4.092   6.924   6.253  0.5437  0.8118  0.3878
   11MOL    H88 4708   4.151   6.631   6.296  1.3767  1.0372  0.5506
   11MOL    H89 4709   4.156   6.703   6.135  1.1971  0.4861  1.0994
   11MOL    H90 4710   3.779   6.795   6.087  0.5992  0.4476  0.5046
   11MOL    H91 4711   3.559   6.772   6.004 -1.5668 -1.4137  0.3516
   11MOL    H92 4712   3.431   6.584   6.381  0.6235  1.2437  1.5797
   11MOL    H93 4713   3.671   6.571   6.438 -2.3305  0.1663  0.4561
   11MOL    O94 4714   3.167   6.724   5.977  0.0623 -0.2899  0.0662
   11MOL    C95 4715   3.149   6.845   5.903 -0.1539  0.3976 -0.9735
   11MOL    C96 4716   3.159   6.967   5.995 -0.3648 -0.3801  0.6252
   11MOL    O97 4717   3.290   7.014   6.034 -0.2794  0.1876 -0.0108
   11MOL    C98 4718   3.311   7.058   6.158 -0.0929  0.4914  0.8703
   11MOL    O99 4719   3.222   7.076   6.241 -0.4288  0.5185 -0.5313
   11MOL   C100 4720   3.444   7.121   6.176  0.2418 -0.2509  0.2414
   11MOL   C101 4721   3.472   7.202   6.291 -0.4870  0.2675 -0.3141
   11MOL   C102 4722   3.592   7.267   6.316  0.1686  0.3190 -0.3319
   11MOL   C103 4723   3.685   7.250   6.212 -0.5423 -0.2800  0.5097
   11MOL   C104 4724   3.815   7.313   6.231  0.1267 -0.1361 -0.0226
   11MOL   O105 4725   3.863   7.346   6.341 -0.0537 -0.6423 -0.1258
   11MOL   O106 4726   3.876   7.341   6.112 -0.2221 -0.2807  0.1970
   11MOL   C107 4727   3.666   7.163   6.099 -0.3273  0.0909 -0.3496
   11MOL   C108 4728   3.544   7.102   6.078 -0.4790 -0.1448 -0.6235
   11MOL   H109 4729   3.215   6.840   5.816 -1.2024 -0.2131 -1.7403
   11MOL   H110 4730   3.044   6.836   5.876 -0.5682  2.7156 -0.2065
   11MOL   H111 4731   3.094   6.950   6.081  1.6109  2.3779  2.7428
   11MOL   H112 4732   3.121   7.050   5.937 -2.3295 -2.0323 -0.5140
   11MOL   H113 4733   3.392   7.203   6.363  0.0814 -2.3588  0.3930
   11MOL   H114 4734   3.619   7.307   6.413 -0.9680  1.8812 -0.6510
   11MOL   H115 4735   3.745   7.161   6.025  1.1539 -4.4467  1.1944
   11MOL   H116 4736   3.522   7.044   5.990  1.6797 -0.0806 -1.2230
   11MOL   O117 4737   4.019   7.382   6.124 -0.5289  0.0042  0.1133
   11MOL   C118 4738   4.032   7.522   6.108  0.2431 -0.1932 -0.4541
   11MOL   C119 4739   3.967   7.572   5.977 -0.4964 -0.2677  0.3175
   11MOL   O120 4740   4.059   7.660   5.908  0.3533  0.3469 -0.1620
   11MOL   C121 4741   4.027   7.709   5.790 -1.3796  0.7850 -0.2332
   11MOL   O122 4742   3.922   7.704   5.733  0.3551  0.4680  0.5114
   11MOL   C123 4743   4.135   7.797   5.736 -0.5789 -0.5759  0.1747
   11MOL   C124 4744   4.101   7.916   5.669  0.1406 -0.5421  0.5264
   11MOL   C125 4745   4.201   7.995   5.612 -0.1346  0.2736 -0.0644
   11MOL   C126 4746   4.338   7.954   5.622  0.3929 -0.2810  0.3787
   11MOL   C127 4747   4.452   8.028   5.563 -0.0997  0.0797 -0.4839
   11MOL   O128 4748   4.565   7.981   5.552 -0.2156  0.0192 -0.0204
   11MOL   O129 4749   4.419   8.157   5.529 -0.1815 -0.1178  0.0357
   11MOL   C130 4750   4.366   7.836   5.691 -0.4934 -0.2684 -0.5760
   11MOL   C131 4751   4.271   7.760   5.754  0.5461  0.8682  0.1743
   11MOL   H132 4752   3.994   7.572   6.197  1.3142  1.4449 -0.8975
   11MOL   H133 4753   4.136   7.554   6.109 -0.1844  1.1730  2.0089
   11MOL   H134 4754   3.875   7.625   6.004 -0.1955  1.5010 -1.8834
   11MOL   H135 4755   3.928   7.495   5.910  2.0832 -2.2197  1.0006
   11MOL   H136 4756   4.001   7.956   5.659  0.0304 -1.3282 -1.9730
   11MOL   H137 4757   4.170   8.088   5.566  0.4239  0.5056  0.0179
   11MOL   H138 4758   4.469   7.803   5.702 -0.7170 -0.8255 -0.0952
   11MOL   H139 4759   4.295   7.670   5.809 -1.0578  0.0200 -0.4918
   11MOL   O140 4760   4.515   8.226   5.434  0.3094 -0.3191  0.4917
   11MOL   C141 4761   4.599   0.023   5.516  0.0352  0.0247  0.6448
   11MOL   C142 4762   4.721   0.080   5.445 -0.3820 -0.2140  0.4329
   11MOL   O143 4763   4.807   8.248   5.410  0.3531 -0.0112  0.1374
   11MOL   C144 4764   4.904   8.204   5.497  0.1062  0.5244 -0.2784
   11MOL   O145 4765   4.902   8.247   5.611 -0.3330 -0.1340 -0.7356
   11MOL   C146 4766   4.988   8.095   5.445 -0.0822 -0.3556 -0.2642
   11MOL   C147 4767   4.960   8.031   5.320 -0.2297 -0.5354 -0.5512
   11MOL   C148 4768   5.037   7.930   5.272  0.1173 -0.3047  0.6600
   11MOL   C149 4769   5.159   7.898   5.331 -0.0422  0.0476 -0.5909
   11MOL   C150 4770   5.227   7.780   5.277 -0.5110 -0.0731  0.5181
   11MOL   O151 4771   5.180   7.692   5.201  0.5961  0.2518 -0.2017
   11MOL   O152 4772   5.354   7.782   5.316  0.3219  0.4191 -0.4843
   11MOL   C153 4773   5.195   7.973   5.447 -0.0089 -0.0317  0.3937
   11MOL   C154 4774   5.112   8.067   5.507  0.0117 -0.1007 -0.3077
   11MOL   H155 4775   4.531   0.094   5.563 -1.4685 -0.9026 -0.0980
   11MOL   H156 4776   4.639   8.225   5.586  0.9717  0.3875  0.5087
   11MOL   H157 4777   4.766   0.154   5.510 -1.3825  0.3443  0.5009
   11MOL   H158 4778   4.693   0.135   5.355  1.5883 -0.3295 -0.2565
   11MOL   H159 4779   4.868   8.053   5.269  0.8260  1.8435 -1.4944
   11MOL   H160 4780   4.999   7.880   5.184 -1.9099  1.4737  0.4910
   11MOL   H161 4781   5.281   7.940   5.503 -0.2295 -0.9969  0.1759
   11MOL   H162 4782   5.157   8.102   5.598  1.3823  0.7487 -1.2829
   11MOL   O163 4783   5.424   7.661   5.269  0.2386 -0.4078  0.6727
   11MOL   C164 4784   5.496   7.685   5.152  0.6563  0.5815 -0.4144
   11MOL   C165 4785   5.580   7.565   5.104 -0.5090 -0.0712 -0.3213
   11MOL   O166 4786   5.675   7.598   5.006 -0.4544  0.6167 -0.1249
   11MOL   C167 4787   5.757   7.504   4.954 -0.5355  0.1281 -0.0054
   11MOL   O168 4788   5.774   7.392   4.998  0.0620  0.2366 -0.4359
   11MOL   C169 4789   5.839   7.552   4.836 -0.4470  0.8808 -0.3173
   11MOL   C170 4790   5.937   7.464   4.785  0.4780  0.4774 -0.5325
   11MOL   C171 4791   6.027   7.494   4.681  0.3779  0.0299  0.2171
   11MOL   C172 4792   6.023   7.624   4.633  0.2729 -0.6959  0.1027
   11MOL   C173 4793   6.107   7.673   4.524 -0.4506 -0.1681  0.7997
   11MOL   O174 4794   6.109   7.788   4.480 -0.5209 -0.0114 -0.4286
   11MOL   O175 4795   6.186   7.581   4.480  0.0792  0.1245  0.1928
   11MOL   C176 4796   5.925   7.716   4.681  1.0678 -0.4984  0.9623
   11MOL   C177 4797   5.831   7.680   4.781  0.8702  0.1736 -0.0539
   11MOL   H178 4798   5.441   7.728   5.068 -1.2310  1.6185  1.2870
   11MOL   H179 4799   5.559   7.771   5.175  1.6177 -0.7649  2.1878
   11MOL   H180 4800   5.511   7.494   5.059 -0.5721  0.3108 -0.8331
   11MOL   H181 4801   5.637   7.506   5.175  0.7183  0.8554 -0.5116
   11MOL   H182 4802   5.940   7.362   4.821 -0.6404  0.3970 -0.6427
   11MOL   H183 4803   6.100   7.417   4.659  1.0155  0.1622  1.8397
   11MOL   H184 4804   5.917   7.816   4.641  0.9415 -0.3120  1.4504
   11MOL   H185 4805   5.760   7.753   4.819  0.3699 -1.0931  1.4943
   11MOL   O186 4806   6.276   7.637   4.362 -0.0628 -0.1226 -0.4902
   11MOL   C187 4807   6.402   7.670   4.418  0.2427  0.1400 -1.0582
   11MOL   C188 4808   6.488   7.740   4.311 -0.3164  0.0084 -0.4096
   11MOL   O189 4809   6.450   7.877   4.285 -0.2603 -0.6653 -0.1601
   11MOL   C190 4810   6.485   7.973   4.380 -0.1121  0.5343  0.6706
   11MOL   O191 4811   6.539   7.940   4.479 -0.0210  0.0179 -0.4531
   11MOL   C192 4812   6.453   8.112   4.339  0.1539  0.2207  0.5214
   11MOL   C193 4813   6.410   8.141   4.209  0.5096 -0.3200  0.2699
   11MOL   C194 4814   6.381   8.270   4.164 -0.1451 -0.2971  0.0927
   11MOL   C195 4815   6.420   0.100   4.250 -0.0230 -0.0793 -0.2719
   11MOL   C196 4816   6.429   0.235   4.192  0.2063 -0.1274 -0.8516
   11MOL   O197 4817   6.392   0.253   4.077 -0.0094 -0.1350  0.6256
   11MOL   O198 4818   6.502   0.324   4.265 -0.0834 -0.5288  0.2809
   11MOL   C199 4819   6.462   0.075   4.383  0.0507 -0.7306 -0.7155
   11MOL   C200 4820   6.480   8.219   4.430  0.7369  0.5859 -0.4901
   11MOL   H201 4821   6.384   7.745   4.495 -1.0991  0.2958 -1.5208
   11MOL   H202 4822   6.447   7.577   4.453  0.8535  0.6158 -0.5734
   11MOL   H203 4823   6.489   7.680   4.219  0.3438  2.4078 -2.0252
   11MOL   H204 4824   6.591   7.729   4.345 -0.3021 -0.4457 -0.5917
   11MOL   H205 4825   6.408   8.060   4.138 -1.3457  0.3114 -0.4323
   11MOL   H206 4826   6.353   0.008   4.061 -1.0673  0.6475  0.4599
   11MOL   H207 4827   6.485   0.153   4.454 -1.3950 -0.7694 -0.1959
   11MOL   H208 4828   6.507   8.204   4.533 -0.3619  2.9254  0.1698
   11MOL   O209 4829   6.527   0.451   4.190  0.4210 -0.3680  0.2424
   11MOL   C210 4830   6.665   0.476   4.178 -0.3177  0.1332  0.1209
   11MOL   C211 4831   6.723   0.526   4.312  0.7231  0.1265  0.5396
   11MOL   O212 4832   6.825   0.435   4.356 -0.1443 -0.1321  0.2009
   11MOL   C213 4833   6.796   0.336   4.434  0.5767  0.0079 -0.5178
   11MOL   O214 4834   6.683   0.304   4.467  0.0264  0.5371  0.0468
   11MOL   C215 4835   6.912   0.254   4.473 -0.0984 -0.1691 -0.0091
   11MOL   C216 4836   7.024   0.263   4.386 -0.6626 -0.6669  0.1344
   11MOL   C217 4837   7.142   0.188   4.408  0.6450 -0.1859 -0.0429
   11MOL   C218 4838   7.150   0.090   4.512  0.3176 -0.2938 -0.7088
   11MOL   C219 4839   7.262   8.270   4.521 -0.3577  0.1782  0.1056
   11MOL   O220 4840   7.334   8.248   4.422 -0.0344 -0.1989  0.2528
   11MOL   O221 4841   7.269   8.204   4.645  0.2107  0.2336 -0.0807
   11MOL   C222 4842   7.033   0.078   4.593  0.1960 -0.0514  0.7682
   11MOL   C223 4843   6.914   0.157   4.575  0.4873 -0.0037 -0.5152
   11MOL   H224 4844   6.716   0.382   4.154  1.1671  0.6749  1.1217
   11MOL   H225 4845   6.695   0.544   4.098  0.1106  2.0917  1.9206
   11MOL   H226 4846   6.647   0.549   4.387  1.4214  2.8453  0.4719
   11MOL   H227 4847   6.770   0.621   4.285  3.8649 -1.7325 -0.7906
   11MOL   H228 4848   7.010   0.327   4.300  0.6177  0.0631  0.4453
   11MOL   H229 4849   7.216   0.209   4.332 -0.2383  1.9654 -0.3157
   11MOL   H230 4850   7.026   8.269   4.659  0.1455  0.2067  1.0950
   11MOL   H231 4851   6.820   0.158   4.630 -1.3542  1.0951 -3.5851
   11MOL   O232 4852   7.384   8.107   4.654  0.0094 -0.0429 -0.0533
   11MOL   C233 4853   7.459   8.153   4.769  0.6089  0.1509  1.0392
   11MOL   C234 4854   7.583   8.060   4.794  0.1495 -0.1396  0.1731
   11MOL   O235 4855   7.625   8.079   4.928 -0.7286 -0.1083  0.1658
   11MOL   C236 4856   7.548   8.022   5.030  0.5445 -0.4903  0.1973
   11MOL   O237 4857   7.449   7.949   5.017  0.7065  0.1256  0.6715
   11MOL   C238 4858   7.596   8.070   5.167  0.0137  0.3238  1.2470
   11MOL   C239 4859   7.700   8.163   5.188 -0.2658 -0.5728  0.0072
   11MOL   C240 4860   7.745   8.194   5.318 -0.1682  0.2764 -0.1364
   11MOL   C241 4861   7.679   8.145   5.433 -0.4670 -0.1600 -0.8809
   11MOL   C242 4862   7.714   8.178   5.573 -0.5062  0.3406  0.4173
   11MOL   O243 4863   7.663   8.122   5.671  0.0508 -0.0074  0.2848
   11MOL   O244 4864   7.792   0.015   5.580 -0.1361  0.5950  0.2971
   11MOL   C245 4865   7.571   8.054   5.409 -0.2721  0.2974 -0.1349
   11MOL   C246 4866   7.530   8.015   5.282  0.1256 -0.1463 -0.0176
   11MOL   H247 4867   7.487   8.257   4.753  0.6862 -0.0379 -0.1182
   11MOL   H248 4868   7.396   8.152   4.858  1.1754  2.5783  1.5013
   11MOL   H249 4869   7.659   8.084   4.720  0.0857  0.5228  0.3171
   11MOL   H250 4870   7.561   7.954   4.778 -2.6373  0.3139  0.6609
   11MOL   H251 4871   7.751   8.201   5.101 -2.7304  0.2771 -1.1338
   11MOL   H252 4872   7.827   8.264   5.326 -1.1767  1.4560  0.1109
   11MOL   H253 4873   7.516   8.015   5.494  0.7369 -0.3272  0.2442
   11MOL   H254 4874   7.447   7.949   5.261 -0.5252  0.5763  0.2503
   11MOL   O255 4875   7.771   0.081   5.712  0.1319  0.4819  0.0774
   11MOL   C256 4876   7.896   0.071   5.784  0.3942  0.1820 -0.1911
   11MOL   C257 4877   8.004   0.174   5.721 -0.2621 -0.1294 -0.5229
   11MOL   O258 4878   8.046   0.139   5.586 -0.4392 -0.1524 -0.5520
   11MOL   C259 4879   8.122   0.033   5.577 -0.1680  0.4761 -0.2321
   11MOL   O260 4880   8.169   8.249   5.674  0.3420  0.3612  0.4897
   11MOL   C261 4881   8.121   8.261   5.435  0.5593 -0.3320  0.4892
   11MOL   C262 4882   8.089   0.076   5.331 -0.1240  0.7245 -0.3721
   11MOL   C263 4883   8.086   0.037   5.197  0.7970 -0.4143  0.2922
   11MOL   C264 4884   8.115   8.174   5.167  0.5031 -0.3660 -0.3077
   11MOL   C265 4885   8.093   8.137   5.021 -0.2566 -0.3490  0.2272
   11MOL   O266 4886   8.035   8.210   4.939 -0.4611  0.2553  0.4914
   11MOL   O267 4887   8.159   8.023   4.988 -0.0725  0.8934  0.5524
   11MOL   C268 4888   8.156   8.085   5.272  0.0824  0.8909  0.0838
   11MOL   C269 4889   8.148   8.128   5.407  0.0524  0.0311  0.6269
   11MOL   H270 4890   7.878   0.085   5.891 -1.9857 -1.7125 -0.3063
   11MOL   H271 4891   7.927   8.242   5.773  0.3324  0.1616 -0.1783
   11MOL   H272 4892   8.091   0.183   5.787 -0.1247 -1.0897 -0.5540
   11MOL   H273 4893   7.953   0.270   5.719  2.1330  1.2236  1.1528
   11MOL   H274 4894   8.068   0.179   5.353  2.0588  1.0495  0.3039
   11MOL   H275 4895   8.053   0.107   5.121  1.2021 -0.0270  0.4713
   11MOL   H276 4896   8.193   7.986   5.249 -2.4811  0.0079 -0.3924
   11MOL   H277 4897   8.180   8.067   5.490  1.0074 -1.2699 -0.6640
   11MOL   O278 4898   8.180   8.012   4.842 -0.1470 -0.0828 -0.1944
   11MOL   C279 4899   8.157   7.877   4.805  0.6209 -0.5253 -0.2634
   11MOL   C280 4900   8.191   7.870   4.651 -0.7538 -0.1327  0.8059
   11MOL   O281 4901   8.166   7.732   4.610  0.1050  0.6714 -0.0912
   11MOL   C282 4902   8.128   7.701   4.483  0.6454  0.4507 -0.0779
   11MOL   O283 4903   8.141   7.786   4.394 -0.3444 -0.1293  0.5029
   11MOL   C284 4904   8.085   7.553   4.474  1.2025 -0.2210 -0.2438
   11MOL   C285 4905   8.076   7.470   4.587  0.0324 -0.2498  0.3816
   11MOL   C286 4906   8.039   7.339   4.576  0.2158  0.1961 -0.2555
   11MOL   C287 4907   8.018   7.280   4.457 -0.1854  0.3707 -0.6164
   11MOL   C288 4908   7.982   7.138   4.455 -0.6410  0.1573  0.4979
   11MOL   O289 4909   7.934   7.082   4.550 -0.3347 -0.6201 -0.2329
   11MOL   O290 4910   7.992   7.087   4.325 -0.4178 -0.3154  0.3778
   11MOL   C291 4911   8.034   7.356   4.343  0.5929  0.0537 -0.1954
   11MOL   C292 4912   8.067   7.494   4.349  0.6000 -0.2836  0.3021
   11MOL   H293 4913   8.230   7.815   4.856  2.1042  0.9145 -0.6135
   11MOL   H294 4914   8.054   7.853   4.834  0.3663  1.2705  0.3781
   11MOL   H295 4915   0.015   7.912   4.638 -1.6170  2.4638  2.1496
   11MOL   H296 4916   8.117   7.936   4.606 -1.8838 -1.5604  0.5125
   11MOL   H297 4917   8.109   7.493   4.687  0.7114 -0.1743  0.1441
   11MOL   H298 4918   8.030   7.282   4.667  1.3457 -1.8287 -1.3896
   11MOL   H299 4919   8.010   7.325   4.242  0.0360  0.8255 -0.2976
   11MOL   H300 4920   8.078   7.566   4.270  4.2071 -3.2023 -2.0181
   11MOL   O301 4921   7.955   6.939   4.309  0.3576  0.5051 -0.3477
   11MOL   C302 4922   8.074   6.867   4.314  0.1237  0.9161 -0.0444
   11MOL   C303 4923   8.057   6.714   4.311 -0.1499  0.3618  1.1039
   11MOL   O304 4924   8.174   6.651   4.361 -1.0045 -0.3859 -0.2199
   11MOL   C305 4925   8.222   6.540   4.303  0.1387 -1.3360  0.8019
   11MOL   O306 4926   8.182   6.500   4.195  0.3357  0.2695 -0.6467
   11MOL   C307 4927   0.045   6.466   4.384  0.1227 -0.5828 -0.3691
   11MOL   C308 4928   0.089   6.336   4.345 -0.6869 -0.2643  1.3271
   11MOL   C309 4929   0.202   6.275   4.408  0.5785  0.0263 -0.0427
   11MOL   C310 4930   0.250   6.332   4.530  0.3147 -0.1013  0.2053
   11MOL   C311 4931   0.353   6.254   4.608  0.3130  0.4842  0.0984
   11MOL   O312 4932   0.378   6.134   4.571  0.4189 -0.2988 -0.2382
   11MOL   O313 4933   0.411   6.330   4.706 -0.2153 -0.0849  0.1669
   11MOL   C314 4934   0.203   6.459   4.571 -0.3059 -0.2445 -0.4180
   11MOL   C315 4935   0.106   6.528   4.495  0.4942  0.1172  0.1185
   11MOL   H316 4936   8.139   6.899   4.233  1.3289 -0.4757  0.3414
   11MOL   H317 4937   8.121   6.896   4.408 -2.3453 -0.1304  1.5503
   11MOL   H318 4938   8.041   6.680   4.209 -2.2495  1.6259  0.9878
   11MOL   H319 4939   7.969   6.686   4.369 -0.7101  0.7490  0.4393
   11MOL   H320 4940   0.049   6.292   4.255 -3.5306  1.0281  1.9182
   11MOL   H321 4941   0.241   6.190   4.356 -2.0541 -0.8229 -0.7304
   11MOL   H322 4942   0.243   6.507   4.659  0.4517 -0.3570 -0.6944
   11MOL   H323 4943   0.062   6.619   4.535 -1.8115 -0.1280 -1.7888
   11MOL   O324 4944   0.530   6.274   4.772 -0.3623 -1.0036 -0.1705
   11MOL   C325 4945   0.643   6.363   4.746  0.3202  0.5705  0.5275
   11MOL   C326 4946   0.726   6.308   4.637 -0.6181 -0.5630  0.0265
   11MOL   O327 4947   0.676   6.337   4.508  0.2784  0.8788  0.0521
   11MOL   C328 4948   0.704   6.251   4.407  0.9205  0.7934  0.3400
   11MOL   O329 4949   0.795   6.168   4.413  0.0481  0.4017  0.2410
   11MOL   C330 4950   0.618   6.262   4.288  1.1018 -0.1381 -0.1989
   11MOL   C331 4951   0.514   6.353   4.282 -0.3984 -0.2826  0.7262
   11MOL   C332 4952   0.424   6.355   4.165 -0.2983 -0.0488  0.2307
   11MOL   C333 4953   0.432   6.266   4.061 -0.1644  0.1784 -0.2277
   11MOL   C334 4954   0.322   6.247   3.955  0.1377 -0.7425 -0.7237
   11MOL   O335 4955   0.320   6.165   3.863 -0.9030 -0.6128 -0.4996
   11MOL   O336 4956   0.226   6.345   3.957  0.1789  0.6842 -0.2956
   11MOL   C337 4957   0.549   6.178   4.065  0.4874 -0.9790  0.4579
   11MOL   C338 4958   0.642   6.180   4.175 -0.3500 -0.6568 -1.2482
   11MOL   H339 4959   0.610   6.464   4.721 -0.5833 -0.0137 -0.6897
   11MOL   H340 4960   0.694   6.368   4.842  1.7180 -1.5302 -0.0973
   11MOL   H341 4961   0.735   6.202   4.658  1.7765 -0.8385 -2.1050
   11MOL   H342 4962   0.826   6.346   4.658  0.1258 -2.3790 -0.1451
   11MOL   H343 4963   0.499   6.424   4.362  0.5323 -1.8958  2.3556
   11MOL   H344 4964   0.348   6.432   4.170  0.1180  0.3059  1.3020
   11MOL   H345 4965   0.552   6.112   3.979  0.8878 -0.4590  0.0718
   11MOL   H346 4966   0.728   6.114   4.174  1.5617  1.7597  0.8483
   11MOL   O347 4967   0.108   6.312   3.869  0.1624  0.4614  0.4523
   11MOL   C348 4968   0.119   6.384   3.749  0.0721 -0.0220 -0.4682
   11MOL   C349 4969   0.030   6.315   3.649 -0.5634 -0.2790 -0.2743
   11MOL   O350 4970   0.112   6.244   3.566 -0.2321 -0.3897  0.0284
   11MOL   C351 4971   0.143   6.284   3.442 -0.3930  0.4026 -0.0074
   11MOL   O352 4972   0.109   6.390   3.386 -0.0960  0.5367 -0.0915
   11MOL   C353 4973   0.230   6.189   3.370  0.4733 -0.8526 -0.0975
   11MOL   C354 4974   0.230   6.054   3.396 -0.0856  0.2112 -0.7769
   11MOL   C355 4975   0.320   5.960   3.333  0.0141  0.0465  0.4980
   11MOL   C356 4976   0.409   6.013   3.236  0.1751 -0.3060 -0.4579
   11MOL   C357 4977   0.504   5.933   3.160  0.1721  0.3033  0.5451
   11MOL   O358 4978   0.576   5.973   3.072 -0.5629  0.7752  0.6359
   11MOL   O359 4979   0.491   5.790   3.186 -0.5151  0.4304 -0.7502
   11MOL   C360 4980   0.408   6.155   3.212 -0.3733  0.4417 -0.2809
   11MOL   C361 4981   0.323   6.242   3.278 -0.0333  0.4870  0.1609
   11MOL   H362 4982   0.087   6.483   3.779 -0.0727 -1.3839  4.3165
   11MOL   H363 4983   0.223   6.381   3.719  0.2082  1.3370 -0.1219
   11MOL   H364 4984   8.257   6.397   3.596  2.6259  2.3374  0.7370
   11MOL   H365 4985   8.224   6.253   3.687 -0.2623  1.1608  2.8530
   11MOL   H366 4986   0.160   6.023   3.472 -1.6899  2.8282 -1.1519
   11MOL   H367 4987   0.321   5.858   3.367  0.7074  0.1547  0.8233
   11MOL   H368 4988   0.478   6.201   3.144  1.5874  0.4922  1.7190
   11MOL   H369 4989   0.319   6.346   3.250  2.3655  0.5466 -0.0748
   11MOL   O370 4990   0.577   5.694   3.099 -0.1385  0.2349 -0.1839
   11MOL   C371 4991   0.689   5.648   3.171  0.0448 -0.2260  0.4420
   11MOL   C372 4992   0.652   5.557   3.289 -0.2001 -0.0613 -0.6830
   11MOL   O373 4993   0.606   5.430   3.249 -0.3299 -0.1120  0.5008
   11MOL   C374 4994   0.683   5.313   3.256 -0.2403 -0.7222 -0.4202
   11MOL   O375 4995   0.789   5.309   3.314 -0.4103  0.0310  0.0742
   11MOL   C376 4996   0.627   5.195   3.187  0.6026 -0.0591  0.3622
   11MOL   C377 4997   0.500   5.194   3.133 -0.0285  0.3381 -0.1183
   11MOL   C378 4998   0.459   5.083   3.063  0.1064 -0.4899  0.6532
   11MOL   C379 4999   0.541   4.964   3.055  0.1427 -0.2689  0.6774
   11MOL   C380 5000   0.491   4.846   2.971  0.0613  0.7138 -0.0042
   11MOL   O381 5001   0.394   4.858   2.896  0.5093  0.5691 -0.1553
   11MOL   O382 5002   0.555   4.732   2.991  0.5413  0.7304 -0.0847
   11MOL   C383 5003   0.667   4.967   3.118  0.0715  0.0447  0.7075
   11MOL   C384 5004   0.714   5.084   3.177  0.2031 -0.0289  0.3393
   11MOL   H385 5005   0.751   5.587   3.105 -0.1473  0.3775 -0.3000
   11MOL   H386 5006   0.748   5.735   3.201  1.3008 -0.4875 -1.2399
   11MOL   H387 5007   0.576   5.603   3.352  0.1106  2.1703 -1.8825
   11MOL   H388 5008   0.746   5.540   3.341  0.5701  2.2563 -1.2610
   11MOL   H389 5009   0.438   5.282   3.139  0.1518  0.4034  0.7774
   11MOL   H390 5010   0.364   5.086   3.012 -1.1351 -0.4354  2.9136
   11MOL   H391 5011   0.738   4.886   3.116  0.5369  0.4317  1.4946
   11MOL   H392 5012   0.814   5.092   3.216  1.3587 -0.3889 -2.4326
   11MOL   O393 5013   0.502   4.620   2.911 -0.3990 -0.1764  0.3579
   11MOL   C394 5014   0.414   4.539   2.989 -0.3823 -0.6673 -0.0197
   11MOL   C395 5015   0.382   4.419   2.901 -0.8150  0.1166  0.0562
   11MOL   O396 5016   0.289   4.470   2.811  0.4400  0.2017 -0.2872
   11MOL   C397 5017   0.309   4.487   2.682 -0.0211 -0.4578  0.4063
   11MOL   O398 5018   0.406   4.436   2.627  0.1947  0.2980 -0.2235
   11MOL   C399 5019   0.208   4.589   2.625  0.3919  0.4670  0.0912
   11MOL   C400 5020   0.104   4.638   2.704  0.7074  0.2143 -0.0628
   11MOL   C401 5021   0.001   4.707   2.642  0.4235 -0.1088 -0.4490
   11MOL   C402 5022   0.004   4.741   2.503  0.8248  0.2064  0.2123
   11MOL   C403 5023   8.169   4.817   2.445  0.4110  0.1837 -0.0872
   11MOL   O404 5024   8.156   4.822   2.325 -0.0188 -0.2040  0.1323
   11MOL   O405 5025   8.095   4.881   2.532 -0.4325  0.0215  0.1529
   11MOL   C406 5026   0.107   4.687   2.424  0.0933 -0.8086  0.3960
   11MOL   C407 5027   0.217   4.614   2.489 -0.0413  0.0508  0.1744
   11MOL   H408 5028   0.465   4.514   3.083 -1.4006  2.9557  1.5787
   11MOL   H409 5029   0.320   4.586   3.015 -1.1761 -2.2616  0.0683
   11MOL   H410 5030   0.350   4.327   2.952 -0.9378  0.4775  0.6350
   11MOL   H411 5031   0.463   4.375   2.841  1.2549 -0.0195  2.8156
   11MOL   H412 5032   0.088   4.615   2.808  1.5785 -1.1713 -0.2143
   11MOL   H413 5033   8.190   4.738   2.699 -0.2900 -1.5370 -0.7510
   11MOL   H414 5034   0.095   4.704   2.318 -0.2164 -3.0502  0.0485
   11MOL   H415 5035   0.296   4.567   2.432  0.2118  0.5242  0.1249
   11MOL   O416 5036   8.010   4.989   2.468 -1.0502  0.2584 -0.0445
   11MOL   C417 5037   8.078   5.111   2.497 -0.6012  0.3286  0.7409
   11MOL   C418 5038   8.009   5.231   2.428  0.9715 -0.3115  0.6674
   11MOL   O419 5039   8.108   5.288   2.341 -0.5652  0.6376 -0.0979
   11MOL   C420 5040   8.085   5.394   2.262  0.1048 -0.3056  0.2630
   11MOL   O421 5041   7.974   5.445   2.268 -0.6027 -0.2054  0.0265
   11MOL   C422 5042   8.193   5.437   2.167 -0.4884 -0.1767  0.7107
   11MOL   C423 5043   0.037   5.353   2.151  1.2840 -0.8141 -0.4920
   11MOL   C424 5044   0.141   5.397   2.068  0.1464  0.4329 -0.4820
   11MOL   C425 5045   0.133   5.519   1.997 -0.5809  0.8464  0.0044
   11MOL   C426 5046   0.256   5.572   1.929  0.2228 -0.2140 -0.0523
   11MOL   O427 5047   0.356   5.504   1.932 -0.4283 -0.0605 -0.5040
   11MOL   O428 5048   0.239   5.687   1.854 -0.1960  0.0055 -0.1361
   11MOL   C429 5049   0.012   5.588   2.004 -0.2602 -0.6968 -0.4834
   11MOL   C430 5050   8.181   5.549   2.085 -0.4010  0.2941  0.2791
   11MOL   H431 5051   8.076   5.123   2.605  2.4306  0.4207  0.8429
   11MOL   H432 5052   8.185   5.109   2.475 -0.9132  1.0055 -0.9216
   11MOL   H433 5053   7.976   5.302   2.503 -0.6059  0.5040 -0.7798
   11MOL   H434 5054   7.929   5.191   2.366  1.9988 -0.5819 -0.5164
   11MOL   H435 5055   0.033   5.264   2.212 -2.5707  0.8340  1.8873
   11MOL   H436 5056   0.224   5.328   2.056 -1.3758 -1.4652 -0.2582
   11MOL   H437 5057   8.272   5.675   1.942  0.5322  0.1348  0.4702
   11MOL   H438 5058   8.087   5.601   2.095 -1.5852 -1.3286 -2.0416
   11MOL   O439 5059   0.365   5.732   1.796 -0.0936  0.6098  0.1029
   11MOL   C440 5060   0.422   5.832   1.873 -0.4133 -0.2228  0.1694
   11MOL   C441 5061   0.345   5.960   1.847  0.5528 -0.2503  0.0459
   11MOL   O442 5062   0.222   5.961   1.922 -0.2056  0.4800 -0.0879
   11MOL   C443 5063   0.235   6.009   2.051 -0.1986 -0.4149  0.0943
   11MOL   O444 5064   0.347   6.027   2.105 -1.0354  0.2252 -0.1832
   11MOL   C445 5065   0.103   6.037   2.106 -0.3137  1.1545  0.2687
   11MOL   C446 5066   8.259   5.979   2.059  0.6233 -0.1292  0.5688
   11MOL   C447 5067   8.137   6.007   2.114 -0.1868  0.4075  0.0787
   11MOL   C448 5068   8.131   6.098   2.218 -0.1561 -0.0369 -0.3925
   11MOL   C449 5069   8.001   6.144   2.270 -0.2006 -0.3181  0.9870
   11MOL   O450 5070   7.986   6.244   2.344  0.0216  0.2951 -0.3242
   11MOL   O451 5071   7.895   6.080   2.220 -0.1905  0.2472  0.5836
   11MOL   C452 5072   8.246   6.156   2.271  0.3439 -0.0690 -0.1394
   11MOL   C453 5073   0.092   6.130   2.209 -0.1948  0.5038  0.3466
   11MOL   H454 5074   0.423   5.810   1.980  0.7452  0.5193  0.3171
   11MOL   H455 5075   0.529   5.844   1.852  0.1770  0.2119  3.1684
   11MOL   H456 5076   0.332   5.974   1.740  0.7185 -2.4500 -0.2800
   11MOL   H457 5077   0.406   6.048   1.869  1.5455 -0.3892 -2.0628
   11MOL   H458 5078   8.259   5.918   1.970 -0.7537 -0.4652  0.7966
   11MOL   H459 5079   8.047   5.968   2.068 -0.9725  0.1395  1.7855
   11MOL   H460 5080   8.241   6.228   2.351  2.1247 -0.1940  0.0962
   11MOL   H461 5081   0.181   6.156   2.265 -0.2179 -2.3990  1.8190
   11MOL   H462 5082   7.813   6.127   2.215 -0.6181 -0.7505 -2.6866
   12MOL     O1 5083   2.616   4.039   3.627  0.3643 -0.1204  0.5307
   12MOL     C2 5084   2.545   4.149   3.575 -1.0473  0.2207 -0.1534
   12MOL     C3 5085   2.409   4.097   3.509 -0.1622  0.6786 -0.1269
   12MOL     O4 5086   2.313   4.196   3.478  0.6138 -0.1927 -0.7800
   12MOL     C5 5087   2.339   4.294   3.391 -0.2498  0.1023 -0.4265
   12MOL     O6 5088   2.454   4.320   3.345  0.1556 -0.6079  0.1147
   12MOL     C7 5089   2.210   4.356   3.349  0.2692  0.2676  0.6416
   12MOL     C8 5090   2.213   4.435   3.231  0.1856  0.1260 -0.4442
   12MOL     C9 5091   2.097   4.468   3.169  0.1102 -0.1459  1.2000
   12MOL    C10 5092   1.972   4.430   3.216  0.0430  0.1479 -0.1560
   12MOL    C11 5093   1.852   4.488   3.151  0.4591 -0.2103  0.0939
   12MOL    O12 5094   1.859   4.581   3.071  0.3474 -0.2469 -0.0584
   12MOL    O13 5095   1.736   4.426   3.190  0.0373 -0.0564  0.1856
   12MOL    C14 5096   1.962   4.351   3.335  0.2209 -0.3154 -0.1664
   12MOL    C15 5097   2.082   4.315   3.401 -0.4354 -0.1187  0.4732
   12MOL    H16 5098   2.516   4.210   3.661  0.8476 -0.1450  0.7735
   12MOL    H17 5099   2.604   4.218   3.514 -1.5489  1.2309  0.4778
   12MOL    H18 5100   2.361   4.036   3.587 -0.9287  0.2269 -0.9403
   12MOL    H19 5101   2.418   4.031   3.423 -1.9578  1.0259 -0.6162
   12MOL    H20 5102   2.309   4.470   3.196  0.2407  0.1432 -0.2709
   12MOL    H21 5103   2.104   4.529   3.080  0.5355 -2.7679 -0.6139
   12MOL    H22 5104   1.868   4.344   3.388 -0.5469 -1.6611 -1.6933
   12MOL    H23 5105   2.083   4.274   3.501 -0.3742  0.8728  0.8960
   12MOL    H24 5106   2.693   4.057   3.680 -1.0315 -0.1505  2.6427
   12MOL    O25 5107   1.609   4.492   3.136 -0.1552  0.4278  0.3757
   12MOL    C26 5108   1.562   4.570   3.247  0.3213 -0.8476 -0.1203
   12MOL    C27 5109   1.435   4.643   3.212  0.1578  0.1182  0.3762
   12MOL    O28 5110   1.380   4.701   3.328  0.6331 -0.3490  0.3220
   12MOL    C29 5111   1.273   4.652   3.389 -0.3203  0.2991  0.8123
   12MOL    O30 5112   1.197   4.569   3.341  0.4241  0.4682  0.5854
   12MOL    C31 5113   1.267   4.696   3.525 -0.2091  0.2201 -0.1764
   12MOL    C32 5114   1.151   4.681   3.605  0.1653 -0.4404  0.1021
   12MOL    C33 5115   1.139   4.734   3.736  1.1494  0.9057  0.7255
   12MOL    C34 5116   1.251   4.804   3.788 -0.2466 -0.1507 -0.6135
   12MOL    C35 5117   1.251   4.865   3.924  0.2420 -0.0797 -0.2957
   12MOL    O36 5118   1.342   4.937   3.970  0.0023 -0.2203 -0.6972
   12MOL    O37 5119   1.139   4.849   3.993 -0.5692  0.0199  0.3575
   12MOL    C38 5120   1.367   4.830   3.703  0.1269  0.7016  0.1470
   12MOL    C39 5121   1.372   4.778   3.575  0.6032 -0.1362  0.6418
   12MOL    H40 5122   1.545   4.509   3.336  0.4212  0.2525  0.6503
   12MOL    H41 5123   1.633   4.645   3.280  1.3381 -2.5251  1.6255
   12MOL    H42 5124   1.363   4.575   3.166 -1.1357  0.0558  2.4162
   12MOL    H43 5125   1.451   4.724   3.142  2.7294 -0.9848 -0.3945
   12MOL    H44 5126   1.062   4.628   3.576 -1.3306  1.6292  0.8160
   12MOL    H45 5127   1.044   4.716   3.784  0.6403 -1.7326 -1.1948
   12MOL    H46 5128   1.442   4.901   3.734  1.2812 -0.6896  0.5505
   12MOL    H47 5129   1.454   4.806   3.511 -0.4902 -2.6821 -1.9708
   12MOL    O48 5130   1.138   4.900   4.138  0.2098  0.0080  0.1548
   12MOL    C49 5131   1.066   5.021   4.142 -0.4342  0.9751  0.4637
   12MOL    C50 5132   0.915   5.006   4.139  0.4331 -0.6074  0.0973
   12MOL    O51 5133   0.854   5.065   4.253  0.5830  0.1593 -0.6207
   12MOL    C52 5134   0.721   5.073   4.258 -1.0861 -0.4976 -0.8839
   12MOL    O53 5135   0.646   5.016   4.180  0.6292 -0.2911 -0.3654
   12MOL    C54 5136   0.678   5.162   4.366 -0.0976  0.7374  0.3621
   12MOL    C55 5137   0.545   5.174   4.403 -0.4014  0.0134 -0.0961
   12MOL    C56 5138   0.500   5.249   4.514  0.3846  0.0916  0.1155
   12MOL    C57 5139   0.597   5.307   4.600  0.3391  0.0572  0.2891
   12MOL    C58 5140   0.557   5.379   4.730  0.2411 -0.3616 -0.1847
   12MOL    O59 5141   0.638   5.426   4.805 -0.4140 -0.5614 -0.3068
   12MOL    O60 5142   0.431   5.399   4.755 -0.2343 -0.8127  0.4370
   12MOL    C61 5143   0.735   5.311   4.557  0.4062 -0.2578 -0.4581
   12MOL    C62 5144   0.774   5.232   4.444 -0.3492 -0.3093 -0.5102
   12MOL    H63 5145   1.091   5.068   4.237  0.0218  0.0763  0.7950
   12MOL    H64 5146   1.107   5.085   4.064  1.1539  1.1156  1.3986
   12MOL    H65 5147   0.888   4.903   4.116  1.7754 -0.7979 -0.6830
   12MOL    H66 5148   0.872   5.057   4.052 -2.3934 -0.7876  1.3332
   12MOL    H67 5149   0.477   5.129   4.332  0.5651  0.6150 -1.4325
   12MOL    H68 5150   0.395   5.262   4.537  0.3752  1.0457 -0.4538
   12MOL    H69 5151   0.810   5.362   4.616 -0.6655 -0.9191  1.5556
   12MOL    H70 5152   0.878   5.230   4.415 -1.0588  0.8555 -3.2461
   12MOL    O71 5153   0.394   5.438   4.897  0.1628 -0.2315 -0.6180
   12MOL    C72 5154   0.297   5.345   4.946  0.2209  0.2178  0.1665
   12MOL    C73 5155   0.371   5.212   4.990 -0.1778  0.6130  0.3106
   12MOL    O74 5156   0.405   5.131   4.882  0.2154 -0.3971 -0.6090
   12MOL    C75 5157   0.316   5.056   4.821  0.5027  0.1697  0.2016
   12MOL    O76 5158   0.197   5.040   4.856 -0.1427 -0.5691 -0.3086
   12MOL    C77 5159   0.370   4.985   4.704  0.1145  0.2819 -0.3071
   12MOL    C78 5160   0.282   4.938   4.605 -0.4631 -0.0946 -0.7326
   12MOL    C79 5161   0.340   4.861   4.499 -0.3867  0.0815 -0.4667
   12MOL    C80 5162   0.482   4.833   4.494  0.1433 -0.2018 -0.1215
   12MOL    C81 5163   0.545   4.750   4.392  0.0625  0.0732  0.5746
   12MOL    O82 5164   0.486   4.673   4.327  0.3751  0.7222 -0.2220
   12MOL    O83 5165   0.671   4.788   4.368 -0.6859  0.4014  0.0996
   12MOL    C84 5166   0.563   4.876   4.598  0.0949 -0.5292 -0.5813
   12MOL    C85 5167   0.505   4.957   4.696 -0.5759  0.4021  0.2620
   12MOL    H86 5168   0.265   5.391   5.039  0.4599  1.0059 -0.1373
   12MOL    H87 5169   0.213   5.318   4.882  0.5285 -0.3539  0.0027
   12MOL    H88 5170   0.316   5.157   5.066  0.1319 -0.1720 -0.0372
   12MOL    H89 5171   0.458   5.233   5.053  0.2725 -0.9819  0.2285
   12MOL    H90 5172   0.175   4.950   4.611 -0.3444  1.5371 -1.6509
   12MOL    H91 5173   0.271   4.820   4.427  1.2816 -2.9905 -0.3865
   12MOL    H92 5174   0.669   4.853   4.603 -0.0232 -0.9455 -0.0120
   12MOL    H93 5175   0.572   4.988   4.774 -1.6236 -0.4151  1.4941
   12MOL    O94 5176   0.751   4.701   4.276  0.5481 -0.0787 -0.5532
   12MOL    C95 5177   0.845   4.624   4.350 -0.3610 -0.0713 -0.8388
   12MOL    C96 5178   0.956   4.701   4.416 -0.1634 -0.3983  0.2779
   12MOL    O97 5179   0.918   4.767   4.533 -0.0345 -0.0786 -0.2209
   12MOL    C98 5180   1.004   4.776   4.628 -0.4097 -0.2468 -0.0971
   12MOL    O99 5181   1.104   4.699   4.637  0.2317 -0.1185 -0.0154
   12MOL   C100 5182   0.959   4.860   4.744 -0.2102  0.2765 -0.4372
   12MOL   C101 5183   0.912   4.991   4.719  0.4427 -0.1389 -0.0028
   12MOL   C102 5184   0.868   5.068   4.829 -0.4281 -0.6047 -0.0397
   12MOL   C103 5185   0.884   5.031   4.963  0.2721 -0.7407 -0.2556
   12MOL   C104 5186   0.855   5.121   5.069  0.4599  0.6388 -0.4930
   12MOL   O105 5187   0.829   5.244   5.058 -0.1007 -0.3497 -0.1255
   12MOL   O106 5188   0.870   5.064   5.193 -0.1004 -0.3283  0.5953
   12MOL   C107 5189   0.959   4.916   4.982  0.1440  0.0500 -0.5031
   12MOL   C108 5190   0.990   4.832   4.875  0.1696  0.1757  0.0693
   12MOL   H109 5191   0.791   4.564   4.423 -1.3939  2.2363  0.3397
   12MOL   H110 5192   0.889   4.553   4.279  1.0908  0.2834 -0.3035
   12MOL   H111 5193   1.009   4.779   4.361 -0.8355  0.3097  0.6139
   12MOL   H112 5194   1.032   4.629   4.446  0.7186  1.6327  3.1289
   12MOL   H113 5195   0.902   5.028   4.618  2.3172  0.4395  0.0064
   12MOL   H114 5196   0.819   5.160   4.801 -1.7201 -0.9199  1.1522
   12MOL   H115 5197   0.991   4.894   5.083 -2.0007 -1.4350 -0.1176
   12MOL   H116 5198   1.030   4.736   4.902  3.6767  1.6455  0.3141
   12MOL   O117 5199   0.839   5.158   5.299  0.2316  0.2376  0.4489
   12MOL   C118 5200   0.705   5.138   5.332  0.2187 -0.0019  0.8803
   12MOL   C119 5201   0.670   4.996   5.388 -0.5400 -0.4403 -0.6681
   12MOL   O120 5202   0.660   4.893   5.293  0.1219 -0.4108  0.5345
   12MOL   C121 5203   0.569   4.897   5.204 -0.8987 -0.3333  0.4674
   12MOL   O122 5204   0.467   4.973   5.201 -0.9882  0.1183  0.2025
   12MOL   C123 5205   0.603   4.808   5.096  0.4376  0.2918  0.4838
   12MOL   C124 5206   0.723   4.733   5.090 -0.0882  1.2661  0.4058
   12MOL   C125 5207   0.743   4.644   4.976 -0.6341 -0.6517 -0.5715
   12MOL   C126 5208   0.655   4.630   4.873 -0.2201  0.1148  0.4299
   12MOL   C127 5209   0.688   4.547   4.753 -0.1316  0.0277 -0.1529
   12MOL   O128 5210   0.799   4.530   4.712 -0.0353  0.0622  0.3103
   12MOL   O129 5211   0.581   4.481   4.701  0.0301  0.3016 -0.2968
   12MOL   C130 5212   0.526   4.689   4.888  0.3828  0.2760  0.3741
   12MOL   C131 5213   0.508   4.791   4.992  0.2127 -0.1144  0.3338
   12MOL   H132 5214   0.688   5.203   5.418  0.9701  2.7153 -0.9463
   12MOL   H133 5215   0.639   5.174   5.253 -1.7905 -2.4712  1.3772
   12MOL   H134 5216   0.575   5.004   5.441  0.2645  1.0885  0.5806
   12MOL   H135 5217   0.739   4.961   5.464 -3.6367 -2.4967  1.3281
   12MOL   H136 5218   0.795   4.727   5.169 -0.4300 -2.7046  0.5149
   12MOL   H137 5219   0.834   4.587   4.983  0.2497  0.9149  1.0660
   12MOL   H138 5220   0.440   4.671   4.825  1.4816 -0.6700 -0.8680
   12MOL   H139 5221   0.415   4.844   5.012 -0.4462 -0.3002 -2.1508
   12MOL   O140 5222   0.613   4.366   4.605  0.7384  0.0960  0.2998
   12MOL   C141 5223   0.603   4.238   4.674 -0.1121 -0.2318  0.9386
   12MOL   C142 5224   0.719   4.203   4.762 -0.2943  0.1677 -0.5429
   12MOL   O143 5225   0.718   4.259   4.894 -0.2113  0.3073 -0.1811
   12MOL   C144 5226   0.687   4.178   4.997  0.2475  0.8842  0.4083
   12MOL   O145 5227   0.675   4.056   4.995  0.2972 -0.2451 -0.0397
   12MOL   C146 5228   0.668   4.256   5.120 -0.3471  0.1680  0.6247
   12MOL   C147 5229   0.689   4.202   5.247  1.0610 -0.2300 -0.7241
   12MOL   C148 5230   0.663   4.276   5.365 -0.4336 -0.0545 -0.2481
   12MOL   C149 5231   0.618   4.410   5.354  0.4118  0.2531 -0.1000
   12MOL   C150 5232   0.592   4.497   5.476 -0.2029 -0.7820  0.4663
   12MOL   O151 5233   0.584   4.457   5.592  0.2369 -0.4580 -0.1505
   12MOL   O152 5234   0.576   4.634   5.436  0.2306 -0.1246  0.6206
   12MOL   C153 5235   0.588   4.457   5.225  0.6260  0.4618 -0.1736
   12MOL   C154 5236   0.615   4.382   5.111  1.3527 -0.1538 -0.9657
   12MOL   H155 5237   0.516   4.252   4.737  0.4456  1.1829  1.4240
   12MOL   H156 5238   0.584   4.157   4.604  2.2966 -0.4618  0.4948
   12MOL   H157 5239   0.806   4.222   4.698 -1.5285  3.1117 -1.4236
   12MOL   H158 5240   0.734   4.096   4.775  2.9623  0.3439 -2.3168
   12MOL   H159 5241   0.732   4.104   5.259  1.0909  0.1353  2.6912
   12MOL   H160 5242   0.690   4.227   5.457 -3.9481 -1.3941  0.1646
   12MOL   H161 5243   0.551   4.555   5.201  2.3331  1.0988 -0.2329
   12MOL   H162 5244   0.586   4.424   5.015  0.9176 -0.4216 -0.9578
   12MOL   O163 5245   0.579   4.728   5.553  0.1429 -0.0760  0.3229
   12MOL   C164 5246   0.450   4.746   5.604 -0.1074 -0.4740 -1.1789
   12MOL   C165 5247   0.474   4.767   5.758 -0.2706 -0.4512 -0.2363
   12MOL   O166 5248   0.503   4.897   5.790 -0.3170 -0.2099  0.3088
   12MOL   C167 5249   0.585   4.926   5.889 -0.8750  0.3804  0.0494
   12MOL   O168 5250   0.637   4.841   5.959 -0.3306 -0.3883 -0.2313
   12MOL   C169 5251   0.621   5.075   5.894 -0.2574 -0.2337  0.1899
   12MOL   C170 5252   0.736   5.113   5.963 -0.3656  0.5295 -0.6477
   12MOL   C171 5253   0.768   5.247   5.994 -0.1786  0.1470  0.0530
   12MOL   C172 5254   0.676   5.347   5.949 -0.3800 -0.5907 -0.0638
   12MOL   C173 5255   0.694   5.489   5.977 -0.9146 -0.3231  0.0890
   12MOL   O174 5256   0.610   5.578   5.956 -0.0632 -0.8545 -0.6944
   12MOL   O175 5257   0.805   5.524   6.042  0.3441  0.6914 -0.1201
   12MOL   C176 5258   0.567   5.308   5.871  0.4330  1.3213  0.3872
   12MOL   C177 5259   0.535   5.173   5.846 -0.3576  0.5763 -0.6209
   12MOL   H178 5260   0.389   4.827   5.563  0.9148  1.9447  1.9050
   12MOL   H179 5261   0.392   4.654   5.599 -1.4418  0.2706  0.1760
   12MOL   H180 5262   0.566   4.710   5.769 -0.6281 -0.9227  0.4232
   12MOL   H181 5263   0.395   4.725   5.822 -0.3597 -1.4050 -0.9626
   12MOL   H182 5264   0.802   5.043   6.012  0.4211  1.3409 -0.5133
   12MOL   H183 5265   0.853   5.264   6.059  1.2008 -1.5042 -1.3029
   12MOL   H184 5266   0.489   5.374   5.835 -1.4314  0.1436  2.1384
   12MOL   H185 5267   0.439   5.153   5.802  0.0176  0.2073 -1.2747
   12MOL   O186 5268   0.824   5.674   6.066 -0.1189  0.7237 -0.4096
   12MOL   C187 5269   0.923   5.717   5.976 -0.0652 -0.4050 -0.3541
   12MOL   C188 5270   0.890   5.865   5.949 -0.3156  0.0458  0.2509
   12MOL   O189 5271   0.775   5.872   5.867 -0.6757 -0.6049 -0.0863
   12MOL   C190 5272   0.675   5.948   5.900 -0.0286 -0.4928 -0.1989
   12MOL   O191 5273   0.678   6.028   5.995  0.2157 -0.2197 -0.5573
   12MOL   C192 5274   0.549   5.943   5.819 -0.5012 -0.0232 -0.1045
   12MOL   C193 5275   0.453   6.046   5.836  0.8076 -0.3055  1.1510
   12MOL   C194 5276   0.327   6.045   5.763 -0.4840  0.4014 -0.4614
   12MOL   C195 5277   0.303   5.947   5.668  0.2353 -0.2187  0.2691
   12MOL   C196 5278   0.171   5.940   5.606  0.3426  0.3334  0.6565
   12MOL   O197 5279   0.141   5.868   5.513  0.1367  0.0457  0.1956
   12MOL   O198 5280   0.079   6.025   5.657 -0.1871  0.3927  0.1666
   12MOL   C199 5281   0.405   5.852   5.635 -0.2334  0.1318 -0.4724
   12MOL   C200 5282   0.519   5.850   5.721  0.0966  0.3756 -0.9059
   12MOL   H201 5283   1.020   5.717   6.025 -0.4343 -0.5893  0.4058
   12MOL   H202 5284   0.922   5.662   5.882 -1.0043 -0.2148 -0.4576
   12MOL   H203 5285   0.973   5.914   5.898 -1.3690  0.6040 -0.9416
   12MOL   H204 5286   0.889   5.911   6.048 -0.5106 -0.4259  0.4681
   12MOL   H205 5287   0.455   6.128   5.907 -0.4572  1.2886 -0.5971
   12MOL   H206 5288   0.252   6.121   5.780 -0.9627  0.1399 -1.3604
   12MOL   H207 5289   0.391   5.774   5.562 -0.0043 -1.3240  1.0425
   12MOL   H208 5290   0.580   5.762   5.710 -0.9902 -0.4965  0.0144
   12MOL   O209 5291   8.208   6.001   5.613 -0.5156 -0.1500 -0.0837
   12MOL   C210 5292   8.165   6.122   5.543  0.3373  0.3527 -0.4315
   12MOL   C211 5293   8.245   6.152   5.412 -0.3377  0.6359 -0.5697
   12MOL   O212 5294   8.248   6.295   5.373 -0.0820 -0.1208 -0.4051
   12MOL   C213 5295   8.139   6.337   5.306 -0.3609  0.0409 -0.1154
   12MOL   O214 5296   8.035   6.268   5.287  0.4753  0.4260 -0.5135
   12MOL   C215 5297   8.164   6.475   5.258  0.5160  0.2135  0.1925
   12MOL   C216 5298   0.006   6.547   5.289 -0.1233  0.0535 -0.2398
   12MOL   C217 5299   0.031   6.678   5.236  0.5574  0.2347 -0.1343
   12MOL   C218 5300   8.202   6.743   5.166 -0.0878 -0.9184  0.3470
   12MOL   C219 5301   8.221   6.887   5.140 -0.3749 -0.2971 -0.5655
   12MOL   O220 5302   0.032   6.953   5.202 -0.0598  0.1965 -0.2173
   12MOL   O221 5303   8.115   6.952   5.079  0.2731  0.8926  0.4766
   12MOL   C222 5304   8.085   6.670   5.129 -0.3412 -0.4650 -0.8096
   12MOL   C223 5305   8.067   6.538   5.178  0.6040 -0.0410 -0.0189
   12MOL   H224 5306   8.059   6.107   5.527  0.1352  1.0262  0.2791
   12MOL   H225 5307   8.192   6.194   5.620  0.4256 -0.7931  0.6135
   12MOL   H226 5308   8.199   6.100   5.328  0.4632  2.1919 -1.9991
   12MOL   H227 5309   0.068   6.105   5.411 -0.9625 -0.7148  0.3154
   12MOL   H228 5310   0.086   6.508   5.351  0.7620  1.9441 -0.1651
   12MOL   H229 5311   0.124   6.729   5.259  0.0994  1.9125 -1.9195
   12MOL   H230 5312   8.004   6.720   5.078 -0.8881 -1.2381 -0.6999
   12MOL   H231 5313   7.975   6.494   5.141 -1.5970  3.5714  0.8809
   12MOL   O232 5314   8.117   7.100   5.101  0.4198  0.4369  0.3701
   12MOL   C233 5315   8.021   7.133   5.207  0.8475 -0.5966  0.1526
   12MOL   C234 5316   8.025   7.283   5.241  0.4620 -0.1514  0.0243
   12MOL   O235 5317   7.957   7.292   5.366 -0.3647  0.1160  0.1078
   12MOL   C236 5318   7.824   7.308   5.373  0.3809  0.1858  0.2961
   12MOL   O237 5319   7.755   7.321   5.272  0.3219  0.1055  0.5166
   12MOL   C238 5320   7.766   7.307   5.513 -0.2580 -0.4777 -0.6063
   12MOL   C239 5321   7.840   7.302   5.629 -0.5400  0.2563 -0.6013
   12MOL   C240 5322   7.780   7.303   5.754  0.0607 -0.4170 -0.4287
   12MOL   C241 5323   7.642   7.328   5.770 -0.4690 -0.7648  0.4284
   12MOL   C242 5324   7.588   7.343   5.905  0.1619  0.0189  0.3833
   12MOL   O243 5325   7.470   7.315   5.928  0.4729 -0.2914  0.1378
   12MOL   O244 5326   7.673   7.404   5.988  0.6982 -0.2601 -0.0242
   12MOL   C245 5327   7.560   7.324   5.656 -0.4757  0.7133 -0.5028
   12MOL   C246 5328   7.622   7.319   5.527  0.1292 -0.1304  0.5712
   12MOL   H247 5329   7.920   7.098   5.181  0.2941  0.3408  1.0409
   12MOL   H248 5330   8.064   7.091   5.297  0.0943  1.2731  1.4069
   12MOL   H249 5331   7.979   7.351   5.170 -0.1656  0.4259  0.9773
   12MOL   H250 5332   8.130   7.311   5.242 -0.0499  1.9136 -1.4540
   12MOL   H251 5333   7.947   7.318   5.623 -0.4277 -0.3948 -0.3850
   12MOL   H252 5334   7.845   7.311   5.840  0.6856 -0.4682 -0.8950
   12MOL   H253 5335   7.453   7.337   5.656 -0.5594  0.1910 -2.1879
   12MOL   H254 5336   7.558   7.317   5.440 -1.7637 -0.8323  1.9733
   12MOL   O255 5337   7.612   7.456   6.111 -0.0260  0.2491 -0.4544
   12MOL   C256 5338   7.594   7.595   6.097  0.2715 -1.0727  0.0037
   12MOL   C257 5339   7.702   7.665   6.161 -0.4385 -0.4144  0.0500
   12MOL   O258 5340   7.813   7.661   6.073  0.0134 -0.1257  0.1654
   12MOL   C259 5341   7.923   7.730   6.099 -0.9660  0.4800 -0.5121
   12MOL   O260 5342   7.935   7.807   6.193  0.4138 -0.8703  0.1704
   12MOL   C261 5343   8.017   7.706   5.981 -0.0923  0.0868 -0.0816
   12MOL   C262 5344   8.130   7.792   5.964  0.4444 -0.0531 -0.2462
   12MOL   C263 5345   8.221   7.759   5.864 -0.3508 -0.2842 -0.1975
   12MOL   C264 5346   8.205   7.649   5.781  0.6871 -0.3290 -0.2109
   12MOL   C265 5347   0.034   7.618   5.680 -0.5412 -0.9142  0.7379
   12MOL   O266 5348   0.142   7.681   5.670  0.2476 -0.0174  0.0194
   12MOL   O267 5349   8.273   7.506   5.603  0.6447  0.1001  0.2938
   12MOL   C268 5350   8.089   7.572   5.790  0.0205  0.4732 -0.7846
   12MOL   C269 5351   7.994   7.600   5.894 -0.1513 -0.3748 -0.2066
   12MOL   H270 5352   7.571   7.627   5.996 -0.1920 -2.2895 -0.2894
   12MOL   H271 5353   7.512   7.624   6.163 -0.1272 -0.7897 -0.6184
   12MOL   H272 5354   7.729   7.622   6.257  0.7041  3.1503  1.4259
   12MOL   H273 5355   7.673   7.768   6.183 -1.3093 -0.8850  1.1124
   12MOL   H274 5356   8.140   7.869   6.039 -1.0336 -0.2624  0.1697
   12MOL   H275 5357   0.020   7.834   5.841 -1.3700  0.7751 -0.0793
   12MOL   H276 5358   8.066   7.493   5.719  0.2130 -1.6941  1.4817
   12MOL   H277 5359   7.912   7.530   5.899 -0.3036 -0.0413  2.2558
   12MOL   O278 5360   0.103   7.450   5.516 -0.2257 -0.1878 -0.2915
   12MOL   C279 5361   0.146   7.323   5.572  0.7747 -0.4623  1.2335
   12MOL   C280 5362   0.286   7.311   5.521 -0.0279  0.1998  0.2614
   12MOL   O281 5363   0.377   7.381   5.604 -0.1682 -0.6801  0.1262
   12MOL   C282 5364   0.506   7.395   5.568 -0.3288 -0.4525 -0.1639
   12MOL   O283 5365   0.562   7.336   5.472  0.2353  0.3390  0.0163
   12MOL   C284 5366   0.582   7.484   5.657  0.0721 -0.8324  0.0114
   12MOL   C285 5367   0.522   7.592   5.731  0.0444 -0.5335 -0.2890
   12MOL   C286 5368   0.598   7.680   5.821  0.0955  0.6260 -0.7625
   12MOL   C287 5369   0.735   7.649   5.829 -0.7182  0.0440 -0.4227
   12MOL   C288 5370   0.814   7.737   5.926 -0.2229 -0.1553  0.4931
   12MOL   O289 5371   0.936   7.725   5.943  0.1121 -0.4531  0.1360
   12MOL   O290 5372   0.746   7.826   5.993  0.3737 -0.0343 -0.7224
   12MOL   C291 5373   0.802   7.546   5.756  0.2508  0.0659 -0.1406
   12MOL   C292 5374   0.719   7.462   5.674 -0.2941 -0.6450 -0.0308
   12MOL   H293 5375   0.149   7.331   5.681  2.0218  2.2587  1.0370
   12MOL   H294 5376   0.076   7.252   5.529  3.2615 -2.4369  0.2933
   12MOL   H295 5377   0.294   7.350   5.420  1.6127  1.1722  0.7358
   12MOL   H296 5378   0.312   7.205   5.526 -1.7623 -0.2431  0.1588
   12MOL   H297 5379   0.417   7.615   5.724  0.3008  0.2993 -1.5583
   12MOL   H298 5380   0.542   7.756   5.873 -0.3743  0.7575 -1.4456
   12MOL   H299 5381   0.908   7.531   5.764  0.2220 -0.7173 -1.0970
   12MOL   H300 5382   0.763   7.376   5.627 -0.2270 -0.4729 -0.2866
   12MOL   O301 5383   0.820   7.951   6.045 -0.1325 -0.3129  0.1783
   12MOL   C302 5384   0.844   7.932   6.179  0.4487  0.4964  0.1427
   12MOL   C303 5385   0.950   8.038   6.215 -0.6885 -0.0207 -0.0216
   12MOL   O304 5386   1.082   7.990   6.185 -0.5149 -0.1385 -0.0796
   12MOL   C305 5387   1.150   7.901   6.274  0.0457  0.0501 -0.0918
   12MOL   O306 5388   1.102   7.845   6.371  0.3262 -0.1411 -0.5971
   12MOL   C307 5389   1.292   7.881   6.234  0.0968  0.6088 -0.4053
   12MOL   C308 5390   1.354   7.971   6.143 -0.5355  0.1880  0.1994
   12MOL   C309 5391   1.488   7.943   6.113  0.2955 -0.2540  0.5010
   12MOL   C310 5392   1.559   7.839   6.172 -0.0150 -0.6692 -0.6427
   12MOL   C311 5393   1.701   7.831   6.135 -0.0079 -0.1942  0.3373
   12MOL   O312 5394   1.751   7.911   6.062  0.5123  0.1178 -0.4688
   12MOL   O313 5395   1.752   7.723   6.168  0.3030  0.4809  0.4048
   12MOL   C314 5396   1.498   7.756   6.266  0.0018 -1.1394  0.1889
   12MOL   C315 5397   1.363   7.768   6.292 -0.1788 -0.5428  0.3047
   12MOL   H316 5398   0.758   7.946   6.245  0.0780  0.8179 -0.4026
   12MOL   H317 5399   0.888   7.837   6.208  0.6959  0.0673 -1.6057
   12MOL   H318 5400   0.944   8.053   6.323  1.7250  2.6654 -0.1886
   12MOL   H319 5401   0.918   8.132   6.171  0.8603  0.1892 -0.7247
   12MOL   H320 5402   1.297   8.052   6.101  0.4839  0.8840  0.1426
   12MOL   H321 5403   1.534   8.007   6.040 -0.5530 -0.9850 -0.7018
   12MOL   H322 5404   1.554   7.682   6.322  0.5384  1.2922  2.9961
   12MOL   H323 5405   1.312   7.713   6.370 -1.9725  1.3947  0.5337
   12MOL   O324 5406   1.899   7.712   6.144  0.1015 -0.4732  0.7110
   12MOL   C325 5407   1.914   7.620   6.033 -0.5745 -0.1523 -0.3020
   12MOL   C326 5408   2.065   7.624   6.002  0.4798 -0.4730 -0.5940
   12MOL   O327 5409   2.112   7.532   5.900  0.2377 -0.0856 -0.4465
   12MOL   C328 5410   2.080   7.538   5.770 -0.0655  0.5551 -0.3834
   12MOL   O329 5411   2.012   7.631   5.728 -0.2218  0.0026 -0.5133
   12MOL   C330 5412   2.119   7.418   5.698  0.1540 -0.2271  0.2810
   12MOL   C331 5413   2.056   7.382   5.577 -0.7891 -0.3951  0.2165
   12MOL   C332 5414   2.077   7.257   5.524 -0.1835 -0.0528  0.8668
   12MOL   C333 5415   2.171   7.166   5.586  0.8175 -0.6339  0.1476
   12MOL   C334 5416   2.185   7.026   5.534  0.3295  0.3947 -0.3449
   12MOL   O335 5417   2.151   6.990   5.423 -0.3254 -0.4584  0.5309
   12MOL   O336 5418   2.232   6.939   5.626 -0.3084  0.7680  0.5534
   12MOL   C337 5419   2.243   7.205   5.699  0.7062  0.1712  0.2053
   12MOL   C338 5420   2.221   7.337   5.749  0.0697 -0.1096  0.7703
   12MOL   H339 5421   1.897   7.526   6.085 -1.2432 -0.1239 -0.4731
   12MOL   H340 5422   1.847   7.654   5.954  2.2863  0.4497 -2.5879
   12MOL   H341 5423   2.120   7.603   6.094  0.8187  1.3185 -0.3650
   12MOL   H342 5424   2.109   7.721   5.975  0.8012 -1.1217 -2.5148
   12MOL   H343 5425   1.973   7.435   5.532  0.5972  0.7819 -1.0161
   12MOL   H344 5426   2.019   7.213   5.444  0.7911 -2.1823  1.3095
   12MOL   H345 5427   2.309   7.142   5.756 -0.1521 -0.1840  0.8129
   12MOL   H346 5428   2.283   7.360   5.834  4.0450 -1.5485 -1.6210
   12MOL   O347 5429   2.214   6.792   5.608 -0.1510 -0.3104  0.5031
   12MOL   C348 5430   2.334   6.732   5.566  0.4048 -0.4569 -0.1100
   12MOL   C349 5431   2.425   6.683   5.676  0.0237 -1.2033  0.0906
   12MOL   O350 5432   2.471   6.783   5.762 -0.1849 -0.2661  0.3085
   12MOL   C351 5433   2.574   6.865   5.728 -0.3178 -0.2113 -0.2525
   12MOL   O352 5434   2.634   6.853   5.622  0.1270 -0.0606 -0.0827
   12MOL   C353 5435   2.604   6.969   5.830 -0.8470 -0.1138 -0.1141
   12MOL   C354 5436   2.718   7.054   5.823  0.3188 -0.0215 -0.1128
   12MOL   C355 5437   2.756   7.145   5.926  0.6442 -0.6086  0.3719
   12MOL   C356 5438   2.680   7.136   6.046  0.3662  0.2652 -0.1000
   12MOL   C357 5439   2.727   7.224   6.160 -0.3127  0.2748 -0.1407
   12MOL   O358 5440   2.822   7.302   6.161 -0.0645  0.3896 -1.0367
   12MOL   O359 5441   2.654   7.210   6.265 -0.4399  0.3447  0.3989
   12MOL   C360 5442   2.566   7.059   6.052  0.3307  0.2613 -0.2566
   12MOL   C361 5443   2.531   6.974   5.946 -0.1571  1.1398  0.1847
   12MOL   H362 5444   2.312   6.641   5.509  0.8747 -0.9113  0.4406
   12MOL   H363 5445   2.398   6.791   5.501 -0.9321  1.8877  0.6222
   12MOL   H364 5446   2.509   6.632   5.628 -1.9209 -3.1931 -1.2540
   12MOL   H365 5447   2.367   6.616   5.739  0.3205  0.5575  2.3010
   12MOL   H366 5448   2.780   7.060   5.735  0.3342  0.4230 -0.0760
   12MOL   H367 5449   2.849   7.197   5.913 -0.1404  1.3687  2.3841
   12MOL   H368 5450   2.501   7.067   6.137  0.0086  1.7283 -0.6303
   12MOL   H369 5451   2.443   6.914   5.962  0.0580 -0.0463 -2.8868
   12MOL   O370 5452   2.685   7.303   6.378  0.3894  0.2698  0.2206
   12MOL   C371 5453   2.569   7.383   6.410 -0.7220  0.5584  0.1257
   12MOL   C372 5454   2.607   7.507   6.495  0.1802 -0.4650 -0.0401
   12MOL   O373 5455   2.684   7.598   6.419  0.3764 -0.3258 -0.4861
   12MOL   C374 5456   2.676   7.732   6.443 -0.0608  1.0640  0.2012
   12MOL   O375 5457   2.611   7.773   6.537 -0.0241 -0.1054  0.3081
   12MOL   C376 5458   2.754   7.814   6.352 -0.7389  0.0931  1.2008
   12MOL   C377 5459   2.748   7.957   6.363  0.0794 -0.0477  0.9678
   12MOL   C378 5460   2.823   8.045   6.280  0.0424 -0.4335  0.0501
   12MOL   C379 5461   2.905   7.987   6.179  0.0015 -0.1803  0.5510
   12MOL   C380 5462   2.979   8.076   6.094  0.1210  0.3272 -0.2333
   12MOL   O381 5463   2.950   8.193   6.078 -0.8932 -0.6662 -0.6306
   12MOL   O382 5464   3.088   8.015   6.038  0.0828 -0.3362 -0.0841
   12MOL   C383 5465   2.907   7.847   6.160  0.1214 -0.6078  0.2892
   12MOL   C384 5466   2.837   7.762   6.248  0.3650 -0.5301  0.2800
   12MOL   H385 5467   2.507   7.405   6.323 -1.6583 -2.5184 -0.0358
   12MOL   H386 5468   2.504   7.320   6.469  1.7295 -1.4120  0.8050
   12MOL   H387 5469   2.656   7.491   6.591 -0.1033 -1.0941 -0.0041
   12MOL   H388 5470   2.510   7.546   6.524  0.5961  1.3438 -1.0188
   12MOL   H389 5471   2.702   7.994   6.454  1.3586 -2.9569  2.8808
   12MOL   H390 5472   2.825   8.149   6.309 -0.7254 -1.0237  2.3690
   12MOL   H391 5473   2.957   7.795   6.079 -0.6119  0.3428 -0.8048
   12MOL   H392 5474   2.824   7.655   6.234 -0.4118 -0.4594  0.4690
   12MOL   O393 5475   3.188   8.108   5.984  0.1041 -0.3960 -0.5227
   12MOL   C394 5476   3.277   8.139   6.090  0.3952  0.3391  0.4177
   12MOL   C395 5477   3.374   8.247   6.048 -0.7063  0.3729 -0.1103
   12MOL   O396 5478   3.303   0.099   6.041  0.6317  0.6579  0.0375
   12MOL   C397 5479   3.368   0.210   6.010  0.4277 -0.4002  0.5604
   12MOL   O398 5480   3.487   0.218   6.004 -0.3968  0.0941  0.3451
   12MOL   C399 5481   3.281   0.319   5.979  0.6175  0.8653  0.6258
   12MOL   C400 5482   3.325   0.419   5.891 -0.3898 -0.1380 -0.3528
   12MOL   C401 5483   3.231   0.516   5.850  0.4838 -0.7990  0.1727
   12MOL   C402 5484   3.097   0.517   5.900  0.2731 -0.2474 -0.1684
   12MOL   C403 5485   2.994   0.616   5.864  0.0295  1.2863  0.2308
   12MOL   O404 5486   2.872   0.611   5.894 -0.4075  0.6471 -0.6671
   12MOL   O405 5487   3.043   0.720   5.784  0.7611  0.9503  0.4374
   12MOL   C406 5488   3.056   0.414   5.986  0.0321  0.3452 -0.1423
   12MOL   C407 5489   3.142   0.319   6.015 -0.5993 -0.0896  0.5974
   12MOL   H408 5490   3.213   8.177   6.170  1.3324  1.4513  0.6467
   12MOL   H409 5491   3.332   8.051   6.123  1.8481 -0.5815 -4.2193
   12MOL   H410 5492   3.420   8.215   5.955  0.4663 -1.3571  1.0589
   12MOL   H411 5493   3.457   8.246   6.118  0.1734 -0.0283 -1.1472
   12MOL   H412 5494   3.427   0.417   5.857  0.2920 -3.2320  1.7120
   12MOL   H413 5495   3.267   0.593   5.782 -0.0695  1.3795  2.2761
   12MOL   H414 5496   2.959   0.394   6.029  0.7918 -0.5130  1.2111
   12MOL   H415 5497   3.106   0.224   6.052 -2.0747 -1.2219 -3.5451
   12MOL   O416 5498   2.943   0.823   5.734  0.2984  0.5353  0.7187
   12MOL   C417 5499   2.942   0.940   5.811 -0.0704  0.5861 -0.2516
   12MOL   C418 5500   2.819   1.024   5.788 -0.2328  0.0880  0.7330
   12MOL   O419 5501   2.697   0.944   5.795 -0.3915 -0.1531 -0.5235
   12MOL   C420 5502   2.585   0.991   5.855 -0.2338 -0.6113 -0.2439
   12MOL   O421 5503   2.567   1.111   5.880  0.0857  0.6079 -0.2024
   12MOL   C422 5504   2.483   0.890   5.886  0.0356  0.6656 -0.3818
   12MOL   C423 5505   2.344   0.923   5.879 -0.0819 -0.6506 -0.0054
   12MOL   C424 5506   2.249   0.827   5.897 -0.5446  0.2239 -0.5952
   12MOL   C425 5507   2.285   0.690   5.912  0.1232  0.2040  0.0437
   12MOL   C426 5508   2.186   0.585   5.930 -0.3508  0.8211  0.3471
   12MOL   O427 5509   2.220   0.465   5.942  0.3865  0.0242  0.3863
   12MOL   O428 5510   2.063   0.630   5.911 -0.0871  0.1351  0.1272
   12MOL   C429 5511   2.419   0.658   5.925  0.3085 -0.2733  0.3683
   12MOL   C430 5512   2.519   0.756   5.917  0.0391  0.1214  0.1188
   12MOL   H431 5513   2.971   0.923   5.914 -3.2343 -1.0393  0.4404
   12MOL   H432 5514   3.021   1.003   5.771  0.7886  0.4465  1.2306
   12MOL   H433 5515   2.825   1.076   5.693 -1.2085 -0.3664  0.4173
   12MOL   H434 5516   2.812   1.107   5.858  0.8933 -0.5288  1.6091
   12MOL   H435 5517   2.315   1.026   5.863 -1.5890 -1.2866 -1.4939
   12MOL   H436 5518   2.147   0.859   5.884 -0.6617  0.3518  0.6174
   12MOL   H437 5519   2.459   0.561   5.950  1.2117  0.0937  0.3657
   12MOL   H438 5520   2.622   0.724   5.918 -0.0488 -0.1336  1.2525
   12MOL   O439 5521   1.959   0.522   5.907  0.0725 -0.1562 -0.0589
   12MOL   C440 5522   1.900   0.517   6.035  0.2456 -0.0849  0.2120
   12MOL   C441 5523   1.786   0.617   6.049 -0.5037  0.0394  0.6008
   12MOL   O442 5524   1.836   0.751   6.072 -0.6923  0.6408 -0.5100
   12MOL   C443 5525   1.822   0.820   6.187  0.2662 -0.7480  0.2704
   12MOL   O444 5526   1.760   0.781   6.286  0.3353  0.2747  0.9029
   12MOL   C445 5527   1.879   0.954   6.176  0.1423  0.2025 -0.0333
   12MOL   C446 5528   1.849   1.046   6.281 -0.2078  1.3379  0.4749
   12MOL   C447 5529   1.889   1.177   6.269 -0.1933  0.2503 -0.0716
   12MOL   C448 5530   1.948   1.225   6.152 -0.1262  0.7543  0.1310
   12MOL   C449 5531   1.998   1.372   6.139 -0.2920 -0.3259  0.4482
   12MOL   O450 5532   2.062   1.416   6.041 -0.0987  0.3412 -0.1273
   12MOL   O451 5533   1.974   1.445   6.246 -0.1591  0.8275 -0.4142
   12MOL   C452 5534   1.975   1.139   6.044 -0.4230  0.0340  0.3145
   12MOL   C453 5535   1.946   1.002   6.059 -0.6128 -0.3756  0.7389
   12MOL   H454 5536   1.858   0.417   6.046 -0.6661  0.2717  0.0477
   12MOL   H455 5537   1.971   0.530   6.117  2.4568  1.6923 -1.9406
   12MOL   H456 5538   1.721   0.577   6.127 -0.8361  1.6827  1.1989
   12MOL   H457 5539   1.725   0.620   5.959 -1.5392  1.8504  1.3333
   12MOL   H458 5540   1.801   1.007   6.370  1.4022 -1.0296  0.3421
   12MOL   H459 5541   1.860   1.238   6.353 -1.6219  1.8923 -1.7136
   12MOL   H460 5542   2.039   1.173   5.963 -0.2549  0.9846  0.8442
   12MOL   H461 5543   1.964   0.954   5.964 -1.8345  1.5350 -0.4981
   12MOL   H462 5544   2.030   1.520   6.261  2.1664 -0.6862 -1.3000
   13MOL     O1 5545   4.828   3.283   0.729 -0.1091  0.1029 -0.4858
   13MOL     C2 5546   4.696   3.278   0.672 -0.4753  0.1991 -0.2080
   13MOL     C3 5547   4.674   3.362   0.544  0.5252  0.3534 -0.0641
   13MOL     O4 5548   4.618   3.493   0.583 -0.3033  0.1497  0.0699
   13MOL     C5 5549   4.633   3.591   0.487  0.3938  0.5034 -0.3402
   13MOL     O6 5550   4.699   3.574   0.382 -0.1747 -0.4756 -0.2785
   13MOL     C7 5551   4.565   3.717   0.520  0.0432  0.1433 -0.2359
   13MOL     C8 5552   4.490   3.736   0.643  0.3028  0.6731  0.3250
   13MOL     C9 5553   4.434   3.857   0.666 -0.9537 -0.4296  0.1653
   13MOL    C10 5554   4.454   3.966   0.581 -0.1173  0.6433  0.5171
   13MOL    C11 5555   4.396   4.097   0.616  0.0812 -0.7910 -0.6102
   13MOL    O12 5556   4.353   4.177   0.532 -0.1565 -0.2751 -0.4084
   13MOL    O13 5557   4.382   4.108   0.747  0.3749  0.1389 -0.7935
   13MOL    C14 5558   4.519   3.949   0.461 -0.3153 -0.7213  0.2296
   13MOL    C15 5559   4.569   3.826   0.429 -0.1133  0.4268  0.5619
   13MOL    H16 5560   4.685   3.175   0.640 -4.0047  0.1016  1.1793
   13MOL    H17 5561   4.611   3.296   0.737  0.2763  2.2052  0.2732
   13MOL    H18 5562   4.598   3.309   0.486 -0.7503  1.0635  0.9329
   13MOL    H19 5563   4.770   3.359   0.493  0.8221 -2.1117  0.5567
   13MOL    H20 5564   4.480   3.655   0.713 -0.6249  0.9689  0.5501
   13MOL    H21 5565   4.368   3.860   0.752 -2.6330  0.6348 -1.1295
   13MOL    H22 5566   4.523   4.027   0.387 -0.2300 -2.4321 -1.6297
   13MOL    H23 5567   4.599   3.802   0.329 -3.4085 -3.8398  0.4540
   13MOL    H24 5568   4.850   3.371   0.757  2.6397 -0.7398  0.1025
   13MOL    O25 5569   4.337   4.243   0.795  0.1191  0.1462 -0.4441
   13MOL    C26 5570   4.373   4.266   0.927  0.3594 -0.3179  0.1131
   13MOL    C27 5571   4.521   4.298   0.943  0.4140  0.5302 -0.2659
   13MOL    O28 5572   4.599   4.178   0.948  0.0898  0.3892 -0.4915
   13MOL    C29 5573   4.638   4.121   1.064  1.5334 -0.3141  0.5681
   13MOL    O30 5574   4.634   4.177   1.172  0.7426  0.0653 -0.7284
   13MOL    C31 5575   4.680   3.980   1.051  0.0797  0.7127  0.4122
   13MOL    C32 5576   4.772   3.926   1.150  0.3455  0.1032 -0.2935
   13MOL    C33 5577   4.806   3.792   1.133 -0.2371 -0.2801  1.2026
   13MOL    C34 5578   4.785   3.716   1.013  0.2252 -0.0443 -0.8042
   13MOL    C35 5579   4.825   3.572   0.996  0.0055 -1.0661 -0.1366
   13MOL    O36 5580   4.829   3.516   0.885 -0.1565  0.7899  0.3576
   13MOL    O37 5581   4.874   3.530   1.105 -0.2479 -0.1306  0.2762
   13MOL    C38 5582   4.706   3.780   0.917 -0.5477  0.4198  0.3451
   13MOL    C39 5583   4.656   3.909   0.934 -0.1940 -0.9083  0.2316
   13MOL    H40 5584   4.312   4.353   0.953  2.0054  0.3221  2.0295
   13MOL    H41 5585   4.338   4.187   0.994 -1.2196 -0.4501 -0.8304
   13MOL    H42 5586   4.531   4.368   1.026 -1.5728 -0.2393  0.6613
   13MOL    H43 5587   4.558   4.346   0.853 -1.3008  0.0743 -1.2366
   13MOL    H44 5588   4.805   3.976   1.239 -1.2437 -0.2095  0.4959
   13MOL    H45 5589   4.859   3.750   1.217 -0.0604  2.0826  2.3126
   13MOL    H46 5590   4.680   3.735   0.822 -0.9979 -0.9996  1.1373
   13MOL    H47 5591   4.602   3.966   0.860 -0.6997  1.7833  2.6047
   13MOL    O48 5592   4.909   3.382   1.110  0.4498 -0.2377 -0.1411
   13MOL    C49 5593   5.042   3.366   1.145 -0.8555  0.3212  1.0729
   13MOL    C50 5594   5.089   3.418   1.280  0.4449  0.2049 -0.2857
   13MOL    O51 5595   5.068   3.561   1.288  0.2251  0.6136  0.3933
   13MOL    C52 5596   5.083   3.610   1.405 -0.4290 -0.7112  0.1187
   13MOL    O53 5597   5.105   3.547   1.507  0.0639  0.1802  0.3479
   13MOL    C54 5598   5.085   3.755   1.403  0.2772  0.4912  0.1865
   13MOL    C55 5599   5.055   3.818   1.525 -0.2097  0.0272  0.6126
   13MOL    C56 5600   5.053   3.961   1.526 -0.2752 -0.5699 -0.1185
   13MOL    C57 5601   5.089   4.037   1.411 -0.0144  0.5778  0.2040
   13MOL    C58 5602   5.092   4.187   1.408  0.4047 -0.1670  0.8877
   13MOL    O59 5603   5.110   4.260   1.310  0.3309  0.2639 -0.1143
   13MOL    O60 5604   5.081   4.244   1.534 -0.6861 -0.3442 -0.4388
   13MOL    C61 5605   5.120   3.973   1.292 -0.2947 -0.3654  0.2322
   13MOL    C62 5606   5.123   3.834   1.292 -0.0018 -0.3796  0.0248
   13MOL    H63 5607   5.058   3.260   1.122 -0.3545  0.6742 -0.2851
   13MOL    H64 5608   5.084   3.418   1.059 -2.4712 -0.6644 -0.3497
   13MOL    H65 5609   5.193   3.392   1.300 -0.1517 -0.7849  1.6398
   13MOL    H66 5610   5.034   3.355   1.351  2.8140 -0.6163  0.8632
   13MOL    H67 5611   5.017   3.753   1.603  1.5709 -1.5051  0.2154
   13MOL    H68 5612   5.012   4.009   1.613  0.0578 -0.5712  0.0381
   13MOL    H69 5613   5.159   4.024   1.205  2.5382 -3.1884 -0.2696
   13MOL    H70 5614   5.163   3.788   1.202  1.9449  0.1227  0.6193
   13MOL    O71 5615   5.036   4.394   1.539 -0.0864 -0.2804 -0.6688
   13MOL    C72 5616   4.902   4.401   1.567  0.3165 -0.2176  0.2843
   13MOL    C73 5617   4.851   4.306   1.676 -0.1570 -0.1568  0.0447
   13MOL    O74 5618   4.887   4.337   1.811  0.5188  0.8594  0.4536
   13MOL    C75 5619   4.965   4.256   1.883  0.3330  0.3818 -0.3846
   13MOL    O76 5620   5.010   4.144   1.847 -0.7164 -0.3826 -0.0382
   13MOL    C77 5621   4.999   4.316   2.017 -0.8867  0.1422 -0.0782
   13MOL    C78 5622   4.945   4.431   2.068  0.2697  0.4806 -0.0091
   13MOL    C79 5623   4.983   4.487   2.188 -0.1595  0.6130  0.3088
   13MOL    C80 5624   5.071   4.413   2.274 -0.3364 -0.2833  0.2154
   13MOL    C81 5625   5.108   4.480   2.407 -0.4324  0.7192  0.0551
   13MOL    O82 5626   5.199   4.439   2.481  1.0660 -0.0728  0.3022
   13MOL    O83 5627   5.027   4.579   2.440 -0.0978 -0.0098 -0.3620
   13MOL    C84 5628   5.126   4.293   2.224 -0.0478  0.7576 -0.4781
   13MOL    C85 5629   5.101   4.246   2.092 -0.4334  0.1108 -0.2296
   13MOL    H86 5630   4.873   4.502   1.598 -0.8088 -0.5361  0.2857
   13MOL    H87 5631   4.837   4.383   1.482 -0.0525  3.7304 -0.3633
   13MOL    H88 5632   4.869   4.202   1.648 -1.2553 -0.5185  0.6853
   13MOL    H89 5633   4.743   4.295   1.671 -0.1627 -0.1486  0.1639
   13MOL    H90 5634   4.867   4.485   2.016 -3.2962 -0.7974  3.7988
   13MOL    H91 5635   4.930   4.571   2.231 -1.0916  0.5659 -0.7253
   13MOL    H92 5636   5.185   4.241   2.298 -0.7150 -0.7179 -0.9640
   13MOL    H93 5637   5.148   4.156   2.055 -0.4601  0.1512 -0.3603
   13MOL    O94 5638   5.044   4.616   2.590  0.5224 -0.2709 -0.2378
   13MOL    C95 5639   5.116   4.738   2.594 -0.7473 -0.1791  0.1258
   13MOL    C96 5640   5.240   4.704   2.675 -0.3556 -0.6666 -0.1344
   13MOL    O97 5641   5.202   4.660   2.810 -0.0240  0.0568 -0.5217
   13MOL    C98 5642   5.183   4.753   2.909 -0.5494  0.2453 -0.1978
   13MOL    O99 5643   5.201   4.871   2.886  0.4178  0.4232 -0.3198
   13MOL   C100 5644   5.159   4.691   3.044  0.0827 -0.8020  0.1236
   13MOL   C101 5645   5.106   4.559   3.054 -0.0589  0.6132 -0.4368
   13MOL   C102 5646   5.075   4.507   3.176  0.0352  0.3932  0.6954
   13MOL   C103 5647   5.090   4.586   3.294 -0.0530  0.2164  0.5491
   13MOL   C104 5648   5.057   4.524   3.420  0.6737 -1.1803 -0.3525
   13MOL   O105 5649   5.004   4.415   3.434  0.1732  0.3965 -0.1510
   13MOL   O106 5650   5.078   4.600   3.531  0.1665 -0.1709 -0.3880
   13MOL   C107 5651   5.140   4.717   3.291 -0.9216 -0.0953  0.7950
   13MOL   C108 5652   5.185   4.764   3.163 -0.3578 -0.0555 -0.0974
   13MOL   H109 5653   5.132   4.780   2.494 -1.0416 -0.3908 -0.0099
   13MOL   H110 5654   5.061   4.818   2.644 -0.3112  0.4540 -0.3919
   13MOL   H111 5655   5.308   4.789   2.673 -0.3327 -0.7105 -1.3522
   13MOL   H112 5656   5.293   4.622   2.627 -0.6740 -0.8657 -0.1446
   13MOL   H113 5657   5.078   4.511   2.962  0.1557 -1.2532  0.4470
   13MOL   H114 5658   5.036   4.406   3.177 -1.3332  0.8861 -0.8785
   13MOL   H115 5659   5.159   4.776   3.379  0.9611 -0.3470  0.5933
   13MOL   H116 5660   5.229   4.863   3.165  0.5001 -0.4375  0.1038
   13MOL   O117 5661   5.049   4.526   3.659  0.1064 -0.0369  1.1849
   13MOL   C118 5662   4.934   4.582   3.721 -0.5589 -0.1589 -0.1014
   13MOL   C119 5663   4.897   4.489   3.837  0.4786  0.1767  0.8721
   13MOL   O120 5664   5.000   4.447   3.927  0.0739  0.7120  0.2278
   13MOL   C121 5665   5.053   4.529   4.026  0.2108  0.1645  0.2994
   13MOL   O122 5666   5.016   4.641   4.049  0.0719 -0.1301 -0.7830
   13MOL   C123 5667   5.161   4.467   4.105  0.6951 -0.2625 -0.1288
   13MOL   C124 5668   5.241   4.551   4.190  0.4116 -0.4166 -0.3019
   13MOL   C125 5669   5.352   4.499   4.266  0.0042 -0.5525  0.7124
   13MOL   C126 5670   5.389   4.365   4.250  0.4965 -0.6212  0.2484
   13MOL   C127 5671   5.507   4.307   4.314 -0.1052  0.5442  0.9237
   13MOL   O128 5672   5.602   4.371   4.362 -0.4855 -0.6108  0.3410
   13MOL   O129 5673   5.504   4.174   4.325 -0.2652  0.0470 -0.0575
   13MOL   C130 5674   5.308   4.285   4.169  0.3175 -0.3567  0.2979
   13MOL   C131 5675   5.202   4.335   4.092 -0.2731  0.0155  0.8143
   13MOL   H132 5676   4.956   4.681   3.760 -2.0453 -0.1901  0.8671
   13MOL   H133 5677   4.851   4.588   3.650  1.3495  1.3959 -2.2724
   13MOL   H134 5678   4.866   4.392   3.798  0.4706 -0.1799  1.7529
   13MOL   H135 5679   4.816   4.527   3.900  0.8242 -1.0223  2.0731
   13MOL   H136 5680   5.222   4.657   4.191  0.2218 -0.4531  0.6881
   13MOL   H137 5681   5.411   4.559   4.332 -0.6104  1.9255 -0.9173
   13MOL   H138 5682   5.332   4.181   4.151  0.4839 -0.5773  1.7982
   13MOL   H139 5683   5.135   4.277   4.029 -0.6023  0.5481  0.6660
   13MOL   O140 5684   5.622   4.117   4.395  0.0610 -0.0569  0.0740
   13MOL   C141 5685   5.719   4.089   4.294 -0.4366  0.0661  0.1785
   13MOL   C142 5686   5.849   4.052   4.360 -0.6283  0.3393 -0.9782
   13MOL   O143 5687   5.927   4.170   4.377 -0.1560  0.1736 -0.0957
   13MOL   C144 5688   6.045   4.155   4.433 -0.0175  0.0870  0.5901
   13MOL   O145 5689   6.101   4.044   4.456  0.2346 -0.5618  0.7692
   13MOL   C146 5690   6.114   4.278   4.466 -0.6585 -0.6600  0.0505
   13MOL   C147 5691   6.250   4.279   4.493 -0.1443  0.0622 -0.1202
   13MOL   C148 5692   6.311   4.389   4.555 -0.7442 -0.8281  0.2114
   13MOL   C149 5693   6.237   4.502   4.579  0.4500  0.5959  0.1581
   13MOL   C150 5694   6.307   4.626   4.642  0.2639 -0.0484  0.6366
   13MOL   O151 5695   6.255   4.735   4.665 -0.7328 -0.3228 -0.1269
   13MOL   O152 5696   6.439   4.604   4.670 -0.1442  0.0442  0.7292
   13MOL   C153 5697   6.104   4.509   4.532  0.3133 -0.3186 -0.1594
   13MOL   C154 5698   6.038   4.396   4.474  0.2053 -0.9235  0.0979
   13MOL   H155 5699   5.680   4.002   4.242 -0.6710 -0.9929  2.1141
   13MOL   H156 5700   5.741   4.171   4.225  0.7449 -0.1942  0.2344
   13MOL   H157 5701   5.891   3.985   4.286  1.7893 -2.5281  2.8326
   13MOL   H158 5702   5.834   4.002   4.455  3.1085 -0.2106 -0.6267
   13MOL   H159 5703   6.318   4.195   4.494 -0.0620 -0.0776 -5.2335
   13MOL   H160 5704   6.416   4.379   4.581  0.3141  0.1486 -3.4070
   13MOL   H161 5705   6.045   4.599   4.542  0.8220 -0.1165  1.1050
   13MOL   H162 5706   5.934   4.404   4.450  0.6872  2.2777 -1.1377
   13MOL   O163 5707   6.508   4.706   4.755  0.2097 -0.7357 -1.3002
   13MOL   C164 5708   6.558   4.628   4.864  0.1189  0.4176  0.2647
   13MOL   C165 5709   6.461   4.643   4.979 -0.1409 -0.3206 -0.3564
   13MOL   O166 5710   6.369   4.533   4.956  0.3108 -0.8288  0.3392
   13MOL   C167 5711   6.314   4.471   5.061 -0.2864  0.0494  0.3487
   13MOL   O168 5712   6.332   4.511   5.178 -0.1487  0.4128 -0.2066
   13MOL   C169 5713   6.217   4.362   5.021  1.1600 -0.6004  0.4799
   13MOL   C170 5714   6.152   4.292   5.126  0.2389  0.1911  1.0589
   13MOL   C171 5715   6.062   4.189   5.089  0.6668 -0.5651  0.0173
   13MOL   C172 5716   6.011   4.172   4.956 -0.7433 -0.1000 -1.2389
   13MOL   C173 5717   5.908   4.077   4.923 -0.0990 -0.4366 -0.1778
   13MOL   O174 5718   5.858   4.005   5.010 -0.2622  0.2858  0.1437
   13MOL   O175 5719   5.880   4.072   4.786 -0.5295  0.2391  0.1812
   13MOL   C176 5720   6.075   4.247   4.858 -0.7274 -0.1385  0.1431
   13MOL   C177 5721   6.183   4.333   4.887  0.4374  0.2990 -0.2746
   13MOL   H178 5722   6.583   4.526   4.836  1.9657  1.2925 -1.3429
   13MOL   H179 5723   6.654   4.667   4.896  0.4579 -0.0424 -0.1929
   13MOL   H180 5724   6.396   4.729   4.968 -1.8454 -0.9851  3.4941
   13MOL   H181 5725   6.505   4.633   5.079 -2.8177 -2.9842  0.6507
   13MOL   H182 5726   6.177   4.310   5.229  0.7214  2.8480  0.5146
   13MOL   H183 5727   6.019   4.119   5.160 -1.7455 -1.0713 -1.8771
   13MOL   H184 5728   6.054   4.223   4.755 -3.4365  1.7013  0.2101
   13MOL   H185 5729   6.241   4.377   4.808  1.5683  0.2640  0.5179
   13MOL   O186 5730   5.791   3.959   4.738  0.3064  0.8292  0.0386
   13MOL   C187 5731   5.665   4.004   4.708 -0.4382 -0.1446  0.1951
   13MOL   C188 5732   5.585   3.881   4.655  0.2792 -0.0192 -0.0712
   13MOL   O189 5733   5.655   3.818   4.555  0.3910 -0.7784 -0.3764
   13MOL   C190 5734   5.596   3.776   4.441  0.3626  0.4825 -0.3476
   13MOL   O191 5735   5.474   3.786   4.412 -0.4790 -0.0249  0.6290
   13MOL   C192 5736   5.701   3.721   4.352 -0.8092  0.2829  0.7394
   13MOL   C193 5737   5.671   3.654   4.228 -0.2781 -0.3611 -0.3111
   13MOL   C194 5738   5.769   3.603   4.148 -0.4254  0.1318  0.0160
   13MOL   C195 5739   5.905   3.615   4.184  0.6601  0.1906  0.4308
   13MOL   C196 5740   6.006   3.566   4.092 -0.5278 -0.5554 -0.3334
   13MOL   O197 5741   5.996   3.566   3.970 -0.3713  0.0533 -0.1629
   13MOL   O198 5742   6.119   3.526   4.149 -0.3990  0.3193 -0.2610
   13MOL   C199 5743   5.939   3.675   4.304 -0.9945  0.2180 -0.1851
   13MOL   C200 5744   5.840   3.735   4.387  0.5783  0.1540  0.2302
   13MOL   H201 5745   5.616   4.044   4.797  0.3021  3.0120 -0.7779
   13MOL   H202 5746   5.658   4.073   4.624  1.1205  1.5471  1.4122
   13MOL   H203 5747   5.485   3.912   4.626 -0.8587 -2.0569  1.5932
   13MOL   H204 5748   5.581   3.807   4.734  0.3014 -1.0642 -1.0303
   13MOL   H205 5749   5.567   3.649   4.197 -0.4439 -1.2287  0.3887
   13MOL   H206 5750   5.741   3.564   4.051  1.0845 -1.6550  0.2712
   13MOL   H207 5751   6.041   3.697   4.331 -0.5535  0.6071 -2.0952
   13MOL   H208 5752   5.885   3.799   4.461 -0.0952  2.8367 -1.5904
   13MOL   O209 5753   6.225   3.494   4.057 -0.4383 -0.5504  0.1029
   13MOL   C210 5754   6.229   3.344   4.035  0.8268 -0.3835 -0.3717
   13MOL   C211 5755   6.259   3.268   4.160  0.2099  0.2389 -0.0246
   13MOL   O212 5756   6.298   3.141   4.117  0.4449  0.2979 -0.2929
   13MOL   C213 5757   6.216   3.033   4.087  0.5886  0.4281  0.0609
   13MOL   O214 5758   6.095   3.026   4.114 -0.0819  0.0459 -0.2660
   13MOL   C215 5759   6.279   2.917   4.023 -0.0116 -0.6769 -0.1116
   13MOL   C216 5760   6.206   2.805   3.989 -0.2033  0.5324  0.2180
   13MOL   C217 5761   6.261   2.693   3.931  0.0563  0.6217 -0.2487
   13MOL   C218 5762   6.400   2.693   3.895  0.4291 -0.5411  0.6261
   13MOL   C219 5763   6.465   2.570   3.824  0.0471  0.9825  0.2846
   13MOL   O220 5764   6.578   2.569   3.782  0.0996 -0.1561  0.0189
   13MOL   O221 5765   6.386   2.464   3.806 -0.2312 -0.4895 -0.1553
   13MOL   C222 5766   6.476   2.806   3.923  0.4190 -0.4256  0.0456
   13MOL   C223 5767   6.417   2.919   3.981 -0.8732  0.1656  0.4389
   13MOL   H224 5768   6.136   3.314   3.987  1.4686 -0.8611 -1.3302
   13MOL   H225 5769   6.310   3.321   3.966  1.6283  0.1747  0.3827
   13MOL   H226 5770   6.176   3.268   4.230 -1.0005 -0.3998 -1.4262
   13MOL   H227 5771   6.346   3.315   4.207 -0.1587  2.2430 -1.2922
   13MOL   H228 5772   6.100   2.796   4.008 -0.1151 -0.9511  0.0586
   13MOL   H229 5773   6.198   2.611   3.900  0.3832 -0.7219  2.4628
   13MOL   H230 5774   6.579   2.813   3.892  0.3193  0.5167 -0.0792
   13MOL   H231 5775   6.482   3.005   3.991  0.2894 -0.8365  1.8520
   13MOL   O232 5776   6.466   2.340   3.785 -0.3256  0.1243  0.0071
   13MOL   C233 5777   6.439   2.286   3.653  0.6018 -0.4948 -0.2076
   13MOL   C234 5778   6.292   2.242   3.654 -0.0780  0.1146  0.2794
   13MOL   O235 5779   6.283   2.135   3.744 -0.3657 -0.0966  0.8847
   13MOL   C236 5780   6.325   2.008   3.703  0.3861  0.0054 -0.1359
   13MOL   O237 5781   6.376   1.984   3.590  0.1180  0.1233 -0.2781
   13MOL   C238 5782   6.296   1.900   3.802  0.1492  0.4151  0.4331
   13MOL   C239 5783   6.236   1.921   3.929  0.0140 -0.7945  0.0484
   13MOL   C240 5784   6.203   1.822   4.020  0.1294 -0.5836  0.0836
   13MOL   C241 5785   6.235   1.683   3.980  0.7200 -0.8714 -0.4650
   13MOL   C242 5786   6.206   1.579   4.078  0.3391  0.7524 -0.2838
   13MOL   O243 5787   6.203   1.605   4.198 -0.1830  0.2607 -0.8608
   13MOL   O244 5788   6.169   1.458   4.026  0.0641  0.1657  0.0804
   13MOL   C245 5789   6.285   1.659   3.851  0.0948 -0.5904 -0.1831
   13MOL   C246 5790   6.322   1.767   3.765  0.5606  0.1315  0.0656
   13MOL   H247 5791   6.466   2.363   3.581 -1.1151 -1.1697 -1.6120
   13MOL   H248 5792   6.512   2.206   3.639 -0.7859 -1.8036 -0.1286
   13MOL   H249 5793   6.259   2.210   3.555 -1.6086  1.0118  0.4880
   13MOL   H250 5794   6.232   2.325   3.690 -0.4832  0.5264 -1.2973
   13MOL   H251 5795   6.226   2.025   3.955  0.1798 -0.4517 -1.2445
   13MOL   H252 5796   6.165   1.836   4.121  1.4866  1.3649  0.3388
   13MOL   H253 5797   6.303   1.556   3.824  0.8558 -0.7936  1.0688
   13MOL   H254 5798   6.369   1.745   3.671 -0.3411  2.8998 -1.0739
   13MOL   O255 5799   6.116   1.366   4.127 -0.1144 -0.0477  0.5017
   13MOL   C256 5800   5.979   1.355   4.112 -0.4783  0.9281  0.5366
   13MOL   C257 5801   5.913   1.245   4.208  0.3182 -0.4390 -0.3350
   13MOL   O258 5802   5.779   1.208   4.190  0.3624  1.0985 -0.0383
   13MOL   C259 5803   5.679   1.284   4.234 -0.3698 -0.9657  0.2750
   13MOL   O260 5804   5.694   1.403   4.269  0.0737  0.8386  0.1329
   13MOL   C261 5805   5.546   1.226   4.225 -0.3435 -0.2714  0.1507
   13MOL   C262 5806   5.525   1.087   4.217 -0.6830 -0.1489  0.3648
   13MOL   C263 5807   5.388   1.046   4.211  0.8123 -0.3018  0.0263
   13MOL   C264 5808   5.276   1.137   4.227 -0.4494  0.5127 -0.4188
   13MOL   C265 5809   5.133   1.094   4.232  0.7699  0.5709 -1.2754
   13MOL   O266 5810   5.038   1.171   4.212 -0.1328  0.0002 -0.2163
   13MOL   O267 5811   5.127   0.960   4.245  0.0421  0.2867 -0.0698
   13MOL   C268 5812   5.304   1.272   4.221 -0.0720  0.0365 -1.4154
   13MOL   C269 5813   5.435   1.310   4.226 -0.4377 -0.0164  0.6963
   13MOL   H270 5814   5.929   1.450   4.128 -0.4376  0.6080  2.6404
   13MOL   H271 5815   5.951   1.333   4.009  1.6506  0.3043  0.0690
   13MOL   H272 5816   5.926   1.282   4.310 -1.0238 -0.9978  0.0451
   13MOL   H273 5817   5.967   1.151   4.196  2.1089  0.7417 -1.6674
   13MOL   H274 5818   5.595   1.008   4.196  0.0254  1.1436 -2.4272
   13MOL   H275 5819   5.364   0.941   4.213 -0.8621  0.0128 -1.8853
   13MOL   H276 5820   5.219   1.338   4.227 -0.6783 -0.8625  0.3374
   13MOL   H277 5821   5.456   1.416   4.223  0.8322 -0.2018  2.5641
   13MOL   O278 5822   4.990   0.910   4.226 -0.7371 -0.5369 -0.0958
   13MOL   C279 5823   4.981   0.846   4.098  0.1632 -0.6412  0.6915
   13MOL   C280 5824   5.081   0.730   4.083 -0.2856  0.0445 -0.4113
   13MOL   O281 5825   5.215   0.772   4.044  0.1613 -0.2292  0.2678
   13MOL   C282 5826   5.246   0.766   3.909  0.6552  0.1369 -0.4205
   13MOL   O283 5827   5.171   0.741   3.815 -0.0381  0.5227  0.4919
   13MOL   C284 5828   5.385   0.797   3.893 -0.2145 -0.0560 -0.3712
   13MOL   C285 5829   5.426   0.813   3.759  0.7749  0.6955  0.3830
   13MOL   C286 5830   5.562   0.816   3.730  0.6646  0.5323 -0.1736
   13MOL   C287 5831   5.658   0.827   3.835 -0.3328 -0.7202 -0.3835
   13MOL   C288 5832   5.808   0.845   3.804  0.5439 -0.5130 -0.1805
   13MOL   O289 5833   5.846   0.827   3.685  0.0730 -0.0547  0.5054
   13MOL   O290 5834   5.881   0.898   3.903  0.2308  0.0610  0.1438
   13MOL   C291 5835   5.616   0.819   3.972 -0.4508  0.5300  1.2824
   13MOL   C292 5836   5.480   0.798   3.997  0.4682 -0.5404  0.8503
   13MOL   H293 5837   4.882   0.801   4.089 -0.2898  0.2630  1.1082
   13MOL   H294 5838   4.982   0.915   4.014 -1.0530 -2.9973 -1.3187
   13MOL   H295 5839   5.044   0.661   4.007 -4.5475 -0.2662  1.7933
   13MOL   H296 5840   5.095   0.671   4.174  1.7115 -0.7743 -1.2153
   13MOL   H297 5841   5.350   0.812   3.683  0.7777 -0.4118  0.3990
   13MOL   H298 5842   5.591   0.811   3.626  1.4617  0.4722  0.0434
   13MOL   H299 5843   5.689   0.839   4.048  0.7192  0.6264  0.1474
   13MOL   H300 5844   5.452   0.759   4.094 -0.0655  0.2860  1.0287
   13MOL   O301 5845   6.023   0.916   3.865  0.0239  0.3154  0.7809
   13MOL   C302 5846   6.049   1.057   3.863  0.0230  0.1965 -0.1387
   13MOL   C303 5847   5.981   1.139   3.750 -0.1591 -0.6057 -0.2378
   13MOL   O304 5848   5.844   1.167   3.780  0.7014 -0.5487 -0.2542
   13MOL   C305 5849   5.763   1.236   3.694 -0.3916 -0.6420 -0.4536
   13MOL   O306 5850   5.798   1.296   3.592 -0.4218  0.2512  0.1193
   13MOL   C307 5851   5.616   1.224   3.727  0.1921 -0.4891 -0.0056
   13MOL   C308 5852   5.520   1.293   3.645 -0.2778 -1.1352 -0.6985
   13MOL   C309 5853   5.388   1.281   3.677 -0.5894 -0.0142 -0.0837
   13MOL   C310 5854   5.348   1.209   3.795  0.5866  0.0918  0.0806
   13MOL   C311 5855   5.203   1.191   3.828 -0.0695 -0.4056 -0.2235
   13MOL   O312 5856   5.160   1.101   3.904  0.1926  0.0304 -0.5597
   13MOL   O313 5857   5.120   1.264   3.756 -0.4379 -0.2047 -0.2517
   13MOL   C314 5858   5.440   1.142   3.872 -0.7181  0.0836 -0.6789
   13MOL   C315 5859   5.577   1.150   3.843  0.3409 -0.3039  0.7158
   13MOL   H316 5860   6.030   1.097   3.962  0.0110  0.9092 -0.4252
   13MOL   H317 5861   6.157   1.070   3.850  0.2430 -0.5758  0.8922
   13MOL   H318 5862   5.995   1.092   3.653  0.1473 -0.7338 -0.1289
   13MOL   H319 5863   6.031   1.236   3.742  0.4454 -0.6930  2.0435
   13MOL   H320 5864   5.548   1.343   3.554 -0.7202 -0.8521 -0.6842
   13MOL   H321 5865   5.316   1.324   3.610 -1.3781 -0.5617  0.4057
   13MOL   H322 5866   5.410   1.068   3.945  0.8883 -0.4599 -0.5444
   13MOL   H323 5867   5.653   1.106   3.906  3.1615 -0.1293 -2.3896
   13MOL   O324 5868   4.973   1.244   3.790  0.4794 -0.1405  0.2939
   13MOL   C325 5869   4.929   1.347   3.874  0.4637 -0.6162 -1.0433
   13MOL   C326 5870   4.783   1.312   3.913 -0.2056 -0.0797 -0.0790
   13MOL   O327 5871   4.690   1.309   3.806  0.2390 -0.7169  0.5480
   13MOL   C328 5872   4.644   1.421   3.756 -0.4644 -0.1107 -0.6682
   13MOL   O329 5873   4.663   1.532   3.807  0.0054  0.1612  0.2034
   13MOL   C330 5874   4.564   1.409   3.628  0.6393 -0.0664 -0.3859
   13MOL   C331 5875   4.527   1.522   3.552 -0.7343  0.0995  0.0045
   13MOL   C332 5876   4.437   1.513   3.441 -0.3317  0.1572 -0.1839
   13MOL   C333 5877   4.385   1.388   3.400  0.4751  0.0664  0.4188
   13MOL   C334 5878   4.278   1.383   3.300 -0.1078  0.2968 -0.4919
   13MOL   O335 5879   4.191   1.293   3.295  0.8868  1.0272  0.4292
   13MOL   O336 5880   4.288   1.487   3.216  0.4358 -0.1753 -0.0078
   13MOL   C337 5881   4.432   1.273   3.470  0.0466  0.6614  0.2353
   13MOL   C338 5882   4.522   1.280   3.578  0.1217  0.5666  0.3237
   13MOL   H339 5883   4.978   1.357   3.971 -0.1174 -1.5938 -0.6374
   13MOL   H340 5884   4.941   1.448   3.835 -0.4403  1.0915  2.8399
   13MOL   H341 5885   4.750   1.374   3.995 -0.0685  2.5355 -1.9399
   13MOL   H342 5886   4.784   1.213   3.958 -0.0890  0.7319  1.7366
   13MOL   H343 5887   4.561   1.617   3.590  0.9361 -0.8130  0.8753
   13MOL   H344 5888   4.409   1.603   3.389 -1.3779 -0.3033 -0.4289
   13MOL   H345 5889   4.395   1.177   3.439  1.3103 -0.3469  1.7421
   13MOL   H346 5890   4.549   1.189   3.629 -0.3894  0.2477  0.0190
   13MOL   O347 5891   4.181   1.504   3.116 -0.0934 -0.3851 -0.3019
   13MOL   C348 5892   4.131   1.638   3.139  1.1242 -0.0785  0.0906
   13MOL   C349 5893   4.035   1.677   3.018 -0.7842 -0.4245  0.5127
   13MOL   O350 5894   3.989   1.814   3.012 -0.6931 -0.7780 -0.3987
   13MOL   C351 5895   3.919   1.874   3.110 -0.4334 -0.2897  0.0048
   13MOL   O352 5896   3.894   1.814   3.213 -0.3341 -0.0512  0.0440
   13MOL   C353 5897   3.870   2.013   3.086  0.4018 -0.3639 -0.6723
   13MOL   C354 5898   3.865   2.064   2.956  0.2984 -0.5523  0.8546
   13MOL   C355 5899   3.815   2.197   2.933  0.4588  0.2558  0.2569
   13MOL   C356 5900   3.785   2.282   3.043 -0.3034 -0.9305  0.0006
   13MOL   C357 5901   3.722   2.416   3.036 -0.4445  1.0668 -0.1993
   13MOL   O358 5902   3.685   2.472   3.137 -0.2781 -0.3578 -0.0897
   13MOL   O359 5903   3.700   2.459   2.908 -0.8610 -0.2525  0.5592
   13MOL   C360 5904   3.787   2.220   3.169 -1.0648  0.1166  0.1317
   13MOL   C361 5905   3.815   2.086   3.188 -0.0325  0.4591  0.7271
   13MOL   H362 5906   4.082   1.651   3.236  0.3494  2.8120 -0.6426
   13MOL   H363 5907   4.214   1.708   3.144 -0.7376  2.0969  1.7138
   13MOL   H364 5908   3.948   1.612   3.015 -0.7395 -0.4482 -0.5744
   13MOL   H365 5909   4.098   1.656   2.932  0.5818 -1.2796  1.7053
   13MOL   H366 5910   3.884   2.003   2.869 -1.7471 -0.9727  0.6583
   13MOL   H367 5911   3.820   2.240   2.834  0.4748 -0.0897  0.1105
   13MOL   H368 5912   3.761   2.282   3.254  0.5044 -0.2127  0.8782
   13MOL   H369 5913   3.810   2.038   3.285 -0.8470 -0.7711  0.0881
   13MOL   O370 5914   3.631   2.588   2.892 -0.0948  0.3668  0.1372
   13MOL   C371 5915   3.504   2.561   2.832 -0.5246 -0.5774 -0.3012
   13MOL   C372 5916   3.431   2.687   2.785  0.9901 -0.6307  0.0300
   13MOL   O373 5917   3.357   2.740   2.898 -0.1772  0.1696 -0.3580
   13MOL   C374 5918   3.247   2.685   2.951 -0.8157 -0.3954  0.1377
   13MOL   O375 5919   3.217   2.568   2.934 -0.1732 -0.7974  0.7429
   13MOL   C376 5920   3.175   2.768   3.048  0.1825  0.1006 -0.1877
   13MOL   C377 5921   3.211   2.897   3.053  0.4569 -0.0337 -1.0194
   13MOL   C378 5922   3.152   2.979   3.148  0.0312 -0.3624  0.0586
   13MOL   C379 5923   3.063   2.931   3.242  0.2202 -0.7118  0.7550
   13MOL   C380 5924   3.005   3.021   3.349  0.0601  0.1736  0.0572
   13MOL   O381 5925   2.920   2.989   3.434 -1.0752 -0.1227 -0.1022
   13MOL   O382 5926   3.056   3.146   3.356  0.0524  0.5130 -0.0441
   13MOL   C383 5927   3.027   2.794   3.241 -0.0540  0.0010 -0.3069
   13MOL   C384 5928   3.076   2.721   3.133 -0.1736  0.2701  0.2960
   13MOL   H385 5929   3.536   2.511   2.740  2.1733  0.2972  0.1205
   13MOL   H386 5930   3.444   2.489   2.887  0.3063 -1.4811 -0.5593
   13MOL   H387 5931   3.364   2.653   2.706 -1.7090  1.3046  1.4023
   13MOL   H388 5932   3.509   2.758   2.757 -0.5649  0.1123 -2.5655
   13MOL   H389 5933   3.275   2.949   2.982 -0.2295  1.8656 -0.2874
   13MOL   H390 5934   3.186   3.082   3.151  1.6822 -0.8945  0.1331
   13MOL   H391 5935   2.955   2.753   3.311  1.4172 -1.6418  0.2818
   13MOL   H392 5936   3.044   2.618   3.118  0.4788  0.0228  0.5745
   13MOL   O393 5937   2.981   3.233   3.449  0.2018 -0.1962  0.1425
   13MOL   C394 5938   3.067   3.274   3.553 -0.2684 -0.1547  0.2308
   13MOL   C395 5939   2.989   3.376   3.636  0.5514 -0.3595 -0.4662
   13MOL   O396 5940   2.901   3.322   3.731 -0.0822 -0.4525 -0.1008
   13MOL   C397 5941   2.821   3.401   3.794 -1.0427 -0.3948  0.5204
   13MOL   O398 5942   2.820   3.524   3.788  0.4037 -0.5620 -0.4172
   13MOL   C399 5943   2.729   3.320   3.883  0.1235  0.1174  0.1146
   13MOL   C400 5944   2.773   3.204   3.947  0.6423  0.4920  0.4385
   13MOL   C401 5945   2.698   3.145   4.050  0.3021 -0.0520 -0.2015
   13MOL   C402 5946   2.570   3.198   4.080 -0.1006  0.2334  0.5984
   13MOL   C403 5947   2.477   3.118   4.173 -0.0873  0.8293 -0.1772
   13MOL   O404 5948   2.379   3.168   4.232 -0.2887 -0.4608  0.4069
   13MOL   O405 5949   2.515   2.987   4.162 -0.6548 -0.4519 -0.6909
   13MOL   C406 5950   2.523   3.312   4.011 -0.0804 -0.8532  0.7750
   13MOL   C407 5951   2.605   3.372   3.914  0.5697 -0.5523  0.1877
   13MOL   H408 5952   3.112   3.199   3.619 -0.2078 -1.4822 -1.2978
   13MOL   H409 5953   3.150   3.330   3.508  0.2671 -3.0381 -2.5657
   13MOL   H410 5954   2.928   3.445   3.577 -1.0011 -0.6158  0.8128
   13MOL   H411 5955   3.065   3.434   3.689  0.0174 -1.5004  1.5919
   13MOL   H412 5956   2.869   3.158   3.934  1.0547  1.1534  1.1261
   13MOL   H413 5957   2.746   3.061   4.098  1.2111  0.6734  0.1901
   13MOL   H414 5958   2.420   3.340   4.021 -0.3203  0.3132 -3.7613
   13MOL   H415 5959   2.569   3.455   3.854 -1.6263  0.5675  2.9146
   13MOL   O416 5960   2.440   2.888   4.250 -0.3389  0.2860 -0.1367
   13MOL   C417 5961   2.529   2.835   4.338 -0.2208  0.4157  0.0675
   13MOL   C418 5962   2.488   2.720   4.437  0.5900 -0.2806 -0.1584
   13MOL   O419 5963   2.420   2.770   4.555  0.6546 -0.7285  0.1347
   13MOL   C420 5964   2.499   2.811   4.659  0.4784 -0.7253 -0.2637
   13MOL   O421 5965   2.622   2.801   4.663 -0.2927 -0.4339 -0.5046
   13MOL   C422 5966   2.416   2.863   4.772  0.8100  0.1343  0.1900
   13MOL   C423 5967   2.275   2.856   4.780  0.3399 -0.4000 -0.2406
   13MOL   C424 5968   2.211   2.910   4.893  0.3448  0.3586  0.5133
   13MOL   C425 5969   2.281   2.952   5.013  0.4995 -0.1723  0.2806
   13MOL   C426 5970   2.209   2.991   5.138 -0.4231  0.9246  0.3178
   13MOL   O427 5971   2.123   3.075   5.139  0.0519 -0.4337  0.3336
   13MOL   O428 5972   2.248   2.923   5.245  0.5302 -0.0050  0.5208
   13MOL   C429 5973   2.419   2.949   5.006  0.1674 -0.0607 -0.1776
   13MOL   C430 5974   2.481   2.912   4.891 -0.2828  0.2646  0.0056
   13MOL   H431 5975   2.617   2.794   4.288 -1.3020 -0.7913 -0.8803
   13MOL   H432 5976   2.570   2.922   4.390  0.1439  1.2875 -1.6372
   13MOL   H433 5977   2.565   2.646   4.458  0.2404 -0.1330  1.6587
   13MOL   H434 5978   2.412   2.663   4.383 -1.5939  0.7290  1.7677
   13MOL   H435 5979   2.221   2.806   4.701 -0.9924  1.3193 -0.4371
   13MOL   H436 5980   2.104   2.896   4.894  0.4009 -0.3893 -1.6489
   13MOL   H437 5981   2.474   2.975   5.095 -0.0161 -1.9986  0.5325
   13MOL   H438 5982   2.589   2.901   4.893 -0.3707 -0.6812 -0.2761
   13MOL   O439 5983   2.199   2.974   5.376  0.3013  0.7240 -0.1363
   13MOL   C440 5984   2.317   3.013   5.452  0.7289  0.9065 -0.1261
   13MOL   C441 5985   2.292   2.990   5.605 -0.1226  0.4219 -0.4616
   13MOL   O442 5986   2.311   2.847   5.647  0.3007 -0.2808  0.3476
   13MOL   C443 5987   2.229   2.805   5.745  0.6054  0.0027  0.1179
   13MOL   O444 5988   2.153   2.875   5.807 -0.1268 -0.5776 -0.5107
   13MOL   C445 5989   2.256   2.661   5.784  0.0123 -1.0342  0.2601
   13MOL   C446 5990   2.173   2.585   5.862  0.5614  0.3638 -0.4490
   13MOL   C447 5991   2.206   2.451   5.896  0.1259 -0.5777  0.4584
   13MOL   C448 5992   2.319   2.385   5.841  0.8591  0.3250 -0.4591
   13MOL   C449 5993   2.342   2.235   5.869  0.0196 -0.3484  0.5040
   13MOL   O450 5994   2.256   2.165   5.926  0.0430 -0.2208  0.0072
   13MOL   O451 5995   2.465   2.191   5.829  0.5429  0.7323  0.1127
   13MOL   C452 5996   2.407   2.458   5.759  0.6329  0.5516  0.4887
   13MOL   C453 5997   2.373   2.591   5.727  0.1918  0.2330  0.3762
   13MOL   H454 5998   2.401   2.951   5.420  0.4813  0.5093 -0.0246
   13MOL   H455 5999   2.339   3.116   5.425 -0.6371  1.5045  0.9736
   13MOL   H456 6000   2.198   3.039   5.627 -1.6586 -1.7960 -1.9116
   13MOL   H457 6001   2.364   3.051   5.659 -1.4700  0.7669  0.9570
   13MOL   H458 6002   2.090   2.633   5.911 -0.6359 -1.5010 -0.5714
   13MOL   H459 6003   2.135   2.395   5.956 -0.0110 -1.3290 -0.3866
   13MOL   H460 6004   2.484   2.409   5.701 -1.0864 -0.2619 -1.1609
   13MOL   H461 6005   2.445   2.636   5.660  0.0517 -0.1501 -0.0315
   13MOL   H462 6006   2.485   2.099   5.834 -0.7436  0.4748  0.7426
   14MOL     O1 6007   5.789   4.464   6.435  0.4018 -0.1065  0.9509
   14MOL     C2 6008   5.790   4.509   6.297  0.7600  0.3786 -0.3829
   14MOL     C3 6009   5.645   4.554   6.272 -0.2699  0.2253 -0.2157
   14MOL     O4 6010   5.624   4.685   6.317  0.5055 -0.2951  0.2091
   14MOL     C5 6011   5.526   4.763   6.272  0.2445  0.4838  0.3985
   14MOL     O6 6012   5.463   4.743   6.163 -0.8156  0.3317 -0.5752
   14MOL     C7 6013   5.517   4.887   6.353 -0.6734  0.1697 -0.5892
   14MOL     C8 6014   5.450   5.001   6.295 -0.1386 -0.8399  0.2010
   14MOL     C9 6015   5.436   5.123   6.365 -0.4663  0.4794 -0.4667
   14MOL    C10 6016   5.500   5.142   6.492 -0.1295 -0.4196 -0.2651
   14MOL    C11 6017   5.474   5.263   6.571  0.1579  0.0351  0.0637
   14MOL    O12 6018   5.427   5.367   6.523  0.0252 -0.0705 -0.3134
   14MOL    O13 6019   5.515   5.260   6.701 -0.4536  0.1189  0.3106
   14MOL    C14 6020   5.563   5.030   6.550  0.1087 -0.2680 -0.0057
   14MOL    C15 6021   5.570   4.909   6.483 -0.1712  0.3412  0.1668
   14MOL    H16 6022   5.868   4.582   6.277  0.4192  0.1565 -2.7274
   14MOL    H17 6023   5.811   4.425   6.232 -0.5285  0.0198 -0.3538
   14MOL    H18 6024   5.575   4.480   6.312 -0.4358  0.1433 -0.6556
   14MOL    H19 6025   5.629   4.560   6.164 -1.0767  0.8235 -0.0704
   14MOL    H20 6026   5.401   4.978   6.201 -1.2397  1.1755  0.2449
   14MOL    H21 6027   5.385   5.204   6.314 -1.3788  0.7633  0.8488
   14MOL    H22 6028   5.622   5.041   6.640 -0.8866 -0.6160  0.6968
   14MOL    H23 6029   5.630   4.830   6.527 -0.4191  0.0388 -0.0390
   14MOL    H24 6030   5.728   4.392   6.440 -0.8999  1.0153  1.3170
   14MOL    O25 6031   5.473   5.377   6.783 -1.0439 -0.1083 -0.2735
   14MOL    C26 6032   5.581   5.464   6.788  0.5695 -0.5909 -0.3476
   14MOL    C27 6033   5.544   5.595   6.864 -1.0428  0.6089  0.2750
   14MOL    O28 6034   5.502   5.570   6.997  0.6990 -0.0120  0.1248
   14MOL    C29 6035   5.588   5.573   7.097  0.5754  0.4040  0.5381
   14MOL    O30 6036   5.703   5.616   7.084 -0.2578  0.6187  0.2584
   14MOL    C31 6037   5.528   5.531   7.226  0.2746  0.3937  0.2621
   14MOL    C32 6038   5.603   5.566   7.338 -0.1921  0.0773  0.1363
   14MOL    C33 6039   5.557   5.533   7.463  0.4598  0.6905 -0.2448
   14MOL    C34 6040   5.427   5.474   7.485 -0.0592 -0.9206  0.6080
   14MOL    C35 6041   5.372   5.456   7.621 -0.5977 -0.3332  0.8766
   14MOL    O36 6042   5.442   5.431   7.717  0.5574 -0.2192 -0.6021
   14MOL    O37 6043   5.241   5.465   7.623 -0.1071 -0.6001 -0.0727
   14MOL    C38 6044   5.345   5.442   7.365 -0.9808  0.4566 -0.7631
   14MOL    C39 6045   5.399   5.474   7.241  0.5019  0.3186  0.3704
   14MOL    H40 6046   5.670   5.420   6.833 -1.1444 -2.1177  1.6103
   14MOL    H41 6047   5.606   5.492   6.685 -2.5100 -1.2382 -1.3320
   14MOL    H42 6048   5.454   5.631   6.815 -0.4307  1.5440 -0.1943
   14MOL    H43 6049   5.622   5.671   6.871 -1.7956  1.2711  1.7726
   14MOL    H44 6050   5.706   5.596   7.331  0.5558 -1.9264  1.7878
   14MOL    H45 6051   5.615   5.554   7.552  0.0771  0.6471  0.0172
   14MOL    H46 6052   5.243   5.410   7.380 -0.0967 -2.3005 -0.3878
   14MOL    H47 6053   5.340   5.461   7.152 -2.3134  3.3675  1.6926
   14MOL    O48 6054   5.190   5.506   7.756 -0.5067  0.2216 -0.3688
   14MOL    C49 6055   5.097   5.404   7.792  0.4288 -0.0872  0.3250
   14MOL    C50 6056   5.034   5.432   7.928  0.2709  0.6198  0.4253
   14MOL    O51 6057   4.981   5.564   7.924 -0.5397  0.1124 -0.0074
   14MOL    C52 6058   4.863   5.595   7.864 -0.4508  0.0833 -0.3657
   14MOL    O53 6059   4.775   5.515   7.836 -0.0902 -0.2002 -0.1047
   14MOL    C54 6060   4.851   5.743   7.859  0.6498  0.1308  0.5607
   14MOL    C55 6061   4.737   5.802   7.795 -0.4584  0.2696  0.0900
   14MOL    C56 6062   4.738   5.939   7.775  1.1832 -0.1016  0.9765
   14MOL    C57 6063   4.840   6.027   7.817 -0.2363 -0.5620 -0.0586
   14MOL    C58 6064   4.830   6.172   7.795  0.0695 -0.0979  0.7222
   14MOL    O59 6065   4.904   6.251   7.844  0.1109  0.3038  0.3369
   14MOL    O60 6066   4.721   6.210   7.720  0.2739 -0.5962 -0.5915
   14MOL    C61 6067   4.939   5.972   7.900  0.2085 -0.6854 -0.7934
   14MOL    C62 6068   4.943   5.830   7.916 -0.2286 -0.3354 -0.2701
   14MOL    H63 6069   5.024   5.384   7.713  1.4801 -0.0409 -0.6860
   14MOL    H64 6070   5.149   5.308   7.804 -0.7138 -0.4791  2.3869
   14MOL    H65 6071   5.101   5.434   8.014  0.4771  2.2432  0.2245
   14MOL    H66 6072   4.949   5.363   7.935  1.7454 -1.3520 -0.5948
   14MOL    H67 6073   4.663   5.732   7.760 -0.5707 -1.1101  2.9107
   14MOL    H68 6074   4.651   5.982   7.725  1.8087 -1.5413 -1.4507
   14MOL    H69 6075   5.015   6.036   7.945 -0.9532 -0.1051  0.3772
   14MOL    H70 6076   5.031   5.788   7.963 -0.0039 -0.6300 -0.9529
   14MOL    O71 6077   4.695   6.359   7.712  0.5429  0.1421  0.0867
   14MOL    C72 6078   4.775   6.416   7.611 -1.3968 -0.8826  0.3682
   14MOL    C73 6079   4.714   6.551   7.571 -0.3018 -0.0135  0.1272
   14MOL    O74 6080   4.607   6.518   7.486  0.4287 -0.6690  0.4498
   14MOL    C75 6081   4.601   6.573   7.361 -0.1802  0.3743  0.3895
   14MOL    O76 6082   4.696   6.637   7.308  0.0113  0.6742  0.1576
   14MOL    C77 6083   4.476   6.535   7.303 -0.4369 -0.4015  0.0103
   14MOL    C78 6084   4.400   6.629   7.225 -0.2090  0.3914  0.9589
   14MOL    C79 6085   4.271   6.605   7.196 -0.6766  0.0152  0.0823
   14MOL    C80 6086   4.202   6.487   7.233  0.3862  0.3450  0.0964
   14MOL    C81 6087   4.062   6.461   7.186 -0.7268  0.2128  0.3242
   14MOL    O82 6088   4.013   6.520   7.091  0.4383 -0.4659 -0.1730
   14MOL    O83 6089   3.998   6.364   7.258  0.0013  0.3532  0.1256
   14MOL    C84 6090   4.279   6.391   7.295 -0.5315 -0.0878 -0.5296
   14MOL    C85 6091   4.414   6.409   7.331 -0.4379  0.2159  0.0670
   14MOL    H86 6092   4.877   6.425   7.647 -0.6211  1.6173 -2.2557
   14MOL    H87 6093   4.776   6.348   7.526 -0.5263  1.0041 -1.1582
   14MOL    H88 6094   4.783   6.626   7.533  2.0313 -1.5112  1.2907
   14MOL    H89 6095   4.660   6.597   7.654 -0.3849 -1.3485  0.8312
   14MOL    H90 6096   4.457   6.711   7.184 -0.4321 -0.6059 -1.4485
   14MOL    H91 6097   4.231   6.683   7.134 -1.1529 -2.1269 -2.3737
   14MOL    H92 6098   4.238   6.293   7.315  0.4268 -0.3427  0.2555
   14MOL    H93 6099   4.469   6.336   7.388 -0.8213  0.7363  1.1059
   14MOL    O94 6100   3.869   6.321   7.199 -0.2911 -0.5499 -0.6015
   14MOL    C95 6101   3.882   6.187   7.153 -0.4397 -0.2039  1.6764
   14MOL    C96 6102   3.783   6.158   7.041 -0.3921 -0.8794  0.1515
   14MOL    O97 6103   3.678   6.067   7.078  0.0539 -0.0305  0.1292
   14MOL    C98 6104   3.602   6.010   6.979  0.4702  0.0928  0.2427
   14MOL    O99 6105   3.592   6.051   6.868 -0.0933 -0.0277  0.2847
   14MOL   C100 6106   3.520   5.890   7.019  0.4395 -0.1067  0.0642
   14MOL   C101 6107   3.433   5.818   6.931  0.1572 -0.4688  0.1271
   14MOL   C102 6108   3.360   5.710   6.974 -0.0333 -0.2488  0.2885
   14MOL   C103 6109   3.360   5.669   7.108 -0.4256 -0.7813 -0.0427
   14MOL   C104 6110   3.256   5.562   7.143 -0.3472 -0.2534 -0.2761
   14MOL   O105 6111   3.204   5.491   7.062 -0.2006 -0.3538  0.0123
   14MOL   O106 6112   3.237   5.538   7.275  0.4830 -0.1482  0.1304
   14MOL   C107 6113   3.442   5.737   7.204 -0.2546 -0.0460 -0.0554
   14MOL   C108 6114   3.523   5.850   7.158  0.2237  0.3251 -0.2649
   14MOL   H109 6115   3.978   6.187   7.101 -0.5169 -1.9089  1.5157
   14MOL   H110 6116   3.883   6.113   7.232  0.2932 -2.9483 -0.8267
   14MOL   H111 6117   3.836   6.134   6.949 -0.0357  2.2284 -0.4978
   14MOL   H112 6118   3.737   6.254   7.016 -2.4523 -1.7716  0.3761
   14MOL   H113 6119   3.434   5.842   6.825  2.6589  1.2390  0.4926
   14MOL   H114 6120   3.298   5.662   6.901  0.3190  1.3571 -1.1011
   14MOL   H115 6121   3.442   5.717   7.310  0.3738 -0.3648 -0.1127
   14MOL   H116 6122   3.593   5.899   7.224  0.4463 -1.5158  0.9064
   14MOL   O117 6123   3.120   5.446   7.310  0.4799 -0.3262 -0.0738
   14MOL   C118 6124   3.168   5.311   7.307 -0.2609 -0.8071  0.9057
   14MOL   C119 6125   3.064   5.214   7.373 -0.3956  0.0818  0.1088
   14MOL   O120 6126   3.087   5.201   7.512  0.0524 -0.4188 -0.6988
   14MOL   C121 6127   3.173   5.114   7.568  0.2968 -0.9097  0.6977
   14MOL   O122 6128   3.251   5.041   7.499  0.8456 -0.2145 -0.3961
   14MOL   C123 6129   3.175   5.106   7.716 -0.2601 -0.0151 -0.2580
   14MOL   C124 6130   3.127   5.211   7.794  1.1138  0.3575  0.6978
   14MOL   C125 6131   3.128   5.204   7.937 -0.1494 -0.3191 -0.0814
   14MOL   C126 6132   3.175   5.090   8.003 -0.1123  0.1343  0.3515
   14MOL   C127 6133   3.189   5.083   8.151  0.8452 -0.4465  0.2924
   14MOL   O128 6134   3.185   4.978   8.215  0.7009  0.4295  0.0283
   14MOL   O129 6135   3.195   5.199   8.208  0.2186 -0.0629  0.1740
   14MOL   C130 6136   3.216   4.980   7.927 -0.2623  0.2009 -0.1494
   14MOL   C131 6137   3.216   4.990   7.782  0.4981  0.1767  0.2574
   14MOL   H132 6138   3.173   5.271   7.206 -0.8265  1.3117 -0.0043
   14MOL   H133 6139   3.262   5.302   7.361  1.4544 -1.0524 -2.0381
   14MOL   H134 6140   3.078   5.115   7.331 -1.4523  0.5093 -1.2810
   14MOL   H135 6141   2.961   5.249   7.360 -0.4085  0.6264  1.5774
   14MOL   H136 6142   3.078   5.298   7.753 -0.2268 -0.6718  0.0740
   14MOL   H137 6143   3.092   5.291   7.990  3.1092 -0.1947  2.0746
   14MOL   H138 6144   3.258   4.893   7.975 -1.6331 -0.8193 -0.7427
   14MOL   H139 6145   3.247   4.900   7.732 -0.4482 -0.9415  1.6216
   14MOL   O140 6146   3.207   5.193   0.082 -0.3255 -0.0541 -0.0897
   14MOL   C141 6147   3.342   5.197   0.122  0.4337 -0.0063  0.3091
   14MOL   C142 6148   3.407   5.328   0.094 -0.5509 -0.7522 -0.5273
   14MOL   O143 6149   3.546   5.308   0.074 -0.1091  0.2934 -0.2277
   14MOL   C144 6150   3.627   5.288   0.177 -0.3116 -0.3968 -0.0115
   14MOL   O145 6151   3.596   5.290   0.299  0.7120 -0.4646  0.5542
   14MOL   C146 6152   3.771   5.278   0.142 -0.4165  0.5056 -0.4605
   14MOL   C147 6153   3.876   5.265   0.238  0.4529  0.6083  0.0804
   14MOL   C148 6154   4.011   5.264   0.202  0.3092  0.0788 -0.7078
   14MOL   C149 6155   4.049   5.280   0.073  0.4524  0.3198  0.0707
   14MOL   C150 6156   4.194   5.282   0.034  0.2847  0.8782  0.1689
   14MOL   O151 6157   4.241   5.282   8.199 -0.3070 -0.3310  0.4127
   14MOL   O152 6158   4.273   5.293   0.153  0.0440 -0.8432 -0.2769
   14MOL   C153 6159   3.947   5.294   8.251 -0.2589  0.1413  0.2996
   14MOL   C154 6160   3.807   5.302   0.004  0.2073  0.3567 -0.7099
   14MOL   H155 6161   3.341   5.175   0.228 -0.0201 -1.6104 -0.0105
   14MOL   H156 6162   3.391   5.121   0.061 -0.9420 -0.4906 -0.2274
   14MOL   H157 6163   3.389   5.392   0.181  0.7787  0.1700 -0.9182
   14MOL   H158 6164   3.364   5.374   0.006  0.1751  3.0444  1.0067
   14MOL   H159 6165   3.846   5.271   0.341  1.3431 -1.5786  0.4880
   14MOL   H160 6166   4.080   5.252   0.285 -1.6827 -1.2533  0.8030
   14MOL   H161 6167   3.973   5.317   8.149  0.2444 -0.7464  0.2199
   14MOL   H162 6168   3.737   5.328   8.202 -0.1171 -0.4342 -0.6914
   14MOL   O163 6169   4.420   5.296   0.134 -0.4706  0.0295  0.0735
   14MOL   C164 6170   4.461   5.430   0.163 -0.2841 -0.6435 -0.8137
   14MOL   C165 6171   4.450   5.458   0.312 -0.2664  0.2774  0.4005
   14MOL   O166 6172   4.530   5.375   0.392 -0.3707 -0.3184 -0.0154
   14MOL   C167 6173   4.653   5.400   0.421 -0.4915 -0.0704 -0.5947
   14MOL   O168 6174   4.722   5.489   0.372  0.2467  0.0028  0.0228
   14MOL   C169 6175   4.708   5.303   0.517  0.3630 -0.5279  0.4243
   14MOL   C170 6176   4.850   5.295   0.542 -0.4343  0.3306 -0.6234
   14MOL   C171 6177   4.904   5.202   0.638  0.2180 -0.0834  0.1320
   14MOL   C172 6178   4.816   5.123   0.715 -0.9270 -0.5445 -0.1065
   14MOL   C173 6179   4.865   5.027   0.817  0.4092  0.3950  0.3888
   14MOL   O174 6180   4.795   4.984   0.912  0.3520 -0.2433 -0.3210
   14MOL   O175 6181   4.993   4.998   0.796  0.1237 -0.4723 -0.6002
   14MOL   C176 6182   4.676   5.133   0.694  0.5905 -0.1032  0.2071
   14MOL   C177 6183   4.630   5.212   0.590  0.6193 -0.0924 -0.7492
   14MOL   H178 6184   4.565   5.415   0.134 -0.4285 -1.8292 -0.7468
   14MOL   H179 6185   4.405   5.499   0.099  0.2139  0.5086 -0.0200
   14MOL   H180 6186   4.345   5.444   0.338 -0.3759 -1.7081 -0.9540
   14MOL   H181 6187   4.483   5.558   0.339  0.6583 -0.0875  0.6293
   14MOL   H182 6188   4.919   5.347   0.478  0.7911  0.4178  0.7451
   14MOL   H183 6189   5.011   5.205   0.653  0.2479 -0.5085  0.0328
   14MOL   H184 6190   4.602   5.081   0.753 -0.1380  1.0479  0.3198
   14MOL   H185 6191   4.523   5.221   0.576  0.2284 -2.2352  0.7608
   14MOL   O186 6192   5.039   4.869   0.872  0.1857  0.2576 -0.0679
   14MOL   C187 6193   4.990   4.762   0.796  0.0072  0.4143  0.5737
   14MOL   C188 6194   5.011   4.752   0.648 -0.1940  0.2490  0.7539
   14MOL   O189 6195   5.128   4.671   0.628  0.2594 -0.1843 -0.6127
   14MOL   C190 6196   5.199   4.676   0.514  0.0239 -0.0557 -0.0294
   14MOL   O191 6197   5.171   4.740   0.416  0.3694 -0.1490 -0.4919
   14MOL   C192 6198   5.319   4.597   0.525  0.1689  0.2777  0.3384
   14MOL   C193 6199   5.387   4.580   0.405 -0.2894  0.5583 -0.0557
   14MOL   C194 6200   5.512   4.512   0.392 -0.2139 -0.3569 -0.4263
   14MOL   C195 6201   5.566   4.446   0.505 -0.2091 -0.7200  0.4149
   14MOL   C196 6202   5.700   4.375   0.503  0.1629  0.5968  0.9413
   14MOL   O197 6203   5.746   4.326   0.606  0.0539 -0.3781 -0.1585
   14MOL   O198 6204   5.764   4.364   0.383 -0.2784 -0.4669  0.4959
   14MOL   C199 6205   5.492   4.461   0.628  0.1427 -0.5886  0.2779
   14MOL   C200 6206   5.369   4.531   0.640  0.4602 -0.2023 -0.8038
   14MOL   H201 6207   5.019   4.668   0.842 -0.1216 -0.6801 -1.5460
   14MOL   H202 6208   4.882   4.763   0.814 -0.0793  0.7128  0.0531
   14MOL   H203 6209   5.028   4.851   0.607 -0.3400  0.0060  0.0961
   14MOL   H204 6210   4.918   4.719   0.601  0.2591  0.3429 -0.2107
   14MOL   H205 6211   5.343   4.621   0.316 -1.0449  1.8552  0.8924
   14MOL   H206 6212   5.565   4.509   0.298 -0.0352  1.1800 -0.3773
   14MOL   H207 6213   5.531   4.423   0.722 -0.6233  0.5383  1.0600
   14MOL   H208 6214   5.318   4.544   0.734 -0.5601 -2.3250 -1.0518
   14MOL   O209 6215   5.878   4.278   0.397  0.0479  0.0789 -0.3113
   14MOL   C210 6216   6.005   4.347   0.411  0.2292  0.8147  0.1789
   14MOL   C211 6217   6.112   4.243   0.417 -0.3270  0.3543  1.0629
   14MOL   O212 6218   6.067   4.144   0.506  0.3186 -0.0980 -0.8449
   14MOL   C213 6219   6.163   4.055   0.542  0.9938 -0.0968 -0.1211
   14MOL   O214 6220   6.281   4.071   0.529 -1.0088 -0.4649  0.0279
   14MOL   C215 6221   6.109   3.931   0.603  0.6733  0.4369  0.0642
   14MOL   C216 6222   5.967   3.903   0.600  0.4607  0.5980 -0.5959
   14MOL   C217 6223   5.908   3.781   0.654  0.3637  0.3129 -0.4159
   14MOL   C218 6224   6.000   3.698   0.726  0.0401  0.4006 -0.7194
   14MOL   C219 6225   5.941   3.575   0.782  0.5468  0.1601  0.3407
   14MOL   O220 6226   5.823   3.534   0.770 -0.3101 -0.1203 -0.3880
   14MOL   O221 6227   6.038   3.497   0.841  0.4728  0.0561 -0.2936
   14MOL   C222 6228   6.138   3.727   0.726  0.4385 -0.8022 -0.2777
   14MOL   C223 6229   6.190   3.844   0.670  0.3856 -0.0231 -0.0492
   14MOL   H224 6230   6.019   4.413   0.325 -0.0545 -1.0571 -1.3259
   14MOL   H225 6231   6.003   4.418   0.494  0.2319  0.0733  0.8131
   14MOL   H226 6232   6.216   4.276   0.422  0.3624 -1.5708  0.0337
   14MOL   H227 6233   6.107   4.196   0.319 -2.4664  1.5719  0.5554
   14MOL   H228 6234   5.908   3.964   0.534  2.6768  0.4512 -2.7501
   14MOL   H229 6235   5.803   3.761   0.641  0.1260  1.0325  0.4200
   14MOL   H230 6236   6.209   3.663   0.775  0.6532 -1.0566 -0.9242
   14MOL   H231 6237   6.296   3.862   0.662  0.6377 -2.3630 -2.3008
   14MOL   O232 6238   5.981   3.362   0.881 -0.0947  0.1145  0.6511
   14MOL   C233 6239   5.964   3.355   1.022 -0.6210 -0.9769 -0.2298
   14MOL   C234 6240   5.899   3.223   1.055 -0.3425  0.5929  0.1185
   14MOL   O235 6241   5.915   3.212   1.193 -0.0514 -0.3494 -0.2244
   14MOL   C236 6242   5.838   3.285   1.274  0.7250  0.0566 -0.0388
   14MOL   O237 6243   5.766   3.374   1.235 -0.2725  0.0442  0.3756
   14MOL   C238 6244   5.874   3.268   1.416 -0.3789 -0.2141  0.0746
   14MOL   C239 6245   5.937   3.151   1.459 -0.5371  0.3696 -0.7284
   14MOL   C240 6246   5.967   3.124   1.596  0.6103  0.4876  0.1595
   14MOL   C241 6247   5.912   3.212   1.691 -0.0248  0.7452  0.0805
   14MOL   C242 6248   5.931   3.180   1.833 -0.1215  0.1017 -0.2427
   14MOL   O243 6249   5.940   3.068   1.882  1.1255  0.2317  0.2648
   14MOL   O244 6250   5.937   3.288   1.908  0.0091 -0.7213  0.3183
   14MOL   C245 6251   5.844   3.330   1.651  0.2243  0.3185 -0.2105
   14MOL   C246 6252   5.832   3.363   1.514  0.3025 -0.2546 -0.1693
   14MOL   H247 6253   6.063   3.359   1.068 -0.0501  1.1438 -1.5539
   14MOL   H248 6254   5.922   3.444   1.068  0.7018 -1.4102  1.8815
   14MOL   H249 6255   5.952   3.142   1.006  2.2443  1.8032  0.8224
   14MOL   H250 6256   5.796   3.230   1.020 -1.6002  1.4891  3.8209
   14MOL   H251 6257   5.964   3.075   1.388 -1.1252 -0.8644  0.3475
   14MOL   H252 6258   6.013   3.030   1.623 -0.1144  0.5351  1.6009
   14MOL   H253 6259   5.802   3.405   1.717 -0.8731 -0.0580 -0.4847
   14MOL   H254 6260   5.772   3.448   1.486  0.3554 -0.4784 -0.9921
   14MOL   O255 6261   5.942   3.265   2.057  0.0715  0.3824  0.1563
   14MOL   C256 6262   6.076   3.278   2.104 -0.6790 -0.0200  0.0936
   14MOL   C257 6263   6.066   3.259   2.266 -0.5130 -0.8975  0.2783
   14MOL   O258 6264   6.014   3.371   2.332 -0.3018 -0.1302 -0.0878
   14MOL   C259 6265   6.088   3.488   2.337 -0.5969  0.1490 -0.6846
   14MOL   O260 6266   6.200   3.498   2.292  0.2921 -0.3622 -0.2382
   14MOL   C261 6267   6.031   3.596   2.414  0.3185  0.1610 -0.3265
   14MOL   C262 6268   6.115   3.705   2.461  0.3509  0.3661  0.6133
   14MOL   C263 6269   6.056   3.801   2.543 -0.3794 -0.2522  1.0854
   14MOL   C264 6270   5.918   3.804   2.568 -0.2893 -0.1470 -0.0926
   14MOL   C265 6271   5.857   3.924   2.642 -0.7113  0.0865 -0.1161
   14MOL   O266 6272   5.736   3.936   2.646 -0.1310 -0.3228  0.7884
   14MOL   O267 6273   5.942   4.006   2.703  0.3955  0.0764  0.3315
   14MOL   C268 6274   5.839   3.694   2.523  0.2432  0.2304 -0.2542
   14MOL   C269 6275   5.897   3.587   2.454 -0.2893  0.1181  0.3509
   14MOL   H270 6276   6.147   3.213   2.054  0.4670  2.6451 -1.8932
   14MOL   H271 6277   6.120   3.375   2.080  0.3349 -0.3545  0.5572
   14MOL   H272 6278   6.165   3.233   2.305 -0.8665 -0.3798  1.5581
   14MOL   H273 6279   6.005   3.173   2.292 -1.2044  0.0257  1.8102
   14MOL   H274 6280   6.222   3.697   2.443 -0.1620 -1.5414 -1.9880
   14MOL   H275 6281   6.119   3.882   2.577 -1.0806  0.1278  1.4908
   14MOL   H276 6282   5.735   3.697   2.552 -0.1176 -1.5550 -1.2546
   14MOL   H277 6283   5.836   3.502   2.429  0.9101 -0.4503 -0.7375
   14MOL   O278 6284   5.875   4.130   2.747 -0.1474 -0.1001 -0.0724
   14MOL   C279 6285   5.880   4.227   2.640 -0.6538 -0.9343 -0.8943
   14MOL   C280 6286   5.865   4.373   2.703 -0.1135  0.4015  0.0964
   14MOL   O281 6287   5.937   4.472   2.629  0.3258  0.3301  0.3136
   14MOL   C282 6288   5.902   4.511   2.510 -0.5845  0.3859  1.1533
   14MOL   O283 6289   5.823   4.451   2.442 -0.0626  0.2646  0.1302
   14MOL   C284 6290   5.986   4.622   2.451 -0.0478 -1.0737 -0.7979
   14MOL   C285 6291   5.992   4.636   2.311  0.7590  0.1607 -0.3592
   14MOL   C286 6292   6.075   4.733   2.251  0.9688 -0.4100 -0.4744
   14MOL   C287 6293   6.148   4.822   2.331 -0.0528  0.6934  0.7362
   14MOL   C288 6294   6.235   4.928   2.279  0.1470 -0.4209 -0.6758
   14MOL   O289 6295   6.259   5.027   2.348  0.2022  0.2481  0.1259
   14MOL   O290 6296   6.284   4.904   2.157 -0.7709  0.2605  0.1527
   14MOL   C291 6297   6.136   4.814   2.469 -0.2674 -0.4317 -0.6833
   14MOL   C292 6298   6.062   4.713   2.533 -0.0561  0.4049 -0.1940
   14MOL   H293 6299   5.980   4.231   2.599 -0.0763 -0.5669  0.5152
   14MOL   H294 6300   5.811   4.204   2.559  0.8062  0.1499 -2.4610
   14MOL   H295 6301   5.896   4.371   2.808 -0.9062  0.9217  0.3436
   14MOL   H296 6302   5.757   4.385   2.709 -0.1779 -0.7840  2.2254
   14MOL   H297 6303   5.926   4.586   2.242 -0.3613  3.0296 -1.4537
   14MOL   H298 6304   6.076   4.749   2.145  0.6935 -1.8294 -0.7079
   14MOL   H299 6305   6.179   4.898   2.522 -0.7761 -0.7625  0.2764
   14MOL   H300 6306   6.057   4.701   2.640  2.0896  0.8307 -0.0334
   14MOL   O301 6307   6.392   5.001   2.123  0.7262  0.4142  0.1131
   14MOL   C302 6308   6.507   4.932   2.077 -0.0981  0.0512 -0.2214
   14MOL   C303 6309   6.586   4.874   2.188 -0.1787  0.2817 -0.6179
   14MOL   O304 6310   6.640   4.983   2.258 -0.5501  0.1053  0.1135
   14MOL   C305 6311   6.769   5.004   2.237  0.0816 -0.4687  0.3887
   14MOL   O306 6312   6.845   4.927   2.173  0.3630  0.2446  0.3984
   14MOL   C307 6313   6.823   5.121   2.314  0.5263 -0.0560  0.2894
   14MOL   C308 6314   6.959   5.154   2.287  0.3243  0.0978  0.3116
   14MOL   C309 6315   7.022   5.256   2.357 -0.0566 -0.2956  0.3004
   14MOL   C310 6316   6.948   5.316   2.463  0.4392  0.9032  0.4273
   14MOL   C311 6317   7.018   5.415   2.546 -0.9758  0.2824  0.4151
   14MOL   O312 6318   6.961   5.497   2.624 -0.1523  0.3713 -0.4308
   14MOL   O313 6319   7.153   5.417   2.529 -0.5143  0.3362 -0.3768
   14MOL   C314 6320   6.823   5.279   2.493  0.5271  0.3123 -0.1741
   14MOL   C315 6321   6.755   5.181   2.421 -0.0527 -0.5899  0.5885
   14MOL   H316 6322   6.475   4.853   2.010 -0.0256 -1.4810  1.5136
   14MOL   H317 6323   6.580   4.994   2.023 -0.3789  0.0968 -0.5471
   14MOL   H318 6324   6.660   4.804   2.149  0.7942  0.4098  0.9523
   14MOL   H319 6325   6.523   4.812   2.251  0.4650  1.7019  1.4543
   14MOL   H320 6326   7.015   5.096   2.215 -2.9715 -2.0600 -0.6121
   14MOL   H321 6327   7.122   5.292   2.342 -0.7182  0.6785 -2.1339
   14MOL   H322 6328   6.777   5.324   2.580 -0.5191 -0.4992 -0.3139
   14MOL   H323 6329   6.657   5.157   2.460 -0.7643 -0.9610 -1.3972
   14MOL   O324 6330   7.226   5.516   2.611  0.5361 -0.6288 -0.1858
   14MOL   C325 6331   7.325   5.440   2.690 -0.5649  0.4005 -0.5179
   14MOL   C326 6332   7.255   5.358   2.799 -0.1797 -0.3389 -0.3154
   14MOL   O327 6333   7.211   5.231   2.754 -0.0687  0.3629  0.3733
   14MOL   C328 6334   7.286   5.121   2.760 -0.1735  0.1770  0.5618
   14MOL   O329 6335   7.389   5.112   2.824  0.2629  0.3894  0.0186
   14MOL   C330 6336   7.235   5.010   2.678  0.0331 -0.2511 -0.5894
   14MOL   C331 6337   7.120   5.025   2.600  0.2605 -0.4424 -0.2942
   14MOL   C332 6338   7.080   4.920   2.512  0.3917 -0.3792  0.2428
   14MOL   C333 6339   7.151   4.794   2.526  1.1771  0.4495  0.3519
   14MOL   C334 6340   7.097   4.678   2.446  0.5685  0.4218  0.0790
   14MOL   O335 6341   7.155   4.569   2.446  0.3518  0.1338  0.2078
   14MOL   O336 6342   6.986   4.703   2.380 -0.5566  0.2675  0.1344
   14MOL   C337 6343   7.258   4.774   2.617  0.1941 -0.0389  0.2554
   14MOL   C338 6344   7.299   4.885   2.695 -0.0928  0.3272  0.7768
   14MOL   H339 6345   7.374   5.372   2.621  0.4020 -0.0422  0.5944
   14MOL   H340 6346   7.402   5.505   2.732 -1.8216  0.4340  1.8042
   14MOL   H341 6347   7.174   5.416   2.843 -0.8622 -2.5007  1.3319
   14MOL   H342 6348   7.337   5.343   2.870  0.6286 -0.7342 -1.3098
   14MOL   H343 6349   7.067   5.119   2.604  2.9335  1.0808  0.1628
   14MOL   H344 6350   7.005   4.938   2.437  0.1843  0.3940  0.6257
   14MOL   H345 6351   7.316   4.684   2.630 -2.6331 -2.0660 -0.5405
   14MOL   H346 6352   7.384   4.865   2.759 -0.2813 -0.8205  0.6866
   14MOL   O347 6353   6.931   4.584   2.307  0.4400  0.4598  0.4406
   14MOL   C348 6354   6.950   4.596   2.165  0.4004 -0.0959 -0.2896
   14MOL   C349 6355   6.895   4.475   2.085  0.0534 -0.6222 -0.5110
   14MOL   O350 6356   6.971   4.360   2.119 -0.2175 -0.2884  0.1864
   14MOL   C351 6357   7.009   4.261   2.036  0.4213  0.0097 -0.0358
   14MOL   O352 6358   6.993   4.257   1.913  0.1009  0.2594  0.0259
   14MOL   C353 6359   7.074   4.144   2.114 -0.5022 -0.2640 -0.2961
   14MOL   C354 6360   7.103   4.024   2.037  0.8743  0.3067  0.5955
   14MOL   C355 6361   7.198   3.926   2.091  0.1814 -0.7839 -0.1851
   14MOL   C356 6362   7.246   3.942   2.227  0.0106 -0.1420 -0.1401
   14MOL   C357 6363   7.355   3.850   2.276  0.2035  0.8342  0.4052
   14MOL   O358 6364   7.401   3.862   2.390  0.2931  0.0322 -0.2483
   14MOL   O359 6365   7.396   3.765   2.180  0.1970  0.1007 -0.3371
   14MOL   C360 6366   7.200   4.050   2.306  0.0665  0.4469  0.1262
   14MOL   C361 6367   7.123   4.153   2.251 -0.1256  0.0295 -0.0736
   14MOL   H362 6368   6.915   4.695   2.134 -0.6480 -0.9938 -2.0028
   14MOL   H363 6369   7.057   4.608   2.144  0.7477 -1.6683  0.4824
   14MOL   H364 6370   6.891   4.486   1.977 -0.7915  0.4035 -0.3742
   14MOL   H365 6371   6.791   4.452   2.107 -0.5946  2.4951 -0.0626
   14MOL   H366 6372   7.060   4.014   1.939 -3.9052  0.3188  2.5500
   14MOL   H367 6373   7.230   3.841   2.033 -0.3932 -0.7580 -0.5483
   14MOL   H368 6374   7.248   4.055   2.403 -0.9719  0.9997  0.6084
   14MOL   H369 6375   7.114   4.243   2.310 -1.4349 -1.3981  1.9808
   14MOL   O370 6376   7.522   3.680   2.205  0.4382 -0.1012 -0.4157
   14MOL   C371 6377   7.506   3.565   2.283  0.6549 -0.3788  0.1186
   14MOL   C372 6378   7.638   3.525   2.337 -0.0830  0.3397 -0.2127
   14MOL   O373 6379   7.679   3.615   2.436 -0.3342  0.3636 -0.1142
   14MOL   C374 6380   7.664   3.579   2.563  0.4954 -0.3021  0.2395
   14MOL   O375 6381   7.633   3.459   2.605 -0.1468  0.7658 -0.2999
   14MOL   C376 6382   7.702   3.684   2.656  0.0858  0.3583 -0.4024
   14MOL   C377 6383   7.775   3.651   2.771  0.7642  0.1201 -0.6283
   14MOL   C378 6384   7.834   3.752   2.852  0.9454 -0.4153  0.4139
   14MOL   C379 6385   7.823   3.893   2.821  0.0414  0.2341  0.5760
   14MOL   C380 6386   7.873   4.002   2.907  0.1861 -0.0147 -0.6705
   14MOL   O381 6387   7.868   4.118   2.873  0.2518 -0.5665 -0.2171
   14MOL   O382 6388   7.917   3.963   3.026  0.4649 -0.3374  0.2279
   14MOL   C383 6389   7.739   3.920   2.712 -0.0121 -0.5981 -0.8730
   14MOL   C384 6390   7.678   3.821   2.630  0.1121  0.3460  0.1595
   14MOL   H385 6391   7.435   3.599   2.358  1.5685 -0.1005  0.8655
   14MOL   H386 6392   7.461   3.480   2.232  0.2676 -1.1401  1.7126
   14MOL   H387 6393   7.709   3.521   2.254  0.9033  1.1414  0.5792
   14MOL   H388 6394   7.626   3.421   2.366  2.3024 -0.5931 -2.3432
   14MOL   H389 6395   7.800   3.547   2.787 -0.5360  0.0068  0.9397
   14MOL   H390 6396   7.900   3.718   2.931 -0.4016 -2.2061  0.8192
   14MOL   H391 6397   7.718   4.023   2.687  0.4252 -0.4492 -0.6317
   14MOL   H392 6398   7.604   3.842   2.555  1.7814 -0.1334 -1.6361
   14MOL   O393 6399   7.950   4.079   3.123  0.1361 -0.1283 -0.2364
   14MOL   C394 6400   8.086   4.110   3.114 -0.3022  0.0346 -0.1763
   14MOL   C395 6401   8.181   3.999   3.150 -0.1009  0.5273  0.5194
   14MOL   O396 6402   0.041   4.024   3.104 -0.0080  0.4032 -0.1612
   14MOL   C397 6403   0.083   3.972   2.982  0.4823  0.3780 -0.1101
   14MOL   O398 6404   0.009   3.936   2.895  0.0477  0.1189  0.1526
   14MOL   C399 6405   0.231   3.999   2.954 -0.2623 -0.3058 -0.2464
   14MOL   C400 6406   0.266   4.012   2.817 -0.8064  0.4684 -0.0723
   14MOL   C401 6407   0.400   4.036   2.783  0.6582 -0.2358  0.2456
   14MOL   C402 6408   0.494   4.072   2.884 -0.1527  0.3238  0.3809
   14MOL   C403 6409   0.626   4.129   2.850  0.2208  0.6688 -0.2164
   14MOL   O404 6410   0.709   4.150   2.936 -0.5079 -0.6791  0.1782
   14MOL   O405 6411   0.646   4.148   2.715 -0.0429 -0.2612 -0.6680
   14MOL   C406 6412   0.456   4.054   3.020  0.2180  0.1108  0.3945
   14MOL   C407 6413   0.328   4.021   3.058  0.0579 -0.6133 -0.3047
   14MOL   H408 6414   8.115   4.133   3.011  3.5888  0.9087  1.0289
   14MOL   H409 6415   8.101   4.197   3.178 -3.4776  0.4551  0.0760
   14MOL   H410 6416   8.148   3.905   3.106  0.9747 -0.2354  1.3180
   14MOL   H411 6417   8.187   3.974   3.256 -0.5266  0.9378  0.6430
   14MOL   H412 6418   0.201   3.992   2.732  1.0096  2.5894 -2.0368
   14MOL   H413 6419   0.432   4.045   2.680 -1.2389  1.7903 -0.2024
   14MOL   H414 6420   0.529   4.064   3.099  1.0354 -1.7292 -0.1038
   14MOL   H415 6421   0.297   4.009   3.161  1.9148 -1.1019  0.2124
   14MOL   O416 6422   0.779   4.214   2.697  0.3479  0.7857 -0.0311
   14MOL   C417 6423   0.757   4.348   2.649 -0.8076 -1.1264 -0.1703
   14MOL   C418 6424   0.698   4.344   2.511  0.2755  0.4162 -0.1282
   14MOL   O419 6425   0.646   4.472   2.470  0.5842 -0.0396  0.4174
   14MOL   C420 6426   0.583   4.472   2.354 -0.3004  0.1353 -0.0676
   14MOL   O421 6427   0.557   4.374   2.285  0.2328 -0.5027  0.0614
   14MOL   C422 6428   0.537   4.609   2.318  0.2308 -0.6987 -0.5753
   14MOL   C423 6429   0.440   4.630   2.219 -0.0334  0.1987 -0.2645
   14MOL   C424 6430   0.391   4.758   2.191 -0.4586 -0.5524  0.1396
   14MOL   C425 6431   0.439   4.870   2.260  0.0812 -0.1404  0.2769
   14MOL   C426 6432   0.391   5.007   2.231 -0.1780  0.0511 -0.1961
   14MOL   O427 6433   0.306   5.029   2.149  0.6634 -0.7640 -0.6727
   14MOL   O428 6434   0.444   5.108   2.305 -0.2351 -0.6421  0.1834
   14MOL   C429 6435   0.536   4.854   2.359  0.2167 -0.3082 -0.0561
   14MOL   C430 6436   0.589   4.720   2.378  0.5136 -0.4775  0.3843
   14MOL   H431 6437   0.686   4.404   2.710 -0.7188  0.1528 -1.2141
   14MOL   H432 6438   0.848   4.409   2.653 -2.0502  0.7774 -0.3861
   14MOL   H433 6439   0.629   4.263   2.491  1.2939  0.4302 -4.2320
   14MOL   H434 6440   0.774   4.318   2.437  1.0376  1.4932  0.2591
   14MOL   H435 6441   0.393   4.546   2.168 -0.9543  0.8665 -0.5195
   14MOL   H436 6442   0.313   4.755   2.117  1.0234 -0.3564 -1.4694
   14MOL   H437 6443   0.593   4.931   2.408  0.3691 -1.3324  1.4177
   14MOL   H438 6444   0.662   4.718   2.457 -2.1674 -0.7339  2.9758
   14MOL   O439 6445   0.394   5.245   2.276 -0.6875 -0.2405 -0.7035
   14MOL   C440 6446   0.477   5.314   2.192 -0.0694 -0.0486 -0.9267
   14MOL   C441 6447   0.583   5.393   2.270 -0.8639 -0.2017 -0.3373
   14MOL   O442 6448   0.675   5.303   2.334  0.1610 -0.2223 -0.2888
   14MOL   C443 6449   0.657   5.282   2.466  0.5202 -0.7773  0.1292
   14MOL   O444 6450   0.557   5.328   2.527 -0.0105 -0.2538 -0.0220
   14MOL   C445 6451   0.745   5.176   2.527  0.2413 -0.5483 -0.2474
   14MOL   C446 6452   0.762   5.163   2.666 -0.4279  0.5803  0.7330
   14MOL   C447 6453   0.848   5.069   2.719 -0.2704 -0.0147 -0.3816
   14MOL   C448 6454   0.903   4.971   2.642 -0.1513  0.0639  0.5443
   14MOL   C449 6455   0.996   4.873   2.706 -0.4072 -0.2449  0.6394
   14MOL   O450 6456   0.963   4.804   2.801 -0.0965  0.0727  0.2734
   14MOL   O451 6457   1.121   4.877   2.658  0.1413  0.2730  0.0673
   14MOL   C452 6458   0.890   4.977   2.501  0.0715 -0.5618  0.2292
   14MOL   C453 6459   0.816   5.084   2.448  0.1637 -0.0271  0.8354
   14MOL   H454 6460   0.514   5.254   2.108 -1.6854 -2.0797 -0.2099
   14MOL   H455 6461   0.420   5.396   2.149 -1.3578  1.3463  3.2762
   14MOL   H456 6462   0.534   5.454   2.346  0.5771 -0.1939  0.6187
   14MOL   H457 6463   0.644   5.439   2.193 -3.5242  0.8048 -1.8927
   14MOL   H458 6464   0.712   5.232   2.731 -0.7567  0.6218  0.4362
   14MOL   H459 6465   0.869   5.068   2.825  1.3432  1.3165 -0.6818
   14MOL   H460 6466   0.939   4.913   2.429 -0.0381  1.4521 -1.7254
   14MOL   H461 6467   0.800   5.083   2.341 -0.2568 -1.3584  0.8905
   14MOL   H462 6468   1.192   4.855   2.717 -0.3418 -0.2171  0.4772
   15MOL     O1 6469   2.987   7.041   3.219 -0.2061 -0.0723 -0.6197
   15MOL     C2 6470   2.885   7.062   3.308  0.2535  0.5889  0.1439
   15MOL     C3 6471   2.759   6.989   3.251 -0.4756 -0.5249 -0.0768
   15MOL     O4 6472   2.682   7.080   3.165 -0.1749  0.2592 -0.3430
   15MOL     C5 6473   2.601   7.164   3.219  0.0816  0.3582  0.6582
   15MOL     O6 6474   2.585   7.167   3.339  0.2060  0.1573 -0.4382
   15MOL     C7 6475   2.537   7.252   3.116  0.4015 -0.3195 -0.4847
   15MOL     C8 6476   2.437   7.339   3.159 -0.7646  0.1520  0.1504
   15MOL     C9 6477   2.358   7.411   3.076  0.5346 -0.1794  0.1294
   15MOL    C10 6478   2.371   7.399   2.933  0.6511  0.1282 -0.3664
   15MOL    C11 6479   2.284   7.470   2.843 -0.2832  0.2703  0.7084
   15MOL    O12 6480   2.310   7.501   2.725  0.5519 -0.0348 -0.4065
   15MOL    O13 6481   2.159   7.493   2.898  0.0139 -0.1212  0.3194
   15MOL    C14 6482   2.481   7.320   2.889  0.3809 -0.4665  0.7418
   15MOL    C15 6483   2.563   7.241   2.977  0.1060  0.3966 -0.1388
   15MOL    H16 6484   2.915   7.014   3.401 -1.1094  1.0007  0.8146
   15MOL    H17 6485   2.867   7.166   3.337  3.2445  0.4687  2.6286
   15MOL    H18 6486   2.692   6.955   3.330 -2.2973 -1.2447 -1.8851
   15MOL    H19 6487   2.788   6.904   3.189  0.9969  0.6555 -1.0421
   15MOL    H20 6488   2.419   7.354   3.264  2.1964  1.3210  0.5502
   15MOL    H21 6489   2.284   7.480   3.115  0.2609 -1.0854  1.2278
   15MOL    H22 6490   2.486   7.311   2.782 -3.6588  3.0697  0.1035
   15MOL    H23 6491   2.624   7.161   2.939 -0.8861 -0.7764  0.6871
   15MOL    H24 6492   2.935   7.015   3.144  0.5836 -1.4287 -0.7082
   15MOL    O25 6493   2.045   7.534   2.796 -0.6876 -0.9182 -0.3449
   15MOL    C26 6494   2.039   7.679   2.779  0.0836 -0.2106  0.0461
   15MOL    C27 6495   1.903   7.709   2.725 -0.4981 -0.4186 -1.0737
   15MOL    O28 6496   1.801   7.700   2.819 -0.2676  0.1988  0.4712
   15MOL    C29 6497   1.732   7.812   2.864  0.4612  0.0260 -0.5401
   15MOL    O30 6498   1.772   7.923   2.839 -0.0514  0.1696 -0.1486
   15MOL    C31 6499   1.621   7.780   2.960 -0.0500 -0.1334  0.2947
   15MOL    C32 6500   1.546   7.664   2.953 -0.1049 -0.0849  0.9081
   15MOL    C33 6501   1.431   7.643   3.030  0.4610 -0.0384 -0.2807
   15MOL    C34 6502   1.389   7.740   3.121  0.2693  0.2737 -0.2587
   15MOL    C35 6503   1.275   7.729   3.212  0.4506  0.5784  0.1836
   15MOL    O36 6504   1.236   7.824   3.279 -0.2078 -0.2643  0.5172
   15MOL    O37 6505   1.226   7.609   3.227  0.3645 -0.4483 -0.3853
   15MOL    C38 6506   1.463   7.858   3.128  0.0715  0.2878 -0.1589
   15MOL    C39 6507   1.577   7.875   3.049 -0.2807  0.5722 -0.5088
   15MOL    H40 6508   2.050   7.735   2.872 -3.5003  1.4289 -0.4156
   15MOL    H41 6509   2.116   7.707   2.707 -2.4821  3.0483 -1.5496
   15MOL    H42 6510   1.891   7.643   2.640  2.8296 -0.8072 -1.3163
   15MOL    H43 6511   1.918   7.812   2.693  0.0197  0.2743  1.2602
   15MOL    H44 6512   1.568   7.597   2.870  2.6640  0.3872  1.2213
   15MOL    H45 6513   1.370   7.555   3.015  0.5994 -0.4743  1.5897
   15MOL    H46 6514   1.432   7.934   3.198  0.1676  2.6503 -2.5890
   15MOL    H47 6515   1.626   7.970   3.058  1.1485 -0.3005  1.4954
   15MOL    O48 6516   1.096   7.595   3.309 -0.1091 -0.4630  0.0789
   15MOL    C49 6517   0.983   7.601   3.221  0.3607 -0.4078 -0.1961
   15MOL    C50 6518   0.848   7.605   3.298 -0.8952 -0.4458 -0.2002
   15MOL    O51 6519   0.800   7.734   3.334  0.0737  0.5315  0.6257
   15MOL    C52 6520   0.718   7.752   3.441 -0.3742 -0.1202  0.2547
   15MOL    O53 6521   0.662   7.661   3.500  0.6067  0.0536 -0.1182
   15MOL    C54 6522   0.699   7.897   3.468  0.2086 -0.5044  0.1511
   15MOL    C55 6523   0.633   7.936   3.587 -0.0621 -0.9190 -0.4641
   15MOL    C56 6524   0.604   8.069   3.621  0.1167  0.0008  0.3811
   15MOL    C57 6525   0.644   8.168   3.531 -0.4074  0.0780  0.3739
   15MOL    C58 6526   0.604   0.032   3.560  0.3947  0.1562  0.3715
   15MOL    O59 6527   0.592   0.116   3.475 -0.0425  0.3056  0.2503
   15MOL    O60 6528   0.597   0.058   3.691 -1.1839  0.0239  0.3193
   15MOL    C61 6529   0.718   8.139   3.418 -0.3732  0.6347 -0.9179
   15MOL    C62 6530   0.742   8.004   3.386  0.4280  0.1343  0.0531
   15MOL    H63 6531   0.994   7.690   3.158 -0.7207  0.6162  1.0273
   15MOL    H64 6532   0.982   7.512   3.158  4.1117 -2.1365  2.0244
   15MOL    H65 6533   0.852   7.543   3.388  1.8834 -0.7550 -0.4998
   15MOL    H66 6534   0.773   7.555   3.237 -0.1938 -0.1479 -1.3145
   15MOL    H67 6535   0.605   7.852   3.648  1.5057 -0.3375  1.1128
   15MOL    H68 6536   0.542   8.088   3.707 -0.1876 -3.2140  0.9285
   15MOL    H69 6537   0.743   8.216   3.346  1.9271  0.0312 -0.8058
   15MOL    H70 6538   0.799   7.983   3.296  0.9389 -0.8044  0.5779
   15MOL    O71 6539   0.545   0.191   3.728  0.0914  0.2507  0.1419
   15MOL    C72 6540   0.652   0.281   3.747  0.6509  0.1482 -0.5091
   15MOL    C73 6541   0.606   0.419   3.702 -0.0364  0.7021  0.4043
   15MOL    O74 6542   0.708   0.513   3.707  0.7799 -0.3530 -0.1621
   15MOL    C75 6543   0.755   0.568   3.818  0.4985  0.0876 -0.1328
   15MOL    O76 6544   0.732   0.517   3.930 -0.0542 -0.5230  0.3488
   15MOL    C77 6545   0.843   0.682   3.787 -0.1730  0.4390 -0.6491
   15MOL    C78 6546   0.931   0.728   3.891  0.5568 -0.0834 -0.1713
   15MOL    C79 6547   1.005   0.845   3.869 -0.6086 -0.6720 -0.1732
   15MOL    C80 6548   0.997   0.911   3.745 -0.1545  0.1633 -0.0144
   15MOL    C81 6549   1.087   1.021   3.719  0.3510  0.0265  0.3082
   15MOL    O82 6550   1.162   1.059   3.804 -0.9490  0.1015  0.0303
   15MOL    O83 6551   1.083   1.073   3.597 -0.9931  0.0128  0.3107
   15MOL    C84 6552   0.907   0.870   3.641  0.4749 -0.2617 -0.0096
   15MOL    C85 6553   0.833   0.756   3.666  0.0460 -0.2445 -0.4126
   15MOL    H86 6554   0.672   0.272   3.854  0.4802 -0.0472 -0.4951
   15MOL    H87 6555   0.741   0.247   3.694  0.8407 -0.7497  0.3704
   15MOL    H88 6556   0.515   0.452   3.753 -2.0436 -2.9498 -0.6252
   15MOL    H89 6557   0.580   0.413   3.597  0.5698  2.4051  0.1289
   15MOL    H90 6558   0.943   0.677   3.986  1.9250 -1.6157 -1.1484
   15MOL    H91 6559   1.076   0.877   3.944 -0.5337 -0.3874 -0.3661
   15MOL    H92 6560   0.908   0.918   3.544  0.5375 -2.6161 -1.2321
   15MOL    H93 6561   0.765   0.730   3.585  0.9543 -0.3587 -1.1524
   15MOL    O94 6562   1.195   1.173   3.579 -0.2675  0.5970  0.3965
   15MOL    C95 6563   1.288   1.126   3.481  0.4750 -0.0452 -0.7611
   15MOL    C96 6564   1.243   1.152   3.327 -0.3429 -0.1468 -0.3012
   15MOL    O97 6565   1.135   1.065   3.296 -0.6362 -0.2141 -0.0022
   15MOL    C98 6566   1.009   1.112   3.302  0.2841  0.3628  0.0002
   15MOL    O99 6567   0.980   1.234   3.326  0.0868 -0.1659 -0.4763
   15MOL   C100 6568   0.904   1.008   3.276  0.2017 -0.2561 -0.1218
   15MOL   C101 6569   0.944   0.871   3.259  0.3944  0.1010  0.9303
   15MOL   C102 6570   0.843   0.772   3.262 -0.0872  0.4962 -0.1098
   15MOL   C103 6571   0.707   0.805   3.260  0.3095 -0.4819 -0.7077
   15MOL   C104 6572   0.599   0.703   3.242  0.4506  0.8369  0.0183
   15MOL   O105 6573   0.474   0.725   3.254  0.1688 -0.1059 -0.2946
   15MOL   O106 6574   0.645   0.584   3.225 -0.1224 -0.3302  0.0510
   15MOL   C107 6575   0.665   0.942   3.282 -1.2034 -0.4071  0.3665
   15MOL   C108 6576   0.772   1.038   3.288  0.2122 -0.2261  0.6502
   15MOL   H109 6577   1.380   1.181   3.501  2.1048 -2.9214 -0.0522
   15MOL   H110 6578   1.318   1.023   3.499  1.9430  0.2462 -1.3943
   15MOL   H111 6579   1.326   1.139   3.258 -0.5928 -0.7541 -0.4915
   15MOL   H112 6580   1.222   1.258   3.314  1.1493  0.2405  0.3018
   15MOL   H113 6581   1.049   0.845   3.250  1.1703  2.9495  1.2674
   15MOL   H114 6582   0.876   0.670   3.248 -2.6438 -0.2763 -0.6357
   15MOL   H115 6583   0.565   0.980   3.299 -1.0467  0.5099 -0.7179
   15MOL   H116 6584   0.740   1.141   3.301 -1.7999 -0.7967  0.2931
   15MOL   O117 6585   0.547   0.479   3.178 -0.3097  0.1259 -0.4109
   15MOL   C118 6586   0.501   0.400   3.283 -0.5253 -0.2097  0.2549
   15MOL   C119 6587   0.416   0.287   3.228  0.1222  0.3737 -0.2202
   15MOL   O120 6588   0.297   0.354   3.197 -0.0977 -0.3909  0.5016
   15MOL   C121 6589   0.178   0.284   3.193 -0.2613  0.5365 -0.8677
   15MOL   O122 6590   0.162   0.169   3.227  0.0473 -0.3858 -0.6798
   15MOL   C123 6591   0.058   0.362   3.150  0.1084  0.4647  0.5759
   15MOL   C124 6592   8.205   0.303   3.131  0.0777  0.6042  0.1891
   15MOL   C125 6593   8.101   0.376   3.077  0.7494  0.5345 -0.3519
   15MOL   C126 6594   8.122   0.505   3.031  0.1635  0.1745 -0.6794
   15MOL   C127 6595   8.015   0.582   2.956 -0.4085 -0.0184 -0.4043
   15MOL   O128 6596   8.031   0.695   2.908  0.4397 -0.1911  0.2146
   15MOL   O129 6597   7.906   0.510   2.942 -0.2143  0.2673  0.4851
   15MOL   C130 6598   8.244   0.564   3.051 -0.2405  0.0757 -0.3264
   15MOL   C131 6599   0.072   0.495   3.109  0.1148 -0.4347  0.8556
   15MOL   H132 6600   0.590   0.362   3.332  0.0197  0.0098 -0.5440
   15MOL   H133 6601   0.456   0.464   3.358  2.7466  1.0081  1.2712
   15MOL   H134 6602   0.405   0.215   3.309  1.3744  1.1058  0.6108
   15MOL   H135 6603   0.448   0.227   3.143 -0.8470  0.5108 -0.6862
   15MOL   H136 6604   8.184   0.201   3.161  0.3006 -0.6263 -3.5759
   15MOL   H137 6605   8.005   0.327   3.084  0.3839  1.5171  2.5136
   15MOL   H138 6606   8.260   0.667   3.024 -0.1902  1.2428  3.8289
   15MOL   H139 6607   0.169   0.542   3.111  0.5988 -1.3920  0.2069
   15MOL   O140 6608   7.798   0.577   2.858 -0.3095  0.3522 -0.1267
   15MOL   C141 6609   7.671   0.543   2.925 -0.1158  0.7806  0.1428
   15MOL   C142 6610   7.626   0.396   2.880  0.2117 -0.0770  0.8069
   15MOL   O143 6611   7.653   0.309   2.988 -0.0679 -0.1240 -0.0491
   15MOL   C144 6612   7.745   0.209   2.973  0.0385 -0.6424 -0.2309
   15MOL   O145 6613   7.828   0.205   2.885 -0.2101 -0.1164 -0.5516
   15MOL   C146 6614   7.725   0.104   3.072  0.0533 -0.2741 -0.5389
   15MOL   C147 6615   7.836   0.019   3.094  0.2277 -0.5294 -0.3031
   15MOL   C148 6616   7.826   8.190   3.183  0.5539 -0.5211 -0.4492
   15MOL   C149 6617   7.705   8.160   3.255  0.0503 -0.1031 -0.3625
   15MOL   C150 6618   7.691   8.044   3.351 -0.5694 -0.2589 -0.7533
   15MOL   O151 6619   7.783   7.967   3.379 -0.2740  0.0343 -0.4310
   15MOL   O152 6620   7.574   8.036   3.417  0.0862  0.0384  0.6563
   15MOL   C153 6621   7.596   8.242   3.221  0.9086 -0.1134 -0.3005
   15MOL   C154 6622   7.605   0.078   3.139  0.5323 -0.0157  0.1524
   15MOL   H155 6623   7.683   0.559   3.032  0.1507 -0.3832  0.2904
   15MOL   H156 6624   7.595   0.605   2.877  1.4415  0.6942 -2.5863
   15MOL   H157 6625   7.660   0.372   2.779 -1.9566  1.8433 -0.4213
   15MOL   H158 6626   7.517   0.392   2.879  0.1660  1.1637 -0.8494
   15MOL   H159 6627   7.935   0.040   3.057  0.5869 -0.5967  0.5897
   15MOL   H160 6628   7.904   8.117   3.195  2.2837  1.0362 -1.9417
   15MOL   H161 6629   7.495   8.213   3.245  1.0801 -1.4705 -1.1617
   15MOL   H162 6630   7.520   0.136   3.107  0.5024  0.7213  1.5354
   15MOL   O163 6631   7.589   7.936   3.541 -0.4580  0.0645  0.0418
   15MOL   C164 6632   7.545   8.011   3.657  0.3360 -0.5050 -0.5704
   15MOL   C165 6633   7.636   8.137   3.686  0.2819  0.0745  0.8935
   15MOL   O166 6634   7.758   8.076   3.704 -0.2223 -0.1666 -0.8798
   15MOL   C167 6635   7.791   8.043   3.832 -0.4944  0.0700  0.0832
   15MOL   O168 6636   7.750   8.099   3.935 -0.4454  0.3472 -0.1254
   15MOL   C169 6637   7.902   7.941   3.838  0.9520  0.6272  0.3428
   15MOL   C170 6638   7.967   7.887   3.727 -0.2425 -0.7794  0.5620
   15MOL   C171 6639   8.069   7.796   3.740  0.2162  0.3356  0.4845
   15MOL   C172 6640   8.106   7.742   3.862 -0.5122 -0.0728  0.5180
   15MOL   C173 6641   8.217   7.641   3.865  0.5987  0.2441  0.8907
   15MOL   O174 6642   0.022   7.620   3.773 -0.0475 -0.1021 -0.2390
   15MOL   O175 6643   8.215   7.571   3.984 -0.1948 -0.2343 -0.0144
   15MOL   C176 6644   8.040   7.795   3.977  0.3756 -0.2778 -0.1089
   15MOL   C177 6645   7.941   7.892   3.963 -0.2114 -0.0919  0.1838
   15MOL   H178 6646   7.438   8.027   3.642 -0.2336 -4.1121 -0.8160
   15MOL   H179 6647   7.558   7.947   3.744  1.6580  0.7659  0.1874
   15MOL   H180 6648   7.591   8.186   3.773 -2.1069  0.1935 -0.3598
   15MOL   H181 6649   7.638   8.201   3.598  0.1052 -3.3166 -1.6782
   15MOL   H182 6650   7.952   7.928   3.628 -0.0681  0.7516  1.1660
   15MOL   H183 6651   8.118   7.769   3.648 -0.2393 -1.5863  0.7731
   15MOL   H184 6652   8.070   7.766   4.076  0.8232 -0.7419 -0.3778
   15MOL   H185 6653   7.881   7.919   4.049 -2.0820 -1.2061 -0.7327
   15MOL   O186 6654   0.037   7.450   3.983  0.1279 -0.5699 -0.0691
   15MOL   C187 6655   8.221   7.341   3.976  0.2293  0.3372 -0.3018
   15MOL   C188 6656   0.008   7.201   4.013  0.0234  0.1025  0.4730
   15MOL   O189 6657   8.222   7.106   3.930 -0.4022 -0.3120 -0.2993
   15MOL   C190 6658   8.247   6.970   3.945  0.6289  0.2610 -0.4163
   15MOL   O191 6659   0.023   6.921   4.038  0.3614  0.1926 -0.6786
   15MOL   C192 6660   8.205   6.896   3.824 -0.5423 -0.2654 -0.4586
   15MOL   C193 6661   8.187   6.749   3.832 -0.1109 -0.2862  0.3051
   15MOL   C194 6662   8.141   6.672   3.728  0.6311  0.2289 -0.5772
   15MOL   C195 6663   8.113   6.732   3.602  0.4378 -0.3106 -0.4756
   15MOL   C196 6664   8.068   6.646   3.483 -0.2359 -0.1469 -0.1681
   15MOL   O197 6665   8.034   6.530   3.503 -0.0086 -0.0584  0.0779
   15MOL   O198 6666   8.081   6.712   3.369 -0.8256  0.2531 -0.6606
   15MOL   C199 6667   8.127   6.875   3.596 -0.2760 -0.0146  0.2886
   15MOL   C200 6668   8.173   6.959   3.700  0.4763 -0.2347 -0.2485
   15MOL   H201 6669   8.143   7.363   4.049  2.2017  2.3002  1.2697
   15MOL   H202 6670   8.169   7.344   3.881 -1.1265  0.0127  0.4182
   15MOL   H203 6671   8.260   7.164   4.113 -1.0679  0.3983  0.3385
   15MOL   H204 6672   0.116   7.200   4.000  0.3102 -1.8625  2.6472
   15MOL   H205 6673   8.197   6.701   3.928 -0.4833 -3.5408 -1.2316
   15MOL   H206 6674   8.113   6.570   3.749 -0.2371  0.4734 -0.5155
   15MOL   H207 6675   8.109   6.928   3.503 -0.6467 -2.2858 -0.9665
   15MOL   H208 6676   8.185   7.065   3.681  1.6642 -0.7220 -2.2515
   15MOL   O209 6677   8.024   6.632   3.260 -0.1554  0.6491 -0.6069
   15MOL   C210 6678   8.127   6.568   3.193  0.1958  0.1726 -0.2227
   15MOL   C211 6679   8.064   6.440   3.137 -0.3335 -0.3585 -0.3797
   15MOL   O212 6680   8.044   6.345   3.246  0.1226 -0.5971  0.2153
   15MOL   C213 6681   7.932   6.339   3.313 -0.4417 -0.5180  0.5598
   15MOL   O214 6682   7.830   6.401   3.276  0.2360  0.1692  0.0764
   15MOL   C215 6683   7.946   6.249   3.433  0.2818  0.3925 -0.0242
   15MOL   C216 6684   7.841   6.237   3.520 -0.2682 -0.2722  0.0173
   15MOL   C217 6685   7.849   6.149   3.626 -0.3178  0.9450  0.0691
   15MOL   C218 6686   7.959   6.064   3.645 -0.3542  0.2056 -0.8591
   15MOL   C219 6687   7.969   5.981   3.762  0.5953 -0.1846  0.4485
   15MOL   O220 6688   8.062   5.904   3.779 -0.2278  0.1396 -0.4752
   15MOL   O221 6689   7.867   5.996   3.848  0.4184 -0.7862 -0.1931
   15MOL   C222 6690   8.066   6.074   3.556 -0.0380 -0.1918  0.2916
   15MOL   C223 6691   8.064   6.173   3.455  0.4131  0.3693  0.3814
   15MOL   H224 6692   8.174   6.638   3.124  0.8924 -0.0616  0.0104
   15MOL   H225 6693   8.203   6.530   3.261  1.3496  0.5443 -1.2700
   15MOL   H226 6694   8.144   6.390   3.083  0.1230  1.4817 -1.4827
   15MOL   H227 6695   7.978   6.450   3.070  0.1630 -0.7979 -1.0917
   15MOL   H228 6696   7.745   6.285   3.506 -1.0270 -0.8226  2.9105
   15MOL   H229 6697   7.771   6.132   3.700  0.7989 -3.8607  0.2980
   15MOL   H230 6698   8.156   6.016   3.570  0.1114 -0.2562 -0.9116
   15MOL   H231 6699   8.148   6.186   3.388  0.3914 -0.8980  0.0894
   15MOL   O232 6700   7.896   5.934   3.980 -0.7894  0.7629  0.2020
   15MOL   C233 6701   7.820   5.812   3.996 -0.2064 -0.2730  0.4975
   15MOL   C234 6702   7.843   5.746   4.134 -0.1135  0.0249  0.2884
   15MOL   O235 6703   7.958   5.659   4.119 -0.3296  0.2794 -0.7736
   15MOL   C236 6704   8.062   5.671   4.210 -0.0262 -0.0847 -0.5207
   15MOL   O237 6705   8.067   5.761   4.297  0.1894 -0.4494  0.1533
   15MOL   C238 6706   8.174   5.579   4.186 -0.5079  0.5160 -0.2019
   15MOL   C239 6707   8.188   5.509   4.066  0.8925 -0.8066  0.1512
   15MOL   C240 6708   0.015   5.420   4.040  0.6006 -0.5794 -0.0883
   15MOL   C241 6709   0.115   5.401   4.136 -0.6064  0.3550 -0.2546
   15MOL   C242 6710   0.230   5.308   4.124 -0.1563 -0.3084  0.2458
   15MOL   O243 6711   0.265   5.249   4.222 -0.0866 -0.7959 -0.1918
   15MOL   O244 6712   0.287   5.306   4.001 -0.0446  0.7089  0.2393
   15MOL   C245 6713   0.096   5.458   4.267 -0.3599 -0.0582 -0.1934
   15MOL   C246 6714   8.274   5.556   4.289  0.2271  0.5108  0.2919
   15MOL   H247 6715   7.715   5.829   3.974 -0.1738 -0.1739  0.4192
   15MOL   H248 6716   7.866   5.747   3.921 -0.7833  1.1757 -1.1317
   15MOL   H249 6717   7.757   5.687   4.165 -1.7572  1.3714 -1.6014
   15MOL   H250 6718   7.853   5.817   4.217  0.2767  0.3555 -0.0418
   15MOL   H251 6719   8.114   5.523   3.988  0.4056  2.4746  1.1193
   15MOL   H252 6720   0.024   5.357   3.952  2.0711 -2.8769  1.6482
   15MOL   H253 6721   0.171   5.441   4.343 -1.0622  1.6116  0.9050
   15MOL   H254 6722   8.260   5.613   4.380  0.9556  3.5104 -1.4153
   15MOL   O255 6723   0.390   5.202   3.974 -0.3104 -0.3908  0.3088
   15MOL   C256 6724   0.513   5.267   3.995  0.4977  0.0736  0.8142
   15MOL   C257 6725   0.610   5.189   3.907  0.1801 -0.2013  0.1481
   15MOL   O258 6726   0.661   5.288   3.819 -0.1478  0.2456  0.0024
   15MOL   C259 6727   0.791   5.287   3.781  0.1902  0.1656  0.3390
   15MOL   O260 6728   0.870   5.200   3.826  0.5758  0.0948  0.3079
   15MOL   C261 6729   0.829   5.398   3.693 -0.1712 -0.6171 -0.6874
   15MOL   C262 6730   0.755   5.515   3.681  0.4438 -0.5436  0.5254
   15MOL   C263 6731   0.800   5.622   3.601 -0.1451  0.0968 -0.1160
   15MOL   C264 6732   0.929   5.614   3.539  0.8600 -0.3586 -0.6119
   15MOL   C265 6733   0.969   5.713   3.448 -0.3219 -0.3924 -0.8567
   15MOL   O266 6734   0.892   5.784   3.388 -0.3701  0.0951  0.6113
   15MOL   O267 6735   1.102   5.728   3.439  0.5289  0.2321  0.1529
   15MOL   C268 6736   1.005   5.502   3.559  0.1730 -0.2583  0.5572
   15MOL   C269 6737   0.952   5.387   3.625 -0.5095  0.1139  0.4559
   15MOL   H270 6738   0.507   5.371   3.962  0.6461  0.1457  1.0125
   15MOL   H271 6739   0.528   5.249   4.102  0.1602  1.1959  1.0569
   15MOL   H272 6740   0.572   5.109   3.844 -2.0510  0.5032  0.5523
   15MOL   H273 6741   0.682   5.152   3.980 -0.3605  1.8062  1.7465
   15MOL   H274 6742   0.659   5.526   3.729 -0.4938  1.9281 -1.8116
   15MOL   H275 6743   0.740   5.708   3.577  0.0773  0.3119  0.0918
   15MOL   H276 6744   1.103   5.497   3.512 -0.2210 -1.3183 -0.1739
   15MOL   H277 6745   1.008   5.295   3.622  2.0294  1.6199  0.2237
   15MOL   O278 6746   1.148   5.849   3.363  0.2815 -0.1491  0.8133
   15MOL   C279 6747   1.165   5.954   3.457  0.2449  0.0358  0.8544
   15MOL   C280 6748   1.252   5.918   3.579  0.1491  0.6201 -0.1734
   15MOL   O281 6749   1.174   5.862   3.685  0.9955  0.0774 -0.1710
   15MOL   C282 6750   1.219   5.742   3.739  0.2883 -0.7789 -0.4781
   15MOL   O283 6751   1.317   5.680   3.702  0.1860 -0.0282  0.3949
   15MOL   C284 6752   1.128   5.692   3.840  0.0742 -0.1715 -0.1188
   15MOL   C285 6753   1.001   5.754   3.858  0.2005 -0.1752  0.0085
   15MOL   C286 6754   0.906   5.686   3.934 -0.2068 -0.2688 -0.4931
   15MOL   C287 6755   0.940   5.566   4.002 -0.6532 -0.3936 -0.4398
   15MOL   C288 6756   0.839   5.497   4.082 -0.3569  0.2939 -0.0716
   15MOL   O289 6757   0.864   5.402   4.158  0.2194  0.2265 -0.6540
   15MOL   O290 6758   0.710   5.549   4.056  0.3763 -0.3425  0.1231
   15MOL   C291 6759   1.056   5.498   3.973  0.5493  0.6820 -0.0224
   15MOL   C292 6760   1.157   5.564   3.901 -0.2225 -0.2510 -0.2954
   15MOL   H293 6761   1.210   6.034   3.397 -0.0486  0.8951  1.7739
   15MOL   H294 6762   1.072   5.999   3.492  0.4791 -0.0759  1.6336
   15MOL   H295 6763   1.305   6.004   3.620  2.8992 -2.3629  2.9255
   15MOL   H296 6764   1.328   5.847   3.546 -0.5089 -0.2324  0.1272
   15MOL   H297 6765   0.967   5.839   3.800  1.7311 -0.9324 -2.0713
   15MOL   H298 6766   0.807   5.725   3.953 -0.8859 -1.6685 -1.1509
   15MOL   H299 6767   1.070   5.393   3.993 -2.4570 -0.0603 -1.6300
   15MOL   H300 6768   1.249   5.513   3.878  0.1878 -0.0719  0.8876
   15MOL   O301 6769   0.610   5.513   4.162 -0.1314  0.5264 -0.3216
   15MOL   C302 6770   0.618   5.613   4.269  0.4325 -0.5463 -0.7587
   15MOL   C303 6771   0.497   5.595   4.355  0.5028 -0.4329 -0.0217
   15MOL   O304 6772   0.511   5.649   4.481  0.1582 -0.0427  0.3939
   15MOL   C305 6773   0.523   5.784   4.498  0.4306 -0.1903 -0.3370
   15MOL   O306 6774   0.517   5.866   4.402 -0.3696  0.0357 -0.1680
   15MOL   C307 6775   0.548   5.827   4.638 -0.4119 -0.3814 -0.4490
   15MOL   C308 6776   0.501   5.754   4.750  0.2315  0.3088 -0.0242
   15MOL   C309 6777   0.525   5.803   4.882 -0.4267  0.2099  0.0171
   15MOL   C310 6778   0.608   5.917   4.901  0.7708 -0.2851 -0.2926
   15MOL   C311 6779   0.627   5.977   5.033 -0.4487 -0.1154  0.0272
   15MOL   O312 6780   0.667   6.091   5.045 -0.0324 -0.4997  0.6103
   15MOL   O313 6781   0.591   5.905   5.141  0.0398  0.0035  0.0190
   15MOL   C314 6782   0.658   5.983   4.782 -0.2087 -0.2443 -0.2320
   15MOL   C315 6783   0.635   5.937   4.649 -1.0259  0.4911  0.2805
   15MOL   H316 6784   0.710   5.600   4.327  1.0993  1.7856 -1.2294
   15MOL   H317 6785   0.616   5.713   4.228  0.2134 -0.2997 -0.1551
   15MOL   H318 6786   0.486   5.488   4.371  0.6786 -0.6441 -1.2159
   15MOL   H319 6787   0.404   5.625   4.306 -0.2589 -2.9196 -0.1828
   15MOL   H320 6788   0.449   5.662   4.727 -0.2103  1.0813 -2.2943
   15MOL   H321 6789   0.475   5.744   4.957  0.8346 -1.0023 -0.0943
   15MOL   H322 6790   0.719   6.069   4.807 -2.7080  1.1569  1.2108
   15MOL   H323 6791   0.674   5.982   4.559 -0.8416  1.5327  0.8700
   15MOL   O324 6792   0.625   5.965   5.274  0.2806 -0.5724 -0.7375
   15MOL   C325 6793   0.508   6.002   5.342 -0.0689 -0.2454  0.7032
   15MOL   C326 6794   0.539   6.122   5.437 -0.4800 -0.4719  0.2650
   15MOL   O327 6795   0.562   6.242   5.366 -0.5978  0.1473  0.5936
   15MOL   C328 6796   0.455   6.319   5.328 -0.9468  0.6140  0.5175
   15MOL   O329 6797   0.337   6.288   5.356 -0.1406 -0.3366 -0.1611
   15MOL   C330 6798   0.490   6.445   5.248  0.0189  0.3671  0.5362
   15MOL   C331 6799   0.623   6.462   5.207 -0.1964 -0.0420  0.4707
   15MOL   C332 6800   0.648   6.559   5.109 -0.0387 -0.2125 -0.9643
   15MOL   C333 6801   0.550   6.640   5.047  0.1810 -0.1148  0.0537
   15MOL   C334 6802   0.577   6.723   4.933 -0.5940 -0.8863  0.0653
   15MOL   O335 6803   0.684   6.743   4.883 -0.0303 -0.4530 -0.1043
   15MOL   O336 6804   0.469   6.792   4.888 -0.2986 -0.2701 -0.3964
   15MOL   C337 6805   0.418   6.626   5.101 -0.3102 -0.2682 -0.3942
   15MOL   C338 6806   0.391   6.531   5.198  0.5908 -0.1681 -0.4194
   15MOL   H339 6807   0.440   6.032   5.262  1.4796 -1.5408 -1.1354
   15MOL   H340 6808   0.478   5.907   5.386 -2.2193 -0.8344 -1.9168
   15MOL   H341 6809   0.629   6.099   5.495  0.4383  1.4869 -0.3372
   15MOL   H342 6810   0.457   6.127   5.509  1.4705 -0.2122  2.5709
   15MOL   H343 6811   0.707   6.404   5.243 -1.1836 -2.4802 -1.0203
   15MOL   H344 6812   0.747   6.569   5.068  0.4037 -1.9921 -0.3688
   15MOL   H345 6813   0.339   6.692   5.068  0.3847  0.0567 -1.4403
   15MOL   H346 6814   0.288   6.514   5.225  0.1571 -0.0838 -1.9810
   15MOL   O347 6815   0.495   6.861   4.760 -0.2708  0.1294 -0.1302
   15MOL   C348 6816   0.399   6.797   4.664 -0.0354 -0.1141  0.4226
   15MOL   C349 6817   0.254   6.825   4.703 -0.5429  0.0187 -0.2519
   15MOL   O350 6818   0.234   6.966   4.715  1.3344  0.6209 -0.1446
   15MOL   C351 6819   0.150   7.019   4.805 -0.5103  0.4753 -0.0962
   15MOL   O352 6820   0.067   6.958   4.877 -0.1386 -0.2353  0.3094
   15MOL   C353 6821   0.167   7.163   4.793 -0.0614 -0.1390 -0.1003
   15MOL   C354 6822   0.291   7.216   4.753 -0.1202 -0.3692 -0.8260
   15MOL   C355 6823   0.316   7.355   4.749  0.9297 -0.0517 -0.4038
   15MOL   C356 6824   0.223   7.449   4.799  0.0430 -0.0337  0.5169
   15MOL   C357 6825   0.241   7.594   4.779 -0.2204  0.2416 -0.0490
   15MOL   O358 6826   0.145   7.677   4.790  0.0319  0.5272  0.5186
   15MOL   O359 6827   0.372   7.636   4.744 -0.0331 -0.0554 -0.5174
   15MOL   C360 6828   0.098   7.398   4.847  0.0603  0.3112 -0.2664
   15MOL   C361 6829   0.062   7.256   4.833 -0.1618 -0.2767 -0.1266
   15MOL   H362 6830   0.420   6.833   4.563  0.9856 -1.6279  0.0722
   15MOL   H363 6831   0.407   6.689   4.673  1.9451 -0.2385 -2.1486
   15MOL   H364 6832   0.235   6.789   4.804 -0.7958  1.3011  0.1637
   15MOL   H365 6833   0.177   6.788   4.636 -0.5940 -2.4648  1.1138
   15MOL   H366 6834   0.378   7.162   4.719  0.1473 -0.8743  0.6560
   15MOL   H367 6835   0.412   7.385   4.711  0.7382  0.6995 -0.2966
   15MOL   H368 6836   0.020   7.465   4.882 -0.7295 -0.6769 -0.1108
   15MOL   H369 6837   8.243   7.217   4.866  0.5567 -3.6712 -1.8169
   15MOL   O370 6838   0.389   7.787   4.731  0.3445 -0.6254  0.4284
   15MOL   C371 6839   0.356   7.824   4.596 -0.5935 -0.1332 -0.0491
   15MOL   C372 6840   0.404   7.964   4.578  0.5902 -0.2479 -0.2234
   15MOL   O373 6841   0.326   8.070   4.632  0.3448 -0.3228  0.4941
   15MOL   C374 6842   0.379   8.188   4.657 -0.7635  0.6697  0.2047
   15MOL   O375 6843   0.497   8.209   4.636 -0.4471  0.3047  0.7834
   15MOL   C376 6844   0.282   0.015   4.703  0.6553  0.2947 -0.0050
   15MOL   C377 6845   0.310   0.153   4.673  0.5203 -0.2343 -0.2208
   15MOL   C378 6846   0.217   0.254   4.710  0.0314 -0.1055  0.1068
   15MOL   C379 6847   0.090   0.221   4.766  0.2525 -0.2639 -0.2299
   15MOL   C380 6848   8.264   0.324   4.808  0.0173  0.3012  0.7025
   15MOL   O381 6849   0.009   0.443   4.799  0.5012 -0.1598  1.1758
   15MOL   O382 6850   8.152   0.275   4.865 -0.7488  0.1993  0.6403
   15MOL   C383 6851   0.060   0.080   4.782 -0.4047 -0.2801 -0.3869
   15MOL   C384 6852   0.154   8.257   4.757  0.0114  0.7158  0.2772
   15MOL   H385 6853   0.384   7.760   4.512  0.3311  2.5864 -1.8852
   15MOL   H386 6854   0.248   7.833   4.583 -0.2935  3.0262 -0.9095
   15MOL   H387 6855   0.402   7.986   4.471  3.2994 -3.1802 -0.9397
   15MOL   H388 6856   0.504   7.952   4.619  0.5721 -0.8902 -0.3690
   15MOL   H389 6857   0.398   0.183   4.618 -0.5074 -0.9051 -2.2697
   15MOL   H390 6858   0.248   0.354   4.682  0.9634 -0.3653  0.1902
   15MOL   H391 6859   8.234   0.048   4.805  0.3819 -1.1930  1.9243
   15MOL   H392 6860   0.121   8.158   4.784  2.5939 -0.0294  0.8268
   15MOL   O393 6861   8.047   0.371   4.902  0.2332  0.3840 -0.1473
   15MOL   C394 6862   7.925   0.360   4.818  0.6699  0.0686 -0.2059
   15MOL   C395 6863   7.842   0.235   4.858  0.5082 -0.0654  0.2080
   15MOL   O396 6864   7.784   0.251   4.982 -0.1327 -0.4169 -0.3587
   15MOL   C397 6865   7.668   0.322   4.995  0.1486 -0.1849  0.2175
   15MOL   O398 6866   7.603   0.367   4.904  0.2895  0.1455 -0.7139
   15MOL   C399 6867   7.625   0.333   5.138  0.1718  0.8213  0.4642
   15MOL   C400 6868   7.699   0.271   5.238 -0.4648  0.2544 -0.5532
   15MOL   C401 6869   7.668   0.290   5.372  0.4501 -0.5797  0.3681
   15MOL   C402 6870   7.548   0.359   5.406  0.1338 -0.0389 -0.0997
   15MOL   C403 6871   7.524   0.389   5.554 -0.3855  0.0933 -0.2620
   15MOL   O404 6872   7.609   0.380   5.641  0.4234  0.2474  0.3801
   15MOL   O405 6873   7.402   0.439   5.569 -0.2821 -0.1224 -0.6500
   15MOL   C406 6874   7.477   0.424   5.304 -0.6319  0.3216  0.0191
   15MOL   C407 6875   7.515   0.414   5.175  0.5756 -0.0395  0.0736
   15MOL   H408 6876   7.868   0.453   4.817 -0.7860 -0.8071 -0.0241
   15MOL   H409 6877   7.950   0.338   4.714  0.4079 -1.8904  0.1246
   15MOL   H410 6878   7.912   0.152   4.856  0.2881 -0.2567  0.4895
   15MOL   H411 6879   7.775   0.214   4.775 -0.5110  0.7870  0.8058
   15MOL   H412 6880   7.782   0.205   5.218  1.2247  2.1028  0.2324
   15MOL   H413 6881   7.740   0.250   5.443  3.0685  0.0400 -1.8299
   15MOL   H414 6882   7.397   0.488   5.339  0.6316  0.8982  1.9738
   15MOL   H415 6883   7.480   0.486   5.102  1.3400  0.9028  0.6231
   15MOL   O416 6884   7.361   0.478   5.709 -0.5932  0.2341  0.0057
   15MOL   C417 6885   7.420   0.611   5.733 -0.2580  0.8367  0.2240
   15MOL   C418 6886   7.510   0.609   5.854  0.2327 -0.7378 -0.0804
   15MOL   O419 6887   7.433   0.586   5.971 -0.1542 -0.5526 -0.5497
   15MOL   C420 6888   7.384   0.688   6.041  0.2336  0.0398  0.0193
   15MOL   O421 6889   7.387   0.804   5.993  0.6156  0.1628  0.0403
   15MOL   C422 6890   7.313   0.646   6.168  0.0254 -0.5112  0.4137
   15MOL   C423 6891   7.270   0.754   6.251  0.6423 -0.2689  0.5889
   15MOL   C424 6892   7.232   0.729   6.384  0.5702 -0.3493 -0.3277
   15MOL   C425 6893   7.234   0.594   6.437  0.6839 -0.1132 -0.0426
   15MOL   C426 6894   7.205   0.572   6.580 -0.3833 -0.0746 -0.2772
   15MOL   O427 6895   7.195   0.658   6.668 -0.3267 -0.0053 -0.4259
   15MOL   O428 6896   7.165   0.445   6.599  0.4462 -0.0423  0.2090
   15MOL   C429 6897   7.273   0.487   6.345 -0.0199 -0.1730 -0.0387
   15MOL   C430 6898   7.314   0.517   6.218  0.0947 -0.2465 -0.3612
   15MOL   H431 6899   7.463   0.649   5.641  1.0899 -1.8736 -0.3056
   15MOL   H432 6900   7.341   0.686   5.745  0.0467  1.6241 -2.3576
   15MOL   H433 6901   7.558   0.706   5.867 -0.1627 -0.5071 -0.3095
   15MOL   H434 6902   7.586   0.533   5.835 -0.5787 -1.8257  0.9588
   15MOL   H435 6903   7.291   0.856   6.222 -1.7678 -0.0225 -0.4081
   15MOL   H436 6904   7.201   0.811   6.447 -1.2227 -1.0184 -0.3224
   15MOL   H437 6905   7.272   0.384   6.375  1.2610  0.4581  2.3319
   15MOL   H438 6906   7.343   0.436   6.152 -2.1198 -0.4220 -1.1442
   15MOL   O439 6907   7.134   0.413   6.745 -0.0440 -0.1049 -0.0179
   15MOL   C440 6908   7.252   0.350   6.793  0.0456  0.0984  0.1813
   15MOL   C441 6909   7.281   0.219   6.717  0.3633 -0.9086 -1.3258
   15MOL   O442 6910   7.338   0.222   6.587 -0.2186 -0.4395 -0.0335
   15MOL   C443 6911   7.470   0.254   6.568  0.7964 -0.7416  0.4120
   15MOL   O444 6912   7.542   0.301   6.656 -0.6122 -0.4903  0.4991
   15MOL   C445 6913   7.501   0.238   6.424  0.1184  0.2672 -0.7360
   15MOL   C446 6914   7.607   0.309   6.362  0.0092  0.0925  0.3097
   15MOL   C447 6915   7.632   0.302   6.222  0.0931  0.3986  0.4914
   15MOL   C448 6916   7.536   0.242   6.140  0.1488 -0.2492  0.5786
   15MOL   C449 6917   7.547   0.247   5.986 -0.2507 -0.2584 -0.2460
   15MOL   O450 6918   7.457   0.207   5.914 -0.1086  0.4594 -0.4934
   15MOL   O451 6919   7.668   0.293   5.945 -0.4703  0.1415 -0.6896
   15MOL   C452 6920   7.435   0.159   6.198  0.7163  0.2799 -0.3466
   15MOL   C453 6921   7.412   0.168   6.340 -0.6675  0.6922 -0.0777
   15MOL   H454 6922   7.326   0.430   6.801 -0.1408  0.2482  0.4166
   15MOL   H455 6923   7.228   0.317   6.894  0.6206 -0.1152  0.2497
   15MOL   H456 6924   7.182   0.177   6.696 -0.6082  0.9592 -0.5714
   15MOL   H457 6925   7.331   0.147   6.781 -1.2012 -1.4217 -0.6564
   15MOL   H458 6926   7.666   0.372   6.428 -0.5929  0.0264  0.9141
   15MOL   H459 6927   7.718   0.357   6.187  0.7285 -1.6606 -1.3544
   15MOL   H460 6928   7.358   0.113   6.138 -0.0595  0.3914  0.5478
   15MOL   H461 6929   7.324   0.118   6.377  0.1751  0.5405  1.7891
   15MOL   H462 6930   7.674   0.321   5.854 -3.9607  1.7787 -0.4915
   16MOL     O1 6931   4.502   6.736   3.194  0.2679 -0.0643  0.0199
   16MOL     C2 6932   4.601   6.640   3.206 -0.3368 -0.7083  0.2223
   16MOL     C3 6933   4.744   6.695   3.231 -0.4882  0.1157  0.1289
   16MOL     O4 6934   4.818   6.739   3.111  0.0466  0.0597  0.3550
   16MOL     C5 6935   4.863   6.646   3.011 -0.5735 -0.3103  0.5367
   16MOL     O6 6936   4.831   6.530   3.022  0.4462 -0.2084  0.1799
   16MOL     C7 6937   4.952   6.690   2.900 -0.0733 -0.0964 -0.3135
   16MOL     C8 6938   4.994   6.826   2.890  0.8856  0.0495 -0.1375
   16MOL     C9 6939   5.076   6.858   2.779 -0.0134 -1.2025 -0.1729
   16MOL    C10 6940   5.123   6.762   2.683  0.5205  0.1925 -0.3185
   16MOL    C11 6941   5.198   6.808   2.568 -0.0272  0.7178  0.5450
   16MOL    O12 6942   5.213   6.927   2.538  0.7031 -0.3536  0.3378
   16MOL    O13 6943   5.245   6.705   2.484  0.4939 -0.5579  0.1840
   16MOL    C14 6944   5.084   6.628   2.693  0.3474 -0.4049  0.1966
   16MOL    C15 6945   5.001   6.594   2.804  0.3687  0.3249  0.6362
   16MOL    H16 6946   4.567   6.586   3.294 -1.3199  0.1407  0.3752
   16MOL    H17 6947   4.597   6.580   3.115 -0.4646  0.8686 -0.8385
   16MOL    H18 6948   4.804   6.626   3.290 -2.5468  0.8548  3.1975
   16MOL    H19 6949   4.745   6.787   3.290 -0.3206 -0.8963  1.7174
   16MOL    H20 6950   4.961   6.907   2.954 -0.8341 -0.4234 -0.4184
   16MOL    H21 6951   5.120   6.955   2.766 -0.6048 -0.6080  1.9782
   16MOL    H22 6952   5.114   6.548   2.628  2.7811  0.0129  0.7737
   16MOL    H23 6953   4.965   6.493   2.796  0.0231  0.5139 -0.2331
   16MOL    H24 6954   4.506   6.757   3.102 -0.5954 -0.3461 -0.0900
   16MOL    O25 6955   5.303   6.757   2.361  0.0092 -0.4564  0.3587
   16MOL    C26 6956   5.437   6.766   2.389 -0.0611  0.1311 -0.3685
   16MOL    C27 6957   5.500   6.787   2.259 -0.0431 -0.3843 -0.1345
   16MOL    O28 6958   5.465   6.919   2.214 -1.0414 -0.0570 -0.5749
   16MOL    C29 6959   5.539   6.971   2.113  0.1939  0.4977 -0.1760
   16MOL    O30 6960   5.627   6.907   2.054 -0.3208  0.0140 -0.0739
   16MOL    C31 6961   5.515   7.117   2.089 -0.7911 -0.7372 -0.4543
   16MOL    C32 6962   5.462   7.200   2.191 -1.0021  1.2746  0.3300
   16MOL    C33 6963   5.442   7.336   2.172 -0.8672 -0.0353 -0.0592
   16MOL    C34 6964   5.500   7.399   2.053 -0.6180 -0.2251 -0.1998
   16MOL    C35 6965   5.508   7.545   2.041 -1.4467 -0.3967  0.1844
   16MOL    O36 6966   5.567   7.601   1.948 -0.1673  0.5645  0.1692
   16MOL    O37 6967   5.457   7.612   2.158 -0.6667 -0.0281  0.1076
   16MOL    C38 6968   5.562   7.318   1.956  0.7650  0.2041 -0.9241
   16MOL    C39 6969   5.569   7.179   1.972  0.2582 -0.0911 -0.1607
   16MOL    H40 6970   5.469   6.846   2.456  0.9605 -0.6239  0.0618
   16MOL    H41 6971   5.479   6.684   2.447  2.9796  0.7572 -1.5380
   16MOL    H42 6972   5.477   6.716   2.179 -0.0126 -0.5619  0.0144
   16MOL    H43 6973   5.607   6.780   2.278 -0.0586 -1.5882 -0.4525
   16MOL    H44 6974   5.442   7.153   2.287  0.0439 -2.5217 -1.2043
   16MOL    H45 6975   5.403   7.399   2.251  4.1610  0.0997  2.5180
   16MOL    H46 6976   5.591   7.357   1.860 -2.8425  1.6534 -1.4792
   16MOL    H47 6977   5.611   7.111   1.899  0.1828 -1.3183  0.9034
   16MOL    O48 6978   5.494   7.757   2.174 -0.1653 -0.8437  0.5322
   16MOL    C49 6979   5.391   7.841   2.124 -0.1135 -0.1690  0.0343
   16MOL    C50 6980   5.424   7.991   2.119  0.6962 -0.4940  0.0797
   16MOL    O51 6981   5.310   8.060   2.067 -0.4413 -0.1201  0.8366
   16MOL    C52 6982   5.303   8.086   1.938  0.7694 -0.2229 -0.4158
   16MOL    O53 6983   5.375   8.053   1.846  0.4487  0.0538 -0.5545
   16MOL    C54 6984   5.182   8.170   1.910  0.5955 -0.3404  1.0190
   16MOL    C55 6985   5.085   8.192   2.008 -0.0855  0.5589 -0.8994
   16MOL    C56 6986   4.976   0.006   1.986 -0.9541  0.6464 -0.0718
   16MOL    C57 6987   4.959   0.065   1.860 -0.2830 -0.2144 -0.0762
   16MOL    C58 6988   4.849   0.159   1.843 -0.7754  0.1030 -0.1689
   16MOL    O59 6989   4.772   0.192   1.931 -0.7608  0.3217 -0.3995
   16MOL    O60 6990   4.846   0.201   1.718 -0.3437  0.0818  0.7527
   16MOL    C61 6991   5.057   0.040   1.759 -0.4886 -0.1039  0.0208
   16MOL    C62 6992   5.165   8.232   1.784 -0.1632  0.2400  0.6173
   16MOL    H63 6993   5.373   7.806   2.022 -3.9630 -1.4938  1.0966
   16MOL    H64 6994   5.297   7.812   2.169  0.2679 -1.2761  0.1156
   16MOL    H65 6995   5.510   8.024   2.060  0.3790 -1.4929 -0.9692
   16MOL    H66 6996   5.446   8.033   2.216  0.5838  2.2383 -1.0470
   16MOL    H67 6997   5.098   8.144   2.104  0.3230 -1.4254 -1.9156
   16MOL    H68 6998   4.898   0.022   2.059  0.4286  2.2092  1.0828
   16MOL    H69 6999   5.042   0.088   1.664  0.4145 -1.7930 -1.0132
   16MOL    H70 7000   5.241   8.218   1.708  1.3636  3.2512  1.4864
   16MOL    O71 7001   4.728   0.279   1.684  0.1241  0.3837  0.3032
   16MOL    C72 7002   4.773   0.410   1.674  0.1203 -0.1526 -0.5557
   16MOL    C73 7003   4.654   0.493   1.623 -0.1728 -0.7601  0.1138
   16MOL    O74 7004   4.577   0.535   1.735  0.2636 -0.2758  0.2544
   16MOL    C75 7005   4.470   0.461   1.776 -0.2644 -0.4444 -0.5531
   16MOL    O76 7006   4.419   0.368   1.708  0.1519 -0.1892 -0.0925
   16MOL    C77 7007   4.431   0.497   1.917  0.4309 -0.0129  0.2066
   16MOL    C78 7008   4.502   0.590   2.005 -0.5856 -0.8135 -0.0355
   16MOL    C79 7009   4.440   0.626   2.128  0.5167 -0.6087 -0.9648
   16MOL    C80 7010   4.327   0.566   2.184 -0.1880 -0.4681  0.0312
   16MOL    C81 7011   4.266   0.606   2.308  0.6835 -0.8374 -0.4777
   16MOL    O82 7012   4.167   0.554   2.356 -0.1721  0.8057  0.8206
   16MOL    O83 7013   4.337   0.699   2.373 -0.4734 -0.2716  0.2421
   16MOL    C84 7014   4.262   0.471   2.099 -0.3488 -0.1298 -0.3086
   16MOL    C85 7015   4.313   0.439   1.968  0.8002  0.2998  0.0187
   16MOL    H86 7016   4.819   0.459   1.760  0.2449 -0.2271 -0.5805
   16MOL    H87 7017   4.854   0.410   1.601  0.6060 -0.1579 -0.0195
   16MOL    H88 7018   4.599   0.438   1.547  0.3287 -0.5209 -0.4261
   16MOL    H89 7019   4.688   0.587   1.580 -0.9514  0.4996  2.1684
   16MOL    H90 7020   4.586   0.650   1.973 -0.3288 -0.4365  1.3348
   16MOL    H91 7021   4.483   0.698   2.197  0.3801 -1.2150 -0.2408
   16MOL    H92 7022   4.166   0.435   2.135 -0.5865 -0.6930 -1.4735
   16MOL    H93 7023   4.277   0.357   1.908  0.4556 -0.1685  0.8479
   16MOL    O94 7024   4.304   0.703   2.519 -0.2722 -0.1860  0.0071
   16MOL    C95 7025   4.389   0.613   2.592  0.1215 -0.9087  0.1186
   16MOL    C96 7026   4.528   0.672   2.588  0.0346 -0.0009 -0.4820
   16MOL    O97 7027   4.600   0.647   2.471  0.2323 -0.1342 -0.4305
   16MOL    C98 7028   4.668   0.752   2.424 -0.3582  0.6566  0.0177
   16MOL    O99 7029   4.654   0.869   2.460  0.3658 -0.3300  0.1780
   16MOL   C100 7030   4.760   0.719   2.309  0.8137 -0.1928 -0.0887
   16MOL   C101 7031   4.836   0.824   2.258  0.0610  0.4202  0.5834
   16MOL   C102 7032   4.924   0.803   2.154 -0.4828 -0.6156 -0.2256
   16MOL   C103 7033   4.935   0.678   2.091 -0.6967  0.4421 -0.1430
   16MOL   C104 7034   5.027   0.660   1.981 -0.7719  0.7536 -0.0011
   16MOL   O105 7035   5.026   0.555   1.918 -0.4479 -1.1943  0.2836
   16MOL   O106 7036   5.114   0.762   1.962  0.6424 -0.0159 -0.4548
   16MOL   C107 7037   4.853   0.568   2.150 -0.1254  0.0399  0.2972
   16MOL   C108 7038   4.772   0.591   2.257 -0.3480  0.6684  0.0994
   16MOL   H109 7039   4.353   0.619   2.695  1.0734 -0.0494  0.4032
   16MOL   H110 7040   4.382   0.510   2.559  0.9938 -1.4374  1.5735
   16MOL   H111 7041   4.582   0.603   2.653 -1.1062  0.6641  1.2131
   16MOL   H112 7042   4.544   0.766   2.641  1.5781 -0.5361  0.0465
   16MOL   H113 7043   4.829   0.922   2.303 -0.6220  0.3998  0.5210
   16MOL   H114 7044   4.995   0.879   2.127 -2.1600  0.8795 -0.4634
   16MOL   H115 7045   4.867   0.463   2.126  0.9394  0.4182 -0.7992
   16MOL   H116 7046   4.721   0.507   2.301  0.4867  0.3281  0.4243
   16MOL   O117 7047   5.219   0.730   1.854  0.4239 -0.0343 -0.0126
   16MOL   C118 7048   5.291   0.849   1.819 -0.1063 -0.1919 -0.0572
   16MOL   C119 7049   5.407   0.830   1.716 -0.4485 -0.4901 -0.0323
   16MOL   O120 7050   5.512   0.758   1.781 -0.0552  0.5371  0.1597
   16MOL   C121 7051   5.532   0.629   1.759 -0.0970 -0.0127 -0.1173
   16MOL   O122 7052   5.458   0.562   1.681 -0.2191  0.2016 -0.2004
   16MOL   C123 7053   5.644   0.573   1.845 -0.3374 -0.2732  0.4150
   16MOL   C124 7054   5.727   0.655   1.924 -0.5038 -0.2662  0.5344
   16MOL   C125 7055   5.833   0.599   1.995 -0.6371  0.0620  0.3527
   16MOL   C126 7056   5.878   0.463   1.973 -0.2498 -0.1454 -0.0371
   16MOL   C127 7057   6.013   0.418   2.033  0.9431 -0.1214  0.0557
   16MOL   O128 7058   6.095   0.498   2.085 -0.4007 -0.0061 -0.2041
   16MOL   O129 7059   6.027   0.282   2.047  0.6055 -0.4706  0.4966
   16MOL   C130 7060   5.787   0.377   1.901  0.5874  0.5005 -0.3863
   16MOL   C131 7061   5.673   0.432   1.839  0.1930 -0.3478 -0.1821
   16MOL   H132 7062   5.217   0.917   1.777 -0.0820 -0.1544 -0.0411
   16MOL   H133 7063   5.332   0.890   1.911 -0.2412 -1.9129  0.7809
   16MOL   H134 7064   5.446   0.925   1.681  0.2353 -0.6756  0.2236
   16MOL   H135 7065   5.369   0.776   1.629 -1.6703  1.4869 -0.7455
   16MOL   H136 7066   5.713   0.762   1.921 -0.4031 -0.2074 -5.6096
   16MOL   H137 7067   5.902   0.666   2.046  0.5164 -2.6726  2.5373
   16MOL   H138 7068   5.814   0.272   1.895 -1.6798 -0.2381  1.5068
   16MOL   H139 7069   5.611   0.373   1.773 -0.2198 -0.0150 -0.0943
   16MOL   O140 7070   6.154   0.242   2.121  0.1413  0.1261 -0.4037
   16MOL   C141 7071   6.115   0.203   2.256 -0.4541 -0.3328 -0.0948
   16MOL   C142 7072   6.245   0.176   2.339  0.7312 -0.1976  0.1635
   16MOL   O143 7073   6.281   0.039   2.344 -0.1950 -0.1780  0.0492
   16MOL   C144 7074   6.386   0.006   2.430  0.3390 -0.4528 -0.1736
   16MOL   O145 7075   6.467   0.087   2.468 -0.0927 -0.4024 -0.6576
   16MOL   C146 7076   6.410   8.141   2.468 -0.6242  0.1899 -0.3137
   16MOL   C147 7077   6.530   8.095   2.525  0.4868  0.4263 -0.0296
   16MOL   C148 7078   6.543   7.961   2.575 -0.1317 -0.5657  0.3191
   16MOL   C149 7079   6.441   7.865   2.550  0.8519 -0.1685  0.0827
   16MOL   C150 7080   6.455   7.721   2.600  0.3002 -0.4744 -0.1605
   16MOL   O151 7081   6.361   7.643   2.601 -0.4078  0.5439  0.4090
   16MOL   O152 7082   6.581   7.680   2.633  0.3976 -0.4170 -0.0900
   16MOL   C153 7083   6.323   7.910   2.481 -0.8410 -0.4648 -0.3999
   16MOL   C154 7084   6.308   8.047   2.443 -0.0683  0.3863  0.7624
   16MOL   H155 7085   6.046   0.269   2.308 -0.6026 -1.0390  0.6157
   16MOL   H156 7086   6.050   0.116   2.243  0.8761 -0.8370 -4.0830
   16MOL   H157 7087   6.249   0.224   2.437  2.6672  1.8931 -0.9021
   16MOL   H158 7088   6.329   0.219   2.285  1.6983 -0.1040  1.6980
   16MOL   H159 7089   6.612   8.162   2.546  1.2065 -0.0409 -1.3127
   16MOL   H160 7090   6.630   7.930   2.631  0.0280 -0.5512  0.0823
   16MOL   H161 7091   6.250   7.838   2.449 -1.9715  0.5737 -0.1845
   16MOL   H162 7092   6.216   8.081   2.397  0.1782 -2.1265 -1.7484
   16MOL   O163 7093   6.596   7.534   2.639 -0.1418 -0.0363  0.9266
   16MOL   C164 7094   6.634   7.476   2.516  0.2645  0.5972  0.2861
   16MOL   C165 7095   6.542   7.486   2.393  0.3403  0.1750  0.1048
   16MOL   O166 7096   6.576   7.612   2.325 -0.3807  0.0659  0.3559
   16MOL   C167 7097   6.502   7.658   2.221  0.7547 -0.1128 -0.5605
   16MOL   O168 7098   6.415   7.584   2.172 -0.0803  0.2398 -0.3986
   16MOL   C169 7099   6.534   7.799   2.192 -0.1527  0.4112 -0.1317
   16MOL   C170 7100   6.446   7.881   2.114 -0.1381 -0.0668 -0.4263
   16MOL   C171 7101   6.469   8.015   2.087 -0.5731 -0.0807 -0.4140
   16MOL   C172 7102   6.584   8.081   2.143  0.0552 -0.2209  0.3019
   16MOL   C173 7103   6.607   8.228   2.130 -0.3441 -0.5933 -0.0828
   16MOL   O174 7104   6.689   0.022   2.193  0.0457 -0.2231 -0.1604
   16MOL   O175 7105   6.508   0.016   2.054  0.0048 -0.4790 -0.1253
   16MOL   C176 7106   6.664   8.006   2.229 -0.4075 -0.2912  0.2493
   16MOL   C177 7107   6.640   7.868   2.257  1.2129  0.6540 -0.3421
   16MOL   H178 7108   6.735   7.505   2.487  0.5020 -1.2079 -0.7788
   16MOL   H179 7109   6.636   7.371   2.547  0.8260 -0.2351 -2.4400
   16MOL   H180 7110   6.443   7.492   2.439  0.6964  2.1126  0.6822
   16MOL   H181 7111   6.546   7.403   2.323 -0.0564 -1.6494  2.1869
   16MOL   H182 7112   6.363   7.827   2.070 -0.3614  0.8167 -1.0902
   16MOL   H183 7113   6.404   8.068   2.019  0.2487 -0.7048 -1.7026
   16MOL   H184 7114   6.753   8.055   2.266  0.9936 -0.5835 -2.6062
   16MOL   H185 7115   6.711   7.814   2.319  0.8407 -2.2788 -2.3595
   16MOL   O186 7116   6.495   0.169   2.080  0.4155 -0.3343  0.5600
   16MOL   C187 7117   6.590   0.234   1.995  0.0308 -0.5334  0.1174
   16MOL   C188 7118   6.579   0.384   2.008  0.2985 -0.6683 -0.3109
   16MOL   O189 7119   6.660   0.423   2.129  0.3713  0.3458 -0.1282
   16MOL   C190 7120   6.590   0.464   2.239  0.0399 -1.1659  0.1181
   16MOL   O191 7121   6.469   0.478   2.248  0.3814  0.1108  0.0373
   16MOL   C192 7122   6.677   0.518   2.345 -0.0400  0.1426  0.4816
   16MOL   C193 7123   6.624   0.599   2.446 -0.8613 -0.4198 -0.5104
   16MOL   C194 7124   6.709   0.648   2.545  0.0656 -0.7830 -0.2563
   16MOL   C195 7125   6.845   0.618   2.553  0.3895  0.2462  0.6225
   16MOL   C196 7126   6.928   0.668   2.667  0.3679 -0.3956  0.4307
   16MOL   O197 7127   6.885   0.740   2.758  0.0961  0.2168  0.3638
   16MOL   O198 7128   7.057   0.625   2.661 -0.0207  0.8351 -0.2237
   16MOL   C199 7129   6.890   0.528   2.461 -0.8078 -1.4422  0.5392
   16MOL   C200 7130   6.812   0.487   2.348 -0.0537 -0.5269  0.3766
   16MOL   H201 7131   6.695   0.217   2.020 -0.2127  1.3903  2.6215
   16MOL   H202 7132   6.576   0.204   1.891 -0.9858  0.2784  0.0140
   16MOL   H203 7133   6.476   0.417   2.016  0.7085 -0.1628  4.1508
   16MOL   H204 7134   6.620   0.436   1.922 -1.2752 -2.1895 -1.9963
   16MOL   H205 7135   6.517   0.611   2.458 -0.5720  0.0540  1.8445
   16MOL   H206 7136   6.650   0.707   2.614  1.1638  0.9135 -0.7617
   16MOL   H207 7137   6.993   0.498   2.465 -1.1086 -2.5125  0.3366
   16MOL   H208 7138   6.858   0.427   2.271 -0.4641 -0.3504 -0.0101
   16MOL   O209 7139   7.146   0.670   2.781 -0.9812 -0.4630  0.0944
   16MOL   C210 7140   7.175   0.556   2.869 -1.0916 -0.1192 -0.2315
   16MOL   C211 7141   7.085   0.557   2.995 -0.5508 -0.2656 -0.0646
   16MOL   O212 7142   7.114   0.452   3.088  0.0402 -0.0446 -0.0851
   16MOL   C213 7143   7.218   0.458   3.169  0.1501 -0.0493  0.2654
   16MOL   O214 7144   7.301   0.550   3.163  0.2993 -0.2977 -0.0787
   16MOL   C215 7145   7.235   0.336   3.249  0.4431  0.0521  0.2738
   16MOL   C216 7146   7.364   0.291   3.290 -0.5549  0.2990  0.4971
   16MOL   C217 7147   7.380   0.178   3.372 -0.2439 -0.4870 -0.5404
   16MOL   C218 7148   7.259   0.127   3.424 -0.4232  0.5815 -0.6923
   16MOL   C219 7149   7.270   0.017   3.528 -0.1154 -0.0251  0.1397
   16MOL   O220 7150   7.376   8.242   3.559  0.0330  0.0001 -0.5594
   16MOL   O221 7151   7.156   8.262   3.581 -0.4282 -0.1193  0.0528
   16MOL   C222 7152   7.129   0.164   3.379 -0.3647  0.4147  0.4594
   16MOL   C223 7153   7.114   0.273   3.290 -0.4293 -0.3291 -0.5143
   16MOL   H224 7154   7.165   0.461   2.817  1.7106  0.2204 -1.4912
   16MOL   H225 7155   7.277   0.572   2.906 -0.8397 -4.0191  0.9415
   16MOL   H226 7156   6.983   0.546   2.959 -1.6052  0.5411  2.5273
   16MOL   H227 7157   7.087   0.650   3.053 -0.1669  0.1199 -0.6847
   16MOL   H228 7158   7.456   0.342   3.264 -0.1374 -0.5208  0.3705
   16MOL   H229 7159   7.476   0.137   3.398 -0.2491 -0.5523 -0.6235
   16MOL   H230 7160   7.041   0.126   3.429 -1.0812  3.1002  1.3357
   16MOL   H231 7161   7.016   0.316   3.271 -0.0936 -0.0415 -1.6505
   16MOL   O232 7162   7.149   8.128   3.639  0.2116 -0.2692 -0.3268
   16MOL   C233 7163   7.134   8.138   3.776  0.5148  0.1078 -0.2881
   16MOL   C234 7164   6.992   8.190   3.804  1.4229  0.2930 -0.4043
   16MOL   O235 7165   6.895   8.099   3.754  0.4390 -0.6532  0.4463
   16MOL   C236 7166   6.823   8.131   3.640  0.0959 -0.2834  0.0560
   16MOL   O237 7167   6.832   8.228   3.563  0.1180  0.2267  0.1870
   16MOL   C238 7168   6.727   8.024   3.606  1.1153 -0.3273 -0.0506
   16MOL   C239 7169   6.615   8.058   3.521 -0.2227 -0.1526  0.4528
   16MOL   C240 7170   6.521   7.957   3.492 -0.0181 -0.4819 -0.7970
   16MOL   C241 7171   6.533   7.825   3.544  0.6556 -1.0307 -0.9786
   16MOL   C242 7172   6.429   7.722   3.519 -0.0651  0.3472 -0.9271
   16MOL   O243 7173   6.426   7.602   3.553 -0.4279  0.2008 -0.4176
   16MOL   O244 7174   6.317   7.783   3.460  0.1895  0.2123  0.2160
   16MOL   C245 7175   6.643   7.791   3.623 -0.7233  0.0361 -0.7330
   16MOL   C246 7176   6.743   7.890   3.650  0.3180  0.2840 -0.0713
   16MOL   H247 7177   7.159   8.042   3.821  1.5440  0.4934 -0.0162
   16MOL   H248 7178   7.215   8.201   3.814  1.5168 -1.5733  0.4291
   16MOL   H249 7179   6.984   0.017   3.769 -1.1370 -0.2856 -1.5563
   16MOL   H250 7180   6.977   8.206   3.911 -0.3898 -0.6280 -0.5012
   16MOL   H251 7181   6.599   8.160   3.491 -1.1361 -0.7586 -1.2150
   16MOL   H252 7182   6.450   7.997   3.422  1.1603  0.6648 -1.3700
   16MOL   H253 7183   6.668   7.690   3.652 -0.6246 -0.1972 -1.6090
   16MOL   H254 7184   6.828   7.856   3.707 -0.3105 -1.3371 -0.0920
   16MOL   O255 7185   6.207   7.681   3.432  0.1078  0.2010  0.4374
   16MOL   C256 7186   6.103   7.706   3.529 -0.0494  0.0114  0.0767
   16MOL   C257 7187   5.999   7.600   3.538 -0.8327 -0.4408  0.7048
   16MOL   O258 7188   6.077   7.479   3.568 -0.5666 -0.9083  0.0223
   16MOL   C259 7189   6.079   7.378   3.480  0.6024 -0.6324  0.1796
   16MOL   O260 7190   6.019   7.388   3.373 -0.0789  0.4505 -0.6208
   16MOL   C261 7191   6.166   7.265   3.518  0.4846  0.3959 -0.7750
   16MOL   C262 7192   6.272   7.290   3.610 -1.1612 -0.0693 -0.4380
   16MOL   C263 7193   6.360   7.187   3.647 -0.3688 -0.5974 -0.6368
   16MOL   C264 7194   6.350   7.055   3.594 -0.5638 -0.2412  0.6899
   16MOL   C265 7195   6.443   6.951   3.639 -0.1456 -0.3560 -0.2395
   16MOL   O266 7196   6.512   6.960   3.745  0.3922  0.6921 -0.5650
   16MOL   O267 7197   6.459   6.846   3.558 -0.2201  0.6412  0.6673
   16MOL   C268 7198   6.252   7.039   3.498 -0.4366  0.2291 -0.2952
   16MOL   C269 7199   6.163   7.140   3.459 -0.2933 -1.1789  0.2348
   16MOL   H270 7200   6.159   7.711   3.622 -0.4027 -0.1879  0.3002
   16MOL   H271 7201   6.052   7.799   3.505 -0.5338  0.0325  1.1793
   16MOL   H272 7202   5.944   7.601   3.444 -2.5091 -1.8442  1.6445
   16MOL   H273 7203   5.919   7.607   3.612 -1.9812 -1.9963 -0.3728
   16MOL   H274 7204   6.293   7.385   3.658  1.9544 -0.5126 -0.8096
   16MOL   H275 7205   6.441   7.198   3.718 -0.7300 -0.9323 -0.1718
   16MOL   H276 7206   6.252   6.946   3.444 -1.7254  0.8809 -1.4398
   16MOL   H277 7207   6.104   7.116   3.373 -0.8742 -0.8144  0.5321
   16MOL   O278 7208   6.560   6.746   3.607 -0.3874  0.1947 -0.4559
   16MOL   C279 7209   6.502   6.613   3.607  0.2037  0.2476 -0.1450
   16MOL   C280 7210   6.378   6.601   3.691  0.2644 -0.7997 -0.1210
   16MOL   O281 7211   6.256   6.657   3.640  0.0911 -0.5394 -0.0186
   16MOL   C282 7212   6.203   6.600   3.523 -0.4733 -0.6970 -0.0443
   16MOL   O283 7213   6.259   6.506   3.458 -0.0855  0.8669 -0.2573
   16MOL   C284 7214   6.075   6.669   3.483 -0.1078  0.3537 -0.5616
   16MOL   C285 7215   5.999   6.613   3.379  0.7079  0.3439  0.4114
   16MOL   C286 7216   5.883   6.679   3.333  0.0650  0.1511  0.4525
   16MOL   C287 7217   5.845   6.807   3.392 -0.4170  0.2302  0.0131
   16MOL   C288 7218   5.738   6.884   3.327  0.4531  0.5575 -0.2317
   16MOL   O289 7219   5.678   6.840   3.233  0.2275  0.5414 -0.3469
   16MOL   O290 7220   5.702   6.994   3.391  0.6645 -0.1620 -0.7063
   16MOL   C291 7221   5.923   6.858   3.500  0.7515 -0.2453  0.2981
   16MOL   C292 7222   6.041   6.792   3.540 -0.4849  0.6788 -0.2461
   16MOL   H293 7223   6.495   6.579   3.503  2.1212 -2.2710  0.5170
   16MOL   H294 7224   6.580   6.553   3.653 -0.1701  1.5825  2.2854
   16MOL   H295 7225   6.397   6.643   3.790 -0.1711 -2.7866  0.8254
   16MOL   H296 7226   6.355   6.496   3.708 -1.9797 -0.9021 -3.2401
   16MOL   H297 7227   6.023   6.515   3.339 -0.6433  0.4473 -0.6884
   16MOL   H298 7228   5.831   6.644   3.245 -0.8259  0.0487  1.0118
   16MOL   H299 7229   5.895   6.956   3.536  0.7245  0.1303 -0.7488
   16MOL   H300 7230   6.095   6.832   3.625 -1.8964 -1.3145  1.6650
   16MOL   O301 7231   5.603   7.075   3.320 -0.1805  0.4657  0.3518
   16MOL   C302 7232   5.657   7.188   3.259 -0.1678 -0.0972  0.2235
   16MOL   C303 7233   5.674   7.294   3.376 -0.1918  0.4255  0.1673
   16MOL   O304 7234   5.551   7.328   3.424  0.5214  0.4431  0.0719
   16MOL   C305 7235   5.476   7.424   3.364 -0.3724  0.2897  0.0853
   16MOL   O306 7236   5.523   7.491   3.266 -0.2830 -0.1728  0.2006
   16MOL   C307 7237   5.337   7.435   3.422  0.1507  0.0557  0.9169
   16MOL   C308 7238   5.259   7.557   3.409  0.1911  0.7014  0.0805
   16MOL   C309 7239   5.140   7.567   3.477  0.1538 -0.4754 -0.6144
   16MOL   C310 7240   5.090   7.455   3.556 -0.6429 -0.4635  0.9206
   16MOL   C311 7241   4.961   7.464   3.625  0.3488 -0.2807 -0.0598
   16MOL   O312 7242   4.891   7.359   3.639  0.2242 -0.4267 -0.7061
   16MOL   O313 7243   4.918   7.588   3.652  0.3679 -0.2588  0.1986
   16MOL   C314 7244   5.169   7.341   3.564  1.0675  0.0900  0.7823
   16MOL   C315 7245   5.289   7.328   3.491  0.1865  0.2403 -0.0528
   16MOL   H316 7246   5.750   7.166   3.207  0.8933 -1.0618  2.4638
   16MOL   H317 7247   5.590   7.222   3.181  0.4240  2.5853  0.8267
   16MOL   H318 7248   5.743   7.371   3.341  0.9644 -0.1208  1.1854
   16MOL   H319 7249   5.734   7.248   3.455 -1.0310 -0.3256  0.3639
   16MOL   H320 7250   5.303   7.637   3.351 -0.6938 -0.4951 -2.3055
   16MOL   H321 7251   5.087   7.661   3.480 -1.3177 -1.3275  2.3752
   16MOL   H322 7252   5.139   7.253   3.618  0.5315  0.3149  0.8589
   16MOL   H323 7253   5.353   7.240   3.495  2.2934  1.7056 -0.6949
   16MOL   O324 7254   4.773   7.600   3.710 -0.3618 -0.0146 -0.0139
   16MOL   C325 7255   4.679   7.607   3.604 -0.5213 -0.1218 -0.2515
   16MOL   C326 7256   4.686   7.741   3.529 -0.1082 -0.1473  0.3194
   16MOL   O327 7257   4.799   7.759   3.446 -0.1606  0.4977 -0.1029
   16MOL   C328 7258   4.815   7.877   3.388 -1.1854 -1.5239  0.1605
   16MOL   O329 7259   4.730   7.962   3.398 -0.1771  0.7893 -0.4428
   16MOL   C330 7260   4.932   7.883   3.300  0.0360  0.0526  0.5701
   16MOL   C331 7261   4.984   7.772   3.221  0.0612  0.3018 -0.3951
   16MOL   C332 7262   5.097   7.788   3.143 -0.6126  0.3760 -0.6169
   16MOL   C333 7263   5.166   7.904   3.139  0.6373  0.1452 -0.0997
   16MOL   C334 7264   5.295   7.905   3.069  0.0433 -0.4439 -0.3409
   16MOL   O335 7265   5.328   7.822   2.984 -0.2040  0.3753  0.3968
   16MOL   O336 7266   5.377   7.996   3.123  0.1531 -0.4394  0.1899
   16MOL   C337 7267   5.121   8.015   3.213 -0.3744 -0.1717  0.2822
   16MOL   C338 7268   5.003   8.006   3.295  0.4746  0.3291  0.7073
   16MOL   H339 7269   4.685   7.520   3.539 -0.5993 -0.0568 -0.3456
   16MOL   H340 7270   4.578   7.606   3.646 -1.2781  0.2157 -2.0346
   16MOL   H341 7271   4.692   7.812   3.611 -0.0778 -0.4697  0.5965
   16MOL   H342 7272   4.601   7.754   3.462 -0.2156 -0.1242  0.4627
   16MOL   H343 7273   4.926   7.680   3.221  0.0978  0.2784 -0.4364
   16MOL   H344 7274   5.138   7.693   3.110 -2.1693 -0.4643 -0.2079
   16MOL   H345 7275   5.169   8.111   3.209 -1.1523  0.2882  1.5827
   16MOL   H346 7276   4.976   8.095   3.350  1.3670  1.0211  0.0282
   16MOL   O347 7277   5.520   7.984   3.068 -0.0731 -0.1553  0.0958
   16MOL   C348 7278   5.526   8.052   2.942  0.4101 -0.1109 -0.4094
   16MOL   C349 7279   5.665   8.048   2.886  0.7138  0.0341 -0.1280
   16MOL   O350 7280   5.653   8.095   2.753  0.5437 -0.7118 -0.2034
   16MOL   C351 7281   5.638   8.010   2.648 -0.1236 -0.4165 -0.3411
   16MOL   O352 7282   5.613   7.894   2.657 -0.2905  0.1994  0.1926
   16MOL   C353 7283   5.661   8.070   2.511 -0.2457 -0.6519 -0.4563
   16MOL   C354 7284   5.667   7.981   2.402 -0.0273 -0.2052 -0.0692
   16MOL   C355 7285   5.694   8.017   2.271  0.0204 -0.0094 -0.0828
   16MOL   C356 7286   5.724   8.156   2.250 -0.3909  0.8758 -0.0560
   16MOL   C357 7287   5.762   8.211   2.113  0.0803 -0.0789 -0.3253
   16MOL   O358 7288   5.826   0.040   2.093 -0.3931  0.0427  0.3241
   16MOL   O359 7289   5.704   8.137   2.010 -0.1457 -0.0442 -0.0588
   16MOL   C360 7290   5.706   8.249   2.355 -0.7475  0.2406  0.1660
   16MOL   C361 7291   5.679   8.203   2.487 -0.8012 -0.1842  0.6013
   16MOL   H362 7292   5.459   8.000   2.874  0.2425 -2.2399  1.3480
   16MOL   H363 7293   5.507   8.159   2.953 -0.2758 -0.0721 -1.9123
   16MOL   H364 7294   5.712   7.950   2.878 -0.2612 -0.3540 -1.3899
   16MOL   H365 7295   5.728   8.101   2.956  0.0399  1.0410 -0.2827
   16MOL   H366 7296   5.659   7.874   2.416 -0.6086 -0.3192 -1.2003
   16MOL   H367 7297   5.699   7.935   2.201 -0.9227 -0.4791  0.4054
   16MOL   H368 7298   5.724   0.077   2.331 -2.7350  0.9698  1.6662
   16MOL   H369 7299   5.672   0.006   2.562 -2.7772 -0.0207  0.2878
   16MOL   O370 7300   5.744   8.171   1.863 -0.2171 -0.6485 -0.1104
   16MOL   C371 7301   5.810   8.057   1.811 -0.2144 -0.1242  1.1100
   16MOL   C372 7302   5.715   7.986   1.712 -0.1349 -0.5843 -0.1945
   16MOL   O373 7303   5.758   7.856   1.702 -0.0093  0.0908 -0.2860
   16MOL   C374 7304   5.846   7.812   1.608 -0.5454 -0.2102  0.2553
   16MOL   O375 7305   5.897   7.882   1.520  0.1248 -0.1139  0.3339
   16MOL   C376 7306   5.883   7.674   1.624  0.3089  0.0017  0.0497
   16MOL   C377 7307   5.816   7.593   1.720 -0.4017 -0.2073 -0.5508
   16MOL   C378 7308   5.842   7.458   1.730  0.8769  0.9162  0.2273
   16MOL   C379 7309   5.935   7.394   1.642 -0.4038  0.2553  0.2133
   16MOL   C380 7310   5.959   7.254   1.647  0.4669 -0.5060 -0.3886
   16MOL   O381 7311   6.039   7.193   1.578  0.0283 -0.3397 -0.5448
   16MOL   O382 7312   5.889   7.197   1.741  0.7035  0.1400 -0.0904
   16MOL   C383 7313   6.004   7.474   1.550 -0.1486  0.1175 -0.5657
   16MOL   C384 7314   5.979   7.615   1.542 -0.1426  0.0925  0.0546
   16MOL   H385 7315   5.909   8.083   1.773 -0.2468 -1.1098  0.3164
   16MOL   H386 7316   5.841   7.991   1.892 -0.8737  0.0108  1.4722
   16MOL   H387 7317   5.718   8.023   1.610  0.0610 -0.1266 -0.0230
   16MOL   H388 7318   5.611   7.991   1.744  0.4255  1.1808  1.4336
   16MOL   H389 7319   5.739   7.635   1.783 -1.4546 -1.6476 -0.8707
   16MOL   H390 7320   5.777   7.415   1.804 -1.5839  0.3625 -2.1944
   16MOL   H391 7321   6.072   7.431   1.478 -0.3050 -0.3677 -0.4258
   16MOL   H392 7322   6.034   7.665   1.465 -0.3103  0.1175 -0.0489
   16MOL   O393 7323   5.922   7.055   1.762 -0.2021  0.3467 -0.7184
   16MOL   C394 7324   5.819   6.972   1.702  0.2060  0.3341 -0.6137
   16MOL   C395 7325   5.811   6.837   1.764  0.6015  0.2723 -0.6240
   16MOL   O396 7326   5.679   6.791   1.767  0.9497  0.3281 -0.0113
   16MOL   C397 7327   5.653   6.658   1.754 -1.1118  0.7939 -0.4490
   16MOL   O398 7328   5.724   6.578   1.695 -0.0459 -0.0456  0.0627
   16MOL   C399 7329   5.516   6.615   1.802 -0.6248 -0.5618 -0.2630
   16MOL   C400 7330   5.489   6.476   1.809 -0.1199  0.3880  0.1324
   16MOL   C401 7331   5.371   6.422   1.866  0.8463 -0.7372  0.2589
   16MOL   C402 7332   5.268   6.512   1.905  0.2477 -0.0554  0.8228
   16MOL   C403 7333   5.136   6.463   1.936  0.1432 -0.5011 -0.1260
   16MOL   O404 7334   5.035   6.540   1.947 -0.1449 -0.0082 -0.3555
   16MOL   O405 7335   5.124   6.331   1.944 -0.2137  0.4391 -0.0315
   16MOL   C406 7336   5.296   6.652   1.907 -0.2683 -0.1096  0.6405
   16MOL   C407 7337   5.418   6.703   1.857  0.7322 -0.5468  0.2876
   16MOL   H408 7338   5.725   7.019   1.731  1.0650  0.8812  1.4223
   16MOL   H409 7339   5.832   6.975   1.594  1.0638 -3.0027 -0.6528
   16MOL   H410 7340   5.850   6.831   1.865 -3.0358  2.0409  0.9661
   16MOL   H411 7341   5.878   6.767   1.714  1.4549  0.4887  0.2108
   16MOL   H412 7342   5.561   6.400   1.783 -0.6285  0.9979 -3.2237
   16MOL   H413 7343   5.356   6.315   1.862  1.2269 -0.7868  0.1762
   16MOL   H414 7344   5.228   6.724   1.952  0.0615  1.6817 -1.6257
   16MOL   H415 7345   5.441   6.808   1.873  0.1440 -0.1851 -1.1732
   16MOL   O416 7346   4.986   6.284   1.975 -0.5120 -0.0101 -0.0563
   16MOL   C417 7347   4.965   6.287   2.115  0.2007 -0.3778 -0.7280
   16MOL   C418 7348   5.004   6.165   2.192  0.3103 -0.2731  0.1214
   16MOL   O419 7349   5.141   6.125   2.169 -0.3885  0.1105 -0.4071
   16MOL   C420 7350   5.211   6.045   2.242 -0.1479  1.1718 -0.4223
   16MOL   O421 7351   5.165   5.960   2.327  0.0063 -0.1397 -0.0403
   16MOL   C422 7352   5.356   6.061   2.231 -0.2209 -0.0767  0.0902
   16MOL   C423 7353   5.416   6.166   2.153  0.2683  0.3441  0.3056
   16MOL   C424 7354   5.556   6.157   2.121  0.5512  0.4477 -0.7949
   16MOL   C425 7355   5.631   6.049   2.172 -0.1261 -0.0286  0.1151
   16MOL   C426 7356   5.781   6.059   2.167  0.3707  0.6340 -0.0366
   16MOL   O427 7357   5.842   6.147   2.108  0.7367  0.5890 -0.1392
   16MOL   O428 7358   5.850   5.954   2.223  0.4588  0.1085  0.5018
   16MOL   C429 7359   5.572   5.951   2.257 -0.0937 -0.0704  0.2936
   16MOL   C430 7360   5.434   5.953   2.278 -0.5204 -0.5608 -0.2607
   16MOL   H431 7361   5.027   6.366   2.158 -0.2500 -1.1959  1.5074
   16MOL   H432 7362   4.861   6.306   2.141  0.8436  1.9317  0.3291
   16MOL   H433 7363   4.936   6.081   2.175  0.4397 -0.1014 -1.3148
   16MOL   H434 7364   4.975   6.183   2.296 -0.0512  2.0441 -0.3708
   16MOL   H435 7365   5.363   6.252   2.116  1.1225  0.9752  0.5229
   16MOL   H436 7366   5.608   6.231   2.063 -1.2168  2.7325  0.4287
   16MOL   H437 7367   5.622   5.869   2.306  0.0072 -0.7342 -0.9015
   16MOL   H438 7368   5.385   5.873   2.332 -1.7796 -0.2019 -0.8477
   16MOL   O439 7369   5.991   5.946   2.185 -0.5493  0.0979 -0.0330
   16MOL   C440 7370   6.068   5.969   2.309  0.4605  0.3178  0.0168
   16MOL   C441 7371   6.090   5.830   2.372  0.2924  0.6333 -0.4231
   16MOL   O442 7372   6.016   5.827   2.496 -0.2423  0.3588 -0.3626
   16MOL   C443 7373   6.057   5.903   2.596  0.3945  0.0617 -0.3414
   16MOL   O444 7374   6.166   5.961   2.596 -0.1979 -0.0876  0.5330
   16MOL   C445 7375   5.978   5.888   2.718 -0.5941  0.6003  0.7912
   16MOL   C446 7376   5.879   5.788   2.729 -0.8529 -0.7229 -0.0239
   16MOL   C447 7377   5.803   5.783   2.847  0.5876 -0.0009 -0.5560
   16MOL   C448 7378   5.816   5.878   2.952  0.1456 -0.7174 -0.4694
   16MOL   C449 7379   5.721   5.870   3.063  0.0300 -0.2512 -0.6207
   16MOL   O450 7380   5.623   5.797   3.063  0.4656  0.1571 -0.5127
   16MOL   O451 7381   5.758   5.946   3.166  0.2862  0.3027 -0.2564
   16MOL   C452 7382   5.925   5.967   2.942 -0.3128  0.4813  0.0170
   16MOL   C453 7383   6.004   5.976   2.823 -0.6091  0.0785  0.4851
   16MOL   H454 7384   6.163   6.020   2.290  1.0506  0.9282  4.2278
   16MOL   H455 7385   6.008   6.039   2.366  0.4603  1.7735 -1.7516
   16MOL   H456 7386   6.198   5.819   2.383  0.2243  1.6057  1.3890
   16MOL   H457 7387   6.065   5.747   2.305  0.0938  1.3294 -1.2127
   16MOL   H458 7388   5.863   5.713   2.652 -1.2922  0.0594 -0.7034
   16MOL   H459 7389   5.725   5.709   2.857 -0.0205  0.9341  1.7765
   16MOL   H460 7390   5.934   6.042   3.020  2.6306  1.0118 -0.7532
   16MOL   H461 7391   6.070   6.060   2.811 -0.5508  0.0716  0.7501
   16MOL   H462 7392   5.707   5.929   3.244  0.2057  0.8919 -0.1793
   17MOL     O1 7393   3.378   6.574   5.752 -0.1583  0.6480  0.3102
   17MOL     C2 7394   3.463   6.635   5.657 -0.3053  0.5905 -0.6910
   17MOL     C3 7395   3.513   6.531   5.572 -0.0251  0.4804 -0.1828
   17MOL     O4 7396   3.593   6.592   5.477  0.2508 -0.4310 -0.3583
   17MOL     C5 7397   3.672   6.513   5.399 -0.7816  0.3417 -0.8438
   17MOL     O6 7398   3.657   6.389   5.398 -0.0185  0.0602  0.1641
   17MOL     C7 7399   3.778   6.586   5.318 -0.7455 -0.3769  0.0664
   17MOL     C8 7400   3.784   6.728   5.342  0.1573  0.2518  0.3798
   17MOL     C9 7401   3.890   6.802   5.282 -0.8194  0.3436  0.3451
   17MOL    C10 7402   3.990   6.748   5.203 -0.5449 -0.4789  0.0690
   17MOL    C11 7403   4.103   6.827   5.155 -0.5338  0.3979  0.2460
   17MOL    O12 7404   4.125   6.942   5.174  0.2262  0.2473 -0.3787
   17MOL    O13 7405   4.182   6.750   5.079  0.0103 -0.3174  0.6862
   17MOL    C14 7406   3.978   6.604   5.176 -0.1392 -0.3780 -0.2353
   17MOL    C15 7407   3.875   6.533   5.237  0.3401  0.5122 -0.2992
   17MOL    H16 7408   3.400   6.707   5.604 -1.2297 -0.0424 -0.4557
   17MOL    H17 7409   3.545   6.686   5.708  1.0037  0.6265 -2.7780
   17MOL    H18 7410   3.427   6.493   5.517  1.4855 -1.8293 -1.0194
   17MOL    H19 7411   3.563   6.454   5.631  2.0323  2.6981  1.0686
   17MOL    H20 7412   3.727   6.782   5.416  2.1498  0.1841  2.0150
   17MOL    H21 7413   3.889   6.909   5.297 -0.1383  0.3426  0.4488
   17MOL    H22 7414   4.049   6.551   5.113 -1.0220 -1.4465 -0.3361
   17MOL    H23 7415   3.861   6.428   5.218  2.0929  0.0952  0.6158
   17MOL    H24 7416   3.423   6.503   5.796 -1.3561  0.3234  1.0321
   17MOL    O25 7417   4.320   6.808   5.059  0.6243 -0.2343 -0.4229
   17MOL    C26 7418   4.415   6.723   5.126 -0.2482 -0.1973  0.3840
   17MOL    C27 7419   4.545   6.787   5.100 -0.2141 -0.2100 -0.6157
   17MOL    O28 7420   4.553   6.910   5.168  0.2530  0.3705 -0.0683
   17MOL    C29 7421   4.603   6.917   5.287 -0.2317 -0.9157 -0.1384
   17MOL    O30 7422   4.644   6.823   5.354  0.4817 -0.0411  0.2603
   17MOL    C31 7423   4.586   7.059   5.329 -0.1202  0.2005  0.0494
   17MOL    C32 7424   4.458   7.116   5.310 -0.5473  0.1264 -0.3950
   17MOL    C33 7425   4.433   7.250   5.355  0.3749 -0.3070  0.4854
   17MOL    C34 7426   4.539   7.332   5.407 -0.3263  0.2826  0.4649
   17MOL    C35 7427   4.521   7.470   5.432  1.0031 -0.0391 -0.4532
   17MOL    O36 7428   4.417   7.530   5.406  0.8997 -0.1333 -0.0581
   17MOL    O37 7429   4.635   7.527   5.477  0.0898  0.3549 -0.2411
   17MOL    C38 7430   4.665   7.267   5.434  0.2986  0.6642 -0.6508
   17MOL    C39 7431   4.682   7.126   5.401 -0.5075  0.0438  0.4938
   17MOL    H40 7432   4.390   6.725   5.232  2.2269  2.4947  0.9673
   17MOL    H41 7433   4.403   6.630   5.070  2.6092 -0.4676  0.1478
   17MOL    H42 7434   4.537   6.820   4.997  1.7075  0.3110 -0.6216
   17MOL    H43 7435   4.633   6.725   5.118  0.1266  0.2306 -0.7322
   17MOL    H44 7436   4.375   7.067   5.261 -1.3514 -0.7507  1.8019
   17MOL    H45 7437   4.334   7.290   5.337  0.3330 -1.2372 -1.4885
   17MOL    H46 7438   4.750   7.316   5.478 -0.0537 -1.4852  2.6622
   17MOL    H47 7439   4.777   7.080   5.424 -0.9034 -0.2783  1.5508
   17MOL    O48 7440   4.625   7.678   5.480 -0.0654  0.1499  0.4590
   17MOL    C49 7441   4.732   7.735   5.418 -0.6156  0.2610 -0.1472
   17MOL    C50 7442   4.866   7.725   5.494  0.1237 -0.5716 -0.1520
   17MOL    O51 7443   4.937   7.606   5.458  0.5806  0.1207 -0.7499
   17MOL    C52 7444   5.043   7.579   5.535  0.7440 -0.4011  0.9057
   17MOL    O53 7445   5.102   7.662   5.603  0.3487  0.4049  0.1306
   17MOL    C54 7446   5.074   7.436   5.540  0.0227 -0.1452 -0.0495
   17MOL    C55 7447   5.024   7.350   5.437  0.1454  0.9978  0.0160
   17MOL    C56 7448   5.055   7.210   5.425  0.7247 -0.1661  0.1769
   17MOL    C57 7449   5.136   7.160   5.534  0.0005  0.0958  0.5929
   17MOL    C58 7450   5.137   7.010   5.538  0.1354 -0.9357  0.4289
   17MOL    O59 7451   5.070   6.943   5.464 -0.3772 -0.1001  0.0854
   17MOL    O60 7452   5.227   6.967   5.626  0.1398 -0.5408  0.1102
   17MOL    C61 7453   5.189   7.241   5.638  0.7472 -0.0362 -0.6384
   17MOL    C62 7454   5.165   7.380   5.634  0.1706  0.7061 -0.1347
   17MOL    H63 7455   4.749   7.686   5.322  0.9061  0.4583  0.0101
   17MOL    H64 7456   4.705   7.836   5.386  1.6864  1.7274  2.2922
   17MOL    H65 7457   4.849   7.742   5.600 -1.2598  0.8715 -0.5914
   17MOL    H66 7458   4.939   7.803   5.470 -0.4123  0.7174  2.3283
   17MOL    H67 7459   4.963   7.403   5.364  2.5855  2.1167 -1.2683
   17MOL    H68 7460   5.022   7.146   5.344  0.5920  0.1390 -0.0109
   17MOL    H69 7461   5.254   7.196   5.712 -0.5012  1.3264  1.3502
   17MOL    H70 7462   5.206   7.437   5.716  1.3535 -1.5432  0.8849
   17MOL    O71 7463   5.212   6.815   5.644 -0.4428 -0.0454  0.1777
   17MOL    C72 7464   5.315   6.747   5.570 -0.7618  0.1287  1.3216
   17MOL    C73 7465   5.393   6.636   5.653 -0.1509 -0.4971 -0.0882
   17MOL    O74 7466   5.296   6.547   5.711 -0.0331 -0.1080  0.6622
   17MOL    C75 7467   5.266   6.563   5.840  0.2848  0.3595 -0.2583
   17MOL    O76 7468   5.339   6.626   5.924 -0.2337  0.6576  0.0772
   17MOL    C77 7469   5.156   6.483   5.883 -0.4910 -0.0398 -0.2677
   17MOL    C78 7470   5.082   6.402   5.791  0.4673 -0.3055  0.5738
   17MOL    C79 7471   4.982   6.312   5.837 -0.7439 -0.3340  0.0755
   17MOL    C80 7472   4.941   6.308   5.970 -0.4110 -0.9654 -0.0698
   17MOL    C81 7473   4.826   6.228   6.011  0.0152  0.1051 -0.0575
   17MOL    O82 7474   4.741   6.175   5.938  0.3346 -0.5124  0.3797
   17MOL    O83 7475   4.832   6.199   6.149 -0.1106  0.6101  0.1608
   17MOL    C84 7476   5.021   6.385   6.063 -0.2689  0.2941  0.0039
   17MOL    C85 7477   5.130   6.464   6.022  0.4080 -0.5231  0.2015
   17MOL    H86 7478   5.273   6.706   5.478 -0.8869 -0.2695  1.5561
   17MOL    H87 7479   5.388   6.824   5.543 -0.4677 -1.4609 -2.7702
   17MOL    H88 7480   5.455   6.683   5.729 -2.2974  0.5956  1.0289
   17MOL    H89 7481   5.459   6.586   5.582  0.7861  2.0902 -1.1235
   17MOL    H90 7482   5.093   6.403   5.684 -2.6250  1.6781  0.2062
   17MOL    H91 7483   4.930   6.270   5.752  2.8259 -0.4950 -2.1187
   17MOL    H92 7484   5.013   6.373   6.170  0.4253  0.2621  0.0514
   17MOL    H93 7485   5.181   6.516   6.103  0.2600 -0.4616  0.2570
   17MOL    O94 7486   4.766   6.071   6.181  0.0579  0.7501 -0.2674
   17MOL    C95 7487   4.869   5.981   6.219  0.3660 -0.4519 -0.0264
   17MOL    C96 7488   4.899   6.008   6.365 -0.5649  0.0095 -0.5289
   17MOL    O97 7489   5.002   6.104   6.389 -0.2632  0.6196 -0.5542
   17MOL    C98 7490   5.029   6.126   6.519 -0.4632  0.3886 -0.0246
   17MOL    O99 7491   4.964   6.082   6.618 -0.0029  0.0275  0.4934
   17MOL   C100 7492   5.152   6.207   6.547  0.4073 -0.9067 -0.1459
   17MOL   C101 7493   5.191   6.234   6.682  0.1341 -0.0020  1.0222
   17MOL   C102 7494   5.314   6.293   6.711  0.7332  0.3912 -0.7173
   17MOL   C103 7495   5.399   6.336   6.606 -0.1247 -0.6033 -0.7834
   17MOL   C104 7496   5.524   6.412   6.641 -0.5351 -0.9289 -0.7209
   17MOL   O105 7497   5.594   6.467   6.560  0.3255  0.0757  0.2280
   17MOL   O106 7498   5.551   6.420   6.770 -0.0603 -0.3260  0.2289
   17MOL   C107 7499   5.359   6.313   6.469 -0.6442 -0.2257  0.3581
   17MOL   C108 7500   5.237   6.248   6.443 -0.7034 -0.4967  0.1553
   17MOL   H109 7501   4.829   5.881   6.198  1.0326 -0.4579 -1.3103
   17MOL   H110 7502   4.958   5.988   6.157 -1.6010 -1.2399 -3.0234
   17MOL   H111 7503   4.927   5.913   6.411  0.7105  1.3709  1.6392
   17MOL   H112 7504   4.805   6.040   6.411 -0.8922 -2.0109  0.2613
   17MOL   H113 7505   5.128   6.199   6.762 -0.5679 -0.6839  0.1856
   17MOL   H114 7506   5.345   6.294   6.814 -0.9649  2.5777 -0.1854
   17MOL   H115 7507   5.408   6.346   6.378  1.4377  0.0399  1.5457
   17MOL   H116 7508   5.210   6.239   6.339 -1.3292 -0.5425  0.3166
   17MOL   O117 7509   5.673   6.503   6.798 -0.4342 -0.6234 -0.0079
   17MOL   C118 7510   5.637   6.635   6.835 -0.7794  0.0755 -0.2444
   17MOL   C119 7511   5.758   6.722   6.823 -0.3431  0.4339 -0.1737
   17MOL   O120 7512   5.843   6.705   6.938  0.4252 -0.3268 -0.3070
   17MOL   C121 7513   5.966   6.764   6.927  0.9910  0.3019 -0.6170
   17MOL   O122 7514   5.990   6.851   6.840  0.1241 -0.2094  0.4104
   17MOL   C123 7515   6.059   6.739   7.041  0.3861  0.8063  0.1176
   17MOL   C124 7516   6.189   6.783   7.037 -0.8924  0.3258 -0.3721
   17MOL   C125 7517   6.286   6.744   7.133  0.6253 -0.5872  0.0828
   17MOL   C126 7518   6.228   6.679   7.247 -0.3320 -0.4552  1.3400
   17MOL   C127 7519   6.318   6.654   7.362 -0.1440 -0.0768 -0.4567
   17MOL   O128 7520   6.442   6.670   7.357  0.4875  0.9560  0.0492
   17MOL   O129 7521   6.257   6.595   7.475  0.0375 -0.4258 -0.2323
   17MOL   C130 7522   6.088   6.650   7.258  0.0467 -0.5201 -1.0957
   17MOL   C131 7523   6.007   6.673   7.150 -0.2533  0.3710  0.3425
   17MOL   H132 7524   5.555   6.663   6.768 -1.2459 -2.1886 -0.6723
   17MOL   H133 7525   5.588   6.621   6.931 -1.3232  0.3233 -0.4835
   17MOL   H134 7526   5.729   6.827   6.811 -0.2602  0.2112 -2.5371
   17MOL   H135 7527   5.812   6.701   6.731 -1.3408 -0.1027 -0.6473
   17MOL   H136 7528   6.217   6.851   6.958 -0.2298  0.5280  0.0355
   17MOL   H137 7529   6.388   6.777   7.121 -0.0943  1.3030 -0.9884
   17MOL   H138 7530   6.037   6.619   7.348 -0.8135 -0.8616 -1.6925
   17MOL   H139 7531   5.902   6.651   7.164 -0.3831 -1.3459 -2.7510
   17MOL   O140 7532   6.356   6.553   7.588 -0.7576  0.0487 -0.0500
   17MOL   C141 7533   6.350   6.410   7.600 -0.5558 -0.5094 -0.0142
   17MOL   C142 7534   6.223   6.346   7.656 -0.7402 -0.1048 -0.0693
   17MOL   O143 7535   6.138   6.347   7.550  0.6758  0.2892 -0.1121
   17MOL   C144 7536   6.016   6.407   7.557  0.1644  0.2750  0.7190
   17MOL   O145 7537   5.980   6.465   7.656  0.0580  0.1548 -0.2567
   17MOL   C146 7538   5.939   6.385   7.435 -0.3302  0.2433 -0.3264
   17MOL   C147 7539   5.817   6.450   7.419  0.6692  0.0701  0.0349
   17MOL   C148 7540   5.741   6.443   7.300 -0.0233  0.2736 -0.4423
   17MOL   C149 7541   5.776   6.350   7.206 -1.1205  0.5880 -1.0329
   17MOL   C150 7542   5.689   6.328   7.086  0.8831 -0.0070 -0.1577
   17MOL   O151 7543   5.593   6.397   7.064 -0.7936 -0.2624  0.0338
   17MOL   O152 7544   5.731   6.230   7.000 -0.7430 -0.4489 -1.0466
   17MOL   C153 7545   5.896   6.273   7.224  0.0999 -0.1951 -0.2394
   17MOL   C154 7546   5.980   6.294   7.338 -0.3599 -0.2040  0.4023
   17MOL   H155 7547   6.359   6.383   7.495  1.2350 -0.9130  0.2220
   17MOL   H156 7548   6.440   6.369   7.646 -0.0566  0.4092 -0.1430
   17MOL   H157 7549   6.184   6.381   7.752  0.3009 -0.0283  0.3265
   17MOL   H158 7550   6.244   6.242   7.677 -1.2667  0.0078  1.0171
   17MOL   H159 7551   5.783   6.521   7.493  1.8091  2.3428 -1.5738
   17MOL   H160 7552   5.648   6.498   7.290  0.9608  1.6627 -2.1692
   17MOL   H161 7553   5.912   6.190   7.158  0.1101 -1.0490  0.8305
   17MOL   H162 7554   6.073   6.240   7.346 -0.2915  0.1291  2.0882
   17MOL   O163 7555   5.635   6.183   6.894 -0.0913  0.0683 -0.8070
   17MOL   C164 7556   5.536   6.102   6.952 -0.0016  0.4428  0.5561
   17MOL   C165 7557   5.584   5.962   6.999 -0.5077  0.1833  0.4724
   17MOL   O166 7558   5.678   5.965   7.102  0.3882 -0.3593  0.0998
   17MOL   C167 7559   5.643   5.969   7.226  0.3818 -0.5999  0.1691
   17MOL   O168 7560   5.528   5.975   7.262  0.0656 -1.0265 -0.1399
   17MOL   C169 7561   5.757   5.973   7.324 -0.2431 -0.6557  0.9186
   17MOL   C170 7562   5.730   6.048   7.441 -0.0721  0.4695 -0.4489
   17MOL   C171 7563   5.825   6.050   7.541  0.3410  0.3118 -0.3946
   17MOL   C172 7564   5.952   5.983   7.527  0.8967  0.5811  0.0937
   17MOL   C173 7565   6.057   5.996   7.633  0.1491 -0.0119  0.8157
   17MOL   O174 7566   6.053   6.063   7.736  0.0672  0.1779  0.1346
   17MOL   O175 7567   6.171   5.920   7.608 -0.1958 -0.5238 -0.1177
   17MOL   C176 7568   5.976   5.919   7.406 -0.0292  0.7426  1.0233
   17MOL   C177 7569   5.880   5.911   7.303 -0.2208 -0.7342 -0.4079
   17MOL   H178 7570   5.487   6.156   7.033  0.3034  0.5338  0.6845
   17MOL   H179 7571   5.468   6.095   6.868 -0.6969  0.8104  1.0847
   17MOL   H180 7572   5.639   5.932   6.910  0.3071  4.3457 -0.5498
   17MOL   H181 7573   5.498   5.899   7.021 -0.3515  1.1995  4.4158
   17MOL   H182 7574   5.632   6.090   7.458  0.1885  1.0012 -0.2617
   17MOL   H183 7575   5.808   6.089   7.641 -0.0349 -0.8104 -0.0179
   17MOL   H184 7576   6.070   5.865   7.403 -0.5084 -0.2029  2.3363
   17MOL   H185 7577   5.894   5.852   7.214  2.2232 -0.7015 -0.0700
   17MOL   O186 7578   6.247   5.883   7.734 -0.0008 -0.8231 -0.1113
   17MOL   C187 7579   6.170   5.794   7.812  0.1456 -0.8606  0.5628
   17MOL   C188 7580   6.267   5.686   7.869 -0.5661  0.0238 -0.1752
   17MOL   O189 7581   6.294   5.592   7.771  0.2474  0.4457 -0.1549
   17MOL   C190 7582   6.363   5.479   7.800 -0.3731 -0.7775  0.6524
   17MOL   O191 7583   6.420   5.452   7.908 -0.0319  0.3237 -0.0064
   17MOL   C192 7584   6.355   5.385   7.688  0.5194  1.1460 -0.1128
   17MOL   C193 7585   6.270   5.394   7.576  0.2323 -0.5527 -0.2288
   17MOL   C194 7586   6.275   5.295   7.471 -0.5397 -0.1774  0.9678
   17MOL   C195 7587   6.356   5.177   7.480 -0.4019 -0.5168 -0.4025
   17MOL   C196 7588   6.360   5.073   7.375  0.1468 -0.2134  0.1163
   17MOL   O197 7589   6.298   5.075   7.268  0.2422  0.7542  0.3063
   17MOL   O198 7590   6.431   4.968   7.415 -0.0193  0.2112  0.1026
   17MOL   C199 7591   6.434   5.170   7.602  0.0837 -0.0363 -0.1839
   17MOL   C200 7592   6.431   5.269   7.700 -0.1555  0.0564 -0.0347
   17MOL   H201 7593   6.114   5.849   7.888  0.6283  1.6154 -0.8092
   17MOL   H202 7594   6.100   5.741   7.748  1.8569  1.0181 -2.9851
   17MOL   H203 7595   6.216   5.647   7.957  0.7372 -1.0365  0.1163
   17MOL   H204 7596   6.355   5.737   7.907 -0.7032  0.9694 -1.0816
   17MOL   H205 7597   6.202   5.477   7.567 -0.7107 -1.2217  0.6270
   17MOL   H206 7598   6.221   5.317   7.380  1.6072 -0.4190 -0.3877
   17MOL   H207 7599   6.490   5.078   7.616 -1.4425 -1.2111 -1.5671
   17MOL   H208 7600   6.488   5.246   7.789  0.0922  1.5575  0.2052
   17MOL   O209 7601   6.482   4.882   7.302 -0.3038 -0.2621 -0.0439
   17MOL   C210 7602   6.397   4.779   7.273 -0.8250 -1.0299  0.3355
   17MOL   C211 7603   6.361   4.690   7.395 -0.3681 -0.7142 -0.2406
   17MOL   O212 7604   6.266   4.750   7.471 -0.4295 -0.0101 -0.2873
   17MOL   C213 7605   6.122   4.738   7.448  0.1946  0.0110 -0.2873
   17MOL   O214 7606   6.073   4.644   7.386 -0.1679 -0.0017 -0.2686
   17MOL   C215 7607   6.038   4.839   7.521 -0.4858 -0.2323 -1.0274
   17MOL   C216 7608   6.093   4.940   7.607  0.6696 -0.0931 -0.5216
   17MOL   C217 7609   6.012   5.029   7.676  0.2155 -0.4518  0.1486
   17MOL   C218 7610   5.872   5.022   7.669 -0.1537 -0.3022  0.4130
   17MOL   C219 7611   5.792   5.123   7.738  0.0695  0.0102 -0.1164
   17MOL   O220 7612   5.675   5.139   7.719 -0.6070  0.0435 -0.1406
   17MOL   O221 7613   5.862   5.184   7.838  0.3251  0.7078  0.7213
   17MOL   C222 7614   5.812   4.931   7.581 -0.3173  0.0633 -0.1333
   17MOL   C223 7615   5.897   4.834   7.517 -0.3460  0.3082 -0.3003
   17MOL   H224 7616   6.304   4.812   7.226 -0.1171  0.7300  0.1490
   17MOL   H225 7617   6.435   4.708   7.199 -0.3178 -1.1741  0.7325
   17MOL   H226 7618   6.452   4.670   7.452 -0.4357 -1.8314 -0.5208
   17MOL   H227 7619   6.320   4.593   7.365  0.4043 -1.9391  2.5262
   17MOL   H228 7620   6.198   4.961   7.620  0.4867 -0.2827  1.4240
   17MOL   H229 7621   6.054   5.097   7.748  1.3001 -2.8994  1.8926
   17MOL   H230 7622   5.707   4.927   7.553 -0.4833  1.9726  0.1921
   17MOL   H231 7623   5.841   4.758   7.464  1.6392 -1.0559 -0.4727
   17MOL   O232 7624   5.785   5.276   7.922  0.5133 -0.2803 -0.8007
   17MOL   C233 7625   5.776   5.405   7.860 -0.8450  0.1062 -0.9647
   17MOL   C234 7626   5.916   5.468   7.828 -0.0689 -0.0226 -0.6014
   17MOL   O235 7627   5.944   5.443   7.689 -0.8003  0.9054  0.1239
   17MOL   C236 7628   5.918   5.532   7.593  0.1635  0.2146  0.0212
   17MOL   O237 7629   5.884   5.653   7.610 -0.1990 -0.7304 -0.2465
   17MOL   C238 7630   5.940   5.478   7.456  0.2800 -0.1605  0.2309
   17MOL   C239 7631   5.947   5.341   7.434  0.2733  0.1397 -0.2628
   17MOL   C240 7632   5.961   5.283   7.302 -0.1048  0.5601 -0.1924
   17MOL   C241 7633   5.976   5.377   7.193 -0.0069  0.1883 -0.2233
   17MOL   C242 7634   5.976   5.327   7.053  0.2028  0.2016 -0.4852
   17MOL   O243 7635   5.989   5.405   6.957  0.4839 -0.0503  0.1432
   17MOL   O244 7636   5.936   5.193   7.053 -0.1071 -0.2335 -1.0024
   17MOL   C245 7637   5.997   5.518   7.214 -0.7700  0.3336 -0.1448
   17MOL   C246 7638   5.974   5.563   7.347  0.3817 -0.2325  0.0856
   17MOL   H247 7639   5.713   5.387   7.773 -0.7344 -2.9071 -0.5010
   17MOL   H248 7640   5.716   5.470   7.923 -1.2545  0.6194 -1.8836
   17MOL   H249 7641   5.994   5.423   7.889  0.3566  0.4373 -0.8111
   17MOL   H250 7642   5.916   5.576   7.842 -1.3594 -0.1912  0.8548
   17MOL   H251 7643   5.918   5.273   7.513 -0.3573  0.9602  0.2260
   17MOL   H252 7644   5.946   5.177   7.292 -0.3025  0.4977  0.7202
   17MOL   H253 7645   6.026   5.581   7.131 -0.1082  1.6623  1.0756
   17MOL   H254 7646   5.977   5.669   7.365 -3.8074  0.1222 -0.7514
   17MOL   O255 7647   5.885   5.142   6.928 -0.0001  0.0863 -0.3159
   17MOL   C256 7648   5.747   5.159   6.924 -0.6635  0.4320 -0.3307
   17MOL   C257 7649   5.673   5.025   6.949  0.2560 -0.3005 -0.7640
   17MOL   O258 7650   5.560   5.037   7.042  0.4751  0.1614 -0.3290
   17MOL   C259 7651   5.572   5.069   7.174  0.3671 -0.5980  0.2586
   17MOL   O260 7652   5.685   5.090   7.221 -0.1183 -0.2482  0.0474
   17MOL   C261 7653   5.445   5.072   7.246  0.1915 -0.4184 -0.2328
   17MOL   C262 7654   5.318   5.071   7.180 -0.2268 -0.2717  0.1347
   17MOL   C263 7655   5.203   5.085   7.255  0.9188 -0.0732  0.5029
   17MOL   C264 7656   5.204   5.105   7.392 -0.0547 -0.3723 -0.4501
   17MOL   C265 7657   5.090   5.135   7.477  0.1380  0.9753 -0.0614
   17MOL   O266 7658   5.103   5.150   7.603  0.2413  0.3986  0.0004
   17MOL   O267 7659   4.969   5.141   7.417 -0.0358  0.1193 -0.0639
   17MOL   C268 7660   5.331   5.112   7.455 -0.0080  0.5013 -0.2208
   17MOL   C269 7661   5.451   5.088   7.388  0.3814 -0.2814 -0.4073
   17MOL   H270 7662   5.698   5.242   6.975 -0.4919  1.0942 -1.2285
   17MOL   H271 7663   5.722   5.175   6.819 -0.1350  1.0169 -0.3687
   17MOL   H272 7664   5.745   4.963   7.001 -0.7636 -1.4150 -0.6562
   17MOL   H273 7665   5.658   4.976   6.852 -0.6074 -0.4217 -0.5720
   17MOL   H274 7666   5.313   5.058   7.073 -0.8366 -0.5506  0.1969
   17MOL   H275 7667   5.113   5.089   7.195  2.7486 -1.2886 -2.4528
   17MOL   H276 7668   5.341   5.126   7.562  0.2273 -0.9332 -0.0448
   17MOL   H277 7669   5.545   5.088   7.441 -0.6717  1.1957  1.5193
   17MOL   O278 7670   4.871   5.219   7.502 -0.2093 -0.4252  0.1245
   17MOL   C279 7671   4.776   5.129   7.548 -0.3183  0.7998  0.9367
   17MOL   C280 7672   4.748   5.176   7.691  0.2848 -0.5764 -1.2541
   17MOL   O281 7673   4.633   5.096   7.734 -0.5138 -0.2602 -0.4734
   17MOL   C282 7674   4.566   5.131   7.846  0.5798  0.2989 -0.1774
   17MOL   O283 7675   4.592   5.228   7.908 -0.3013 -0.5821 -0.3118
   17MOL   C284 7676   4.463   5.033   7.883 -0.2134 -0.1566 -0.3847
   17MOL   C285 7677   4.498   4.898   7.856  0.2900  0.2566  0.0278
   17MOL   C286 7678   4.411   4.792   7.892  0.7331  0.5453 -0.7188
   17MOL   C287 7679   4.299   4.816   7.977  0.4173  0.5841  0.7266
   17MOL   C288 7680   4.215   4.703   8.023 -0.3395 -0.0718  0.0803
   17MOL   O289 7681   4.126   4.723   8.108 -0.2985 -0.0673  0.0878
   17MOL   O290 7682   4.244   4.587   7.958  0.2850 -0.3738 -0.1407
   17MOL   C291 7683   4.272   4.952   8.016  0.6334  0.1211 -0.3100
   17MOL   C292 7684   4.356   5.060   7.972 -0.3082 -0.6797  0.0162
   17MOL   H293 7685   4.682   5.119   7.496 -0.3957  0.7421  1.0868
   17MOL   H294 7686   4.820   5.029   7.543 -0.3268  0.8466  0.0033
   17MOL   H295 7687   4.715   5.280   7.692  1.4770 -0.1655  2.6811
   17MOL   H296 7688   4.833   5.176   7.759 -1.6133  0.4768  1.2118
   17MOL   H297 7689   4.584   4.879   7.794  0.3086 -1.5852  0.5651
   17MOL   H298 7690   4.438   4.691   7.864 -0.9826 -0.7511  2.0408
   17MOL   H299 7691   4.185   4.974   8.076  1.7791  0.0213  1.4196
   17MOL   H300 7692   4.342   5.164   7.994 -0.6355 -0.5047 -0.9915
   17MOL   O301 7693   4.135   4.490   7.961 -0.5776 -0.5323 -0.2184
   17MOL   C302 7694   4.139   4.415   8.081 -0.0972 -0.4252 -0.0339
   17MOL   C303 7695   4.229   4.292   8.059 -0.3253  0.0307 -0.5293
   17MOL   O304 7696   4.370   4.331   8.058  0.0303  0.3382  0.5441
   17MOL   C305 7697   4.468   4.242   8.033  0.2398  0.0285 -0.6709
   17MOL   O306 7698   4.450   4.123   8.015  0.5766 -0.3028  0.3713
   17MOL   C307 7699   4.603   4.305   8.026 -0.2548 -0.1156  0.3615
   17MOL   C308 7700   4.718   4.231   7.994  0.0247 -0.3329  0.5515
   17MOL   C309 7701   4.837   4.299   7.961 -0.2194 -0.1754  0.6482
   17MOL   C310 7702   4.852   4.439   7.989  0.9560  0.4810 -0.2167
   17MOL   C311 7703   4.983   4.508   7.958 -0.2416  0.1195 -0.4353
   17MOL   O312 7704   5.003   4.625   7.984  0.0002 -0.1037 -0.0911
   17MOL   O313 7705   5.080   4.429   7.917  0.4227  0.6358  0.5801
   17MOL   C314 7706   4.741   4.509   8.034 -0.2209 -0.0583  0.0080
   17MOL   C315 7707   4.614   4.445   8.042  0.1940  0.9215  0.7911
   17MOL   H316 7708   4.182   4.478   8.158  0.8175 -0.5980 -0.4018
   17MOL   H317 7709   4.040   4.378   8.108 -0.9079 -0.8564 -3.2622
   17MOL   H318 7710   4.204   4.252   7.961 -1.8562  0.9582 -0.5379
   17MOL   H319 7711   4.200   4.217   8.133  1.8903  0.8953  1.2531
   17MOL   H320 7712   4.722   4.125   7.977  1.9281 -0.2482  0.4022
   17MOL   H321 7713   4.927   4.245   7.936  0.6591  0.7058  1.8326
   17MOL   H322 7714   4.748   4.616   8.053 -1.6050  0.0955 -0.2724
   17MOL   H323 7715   4.529   4.506   8.068 -0.4107  0.8591 -0.9973
   17MOL   O324 7716   5.216   4.488   7.933 -0.4027 -0.6372 -0.3390
   17MOL   C325 7717   5.279   4.499   7.807 -0.0696 -0.7861  0.7690
   17MOL   C326 7718   5.420   4.561   7.830 -0.8024 -0.5912  0.0029
   17MOL   O327 7719   5.397   4.693   7.878 -0.2795 -0.2072  0.1106
   17MOL   C328 7720   5.491   4.781   7.911  0.3987  0.0390 -0.2639
   17MOL   O329 7721   5.608   4.771   7.866  0.4266 -0.1691 -0.2046
   17MOL   C330 7722   5.440   4.895   7.984  0.1819 -0.4193 -0.2258
   17MOL   C331 7723   5.509   5.013   7.982  0.7047  0.1098  0.1912
   17MOL   C332 7724   5.456   5.136   8.036  0.1896 -0.6067 -0.2486
   17MOL   C333 7725   5.336   5.131   8.109 -0.2465 -0.0758 -0.3471
   17MOL   C334 7726   5.280   5.255   8.156  0.5058  0.2436 -0.7160
   17MOL   O335 7727   5.160   5.261   8.184 -0.2250  0.0655  0.5541
   17MOL   O336 7728   5.354   5.370   8.153 -0.0080  0.5454 -0.2605
   17MOL   C337 7729   5.264   5.012   8.120 -0.3378  0.4666  0.1457
   17MOL   C338 7730   5.311   4.894   8.052 -0.4302 -0.3503  0.0640
   17MOL   H339 7731   5.282   4.400   7.762  1.2253 -0.6812  0.5814
   17MOL   H340 7732   5.226   4.566   7.739  0.4104 -1.6461 -0.4720
   17MOL   H341 7733   5.466   4.558   7.731  2.0686 -2.7586  1.3168
   17MOL   H342 7734   5.486   4.502   7.894 -0.0351  0.8442  0.5637
   17MOL   H343 7735   5.597   5.009   7.920  0.3698 -1.3974 -0.2061
   17MOL   H344 7736   5.516   5.225   8.027  0.8451 -0.9787  0.3318
   17MOL   H345 7737   5.170   5.022   8.173  0.3466  0.7437  1.3188
   17MOL   H346 7738   5.246   4.808   8.048 -1.7014  0.5373  0.9740
   17MOL   O347 7739   5.281   5.496   8.181  0.3310  0.6140 -0.3518
   17MOL   C348 7740   5.349   5.604   8.121 -0.0060 -0.1316 -0.5355
   17MOL   C349 7741   5.262   5.735   8.109  0.0606  0.1545 -0.6002
   17MOL   O350 7742   5.286   5.812   8.223 -0.0417  0.1444  0.0736
   17MOL   C351 7743   5.236   5.933   8.230  0.0277 -1.1344 -0.1441
   17MOL   O352 7744   5.161   5.977   8.142  0.2692  0.5169 -0.0782
   17MOL   C353 7745   5.271   6.009   0.075 -0.2115  0.0265 -0.6241
   17MOL   C354 7746   5.355   5.955   0.178  0.1158  0.6469  0.2363
   17MOL   C355 7747   5.404   6.024   0.287  0.1941 -0.6132 -0.5634
   17MOL   C356 7748   5.371   6.162   0.295  0.7461  0.3125 -0.7154
   17MOL   C357 7749   5.421   6.252   0.398 -0.7633 -0.3184  0.6606
   17MOL   O358 7750   5.378   6.368   0.409  0.6061  0.6304  0.2412
   17MOL   O359 7751   5.506   6.193   0.479 -0.3410 -0.0861 -0.5068
   17MOL   C360 7752   5.285   6.219   0.193  0.6536  0.1372 -0.2215
   17MOL   C361 7753   5.236   6.146   0.083  0.0713  0.0614  1.1883
   17MOL   H362 7754   5.434   5.625   8.186 -1.8245  0.7025  1.6286
   17MOL   H363 7755   5.384   5.578   8.021 -0.7939  2.5070 -1.5507
   17MOL   H364 7756   5.155   5.711   8.112  0.3429 -1.1342 -0.4996
   17MOL   H365 7757   5.281   5.776   8.010 -0.3860 -0.5463 -0.9796
   17MOL   H366 7758   5.383   5.851   0.175 -0.5360  0.5005 -2.3533
   17MOL   H367 7759   5.466   5.960   0.348 -0.0760  0.2717  0.6568
   17MOL   H368 7760   5.257   6.323   0.183 -0.5471 -0.0727  0.7988
   17MOL   H369 7761   5.175   6.188   0.005  0.7301 -1.1194  0.0055
   17MOL   O370 7762   5.551   6.274   0.598 -0.2585 -0.0098 -0.2402
   17MOL   C371 7763   5.661   6.354   0.558  0.1684  0.1891  0.1023
   17MOL   C372 7764   5.749   6.385   0.683  0.4837  0.3825  0.0889
   17MOL   O373 7765   5.832   6.272   0.698 -0.3166  0.3341  0.5366
   17MOL   C374 7766   5.804   6.177   0.791  0.3684 -0.5211  0.2114
   17MOL   O375 7767   5.704   6.175   0.864 -0.0552  0.3138  0.2765
   17MOL   C376 7768   5.915   6.082   0.798  0.2344  0.5093  0.2825
   17MOL   C377 7769   6.000   6.063   0.690 -0.3407 -0.5891 -0.0092
   17MOL   C378 7770   6.118   5.993   0.713  0.3349 -0.1883  0.1630
   17MOL   C379 7771   6.160   5.945   0.836  0.2093 -0.3451  0.2156
   17MOL   C380 7772   6.287   5.866   0.862  0.1957  0.4395  0.6957
   17MOL   O381 7773   6.346   5.878   0.970 -0.1603  0.1254  0.2917
   17MOL   O382 7774   6.324   5.791   0.756 -0.1637  0.1060 -0.7042
   17MOL   C383 7775   6.070   5.964   0.948  0.1189 -0.1683 -0.1742
   17MOL   C384 7776   5.951   6.035   0.924  0.1440  0.6115 -0.6578
   17MOL   H385 7777   5.716   6.300   0.480  1.8797  0.9609  0.7415
   17MOL   H386 7778   5.613   6.442   0.516  1.4182  0.7349 -0.2179
   17MOL   H387 7779   5.681   6.401   0.767 -0.3731 -2.0971 -0.0977
   17MOL   H388 7780   5.813   6.472   0.668  0.8803  0.2868  1.2052
   17MOL   H389 7781   5.980   6.102   0.591 -0.5297 -2.7455 -0.8384
   17MOL   H390 7782   6.204   5.982   0.648  0.1809  0.3471 -0.1400
   17MOL   H391 7783   6.096   5.928   1.046 -0.4983 -1.0464 -0.3271
   17MOL   H392 7784   5.887   6.037   1.011 -1.2599 -1.3472 -1.6087
   17MOL   O393 7785   6.407   5.681   0.797 -0.5270 -0.4674  0.0889
   17MOL   C394 7786   6.324   5.567   0.803 -0.3041  0.0189 -0.4287
   17MOL   C395 7787   6.277   5.534   0.659 -0.8601 -0.3043 -0.1278
   17MOL   O396 7788   6.132   5.565   0.654 -0.2212 -0.1969  0.1383
   17MOL   C397 7789   6.034   5.468   0.676 -0.0092  0.9493 -0.2104
   17MOL   O398 7790   6.048   5.342   0.686  0.0271  0.1029 -0.2269
   17MOL   C399 7791   5.903   5.544   0.682  0.0103  0.3248  0.3219
   17MOL   C400 7792   5.894   5.669   0.635  0.5344  0.1489 -0.5623
   17MOL   C401 7793   5.769   5.737   0.637  0.0815  0.5008  0.0116
   17MOL   C402 7794   5.654   5.674   0.692 -0.4597  0.4099  0.3705
   17MOL   C403 7795   5.520   5.746   0.687  0.2102  0.1215  0.3116
   17MOL   O404 7796   5.489   5.824   0.602 -0.1681  0.7892  0.0706
   17MOL   O405 7797   5.441   5.724   0.799 -0.5759 -0.3127 -0.5087
   17MOL   C406 7798   5.671   5.552   0.754  0.4544  0.0553 -0.1829
   17MOL   C407 7799   5.791   5.484   0.749 -0.5409 -0.1511 -0.2860
   17MOL   H408 7800   6.391   5.492   0.845 -1.6733 -1.0078 -0.0862
   17MOL   H409 7801   6.242   5.584   0.873  0.5890  1.9136  0.2257
   17MOL   H410 7802   6.288   5.428   0.635 -2.3147 -0.5082  0.0576
   17MOL   H411 7803   6.326   5.592   0.581 -0.7711  2.5419  1.9892
   17MOL   H412 7804   5.976   5.729   0.596  0.1656  0.9939 -0.0459
   17MOL   H413 7805   5.762   5.833   0.588  1.5437  0.9171  0.5939
   17MOL   H414 7806   5.585   5.511   0.806 -1.0918 -1.8869 -4.0758
   17MOL   H415 7807   5.800   5.388   0.797  0.0647 -0.3909 -0.8834
   17MOL   O416 7808   5.346   5.836   0.825  0.4139 -0.1681 -0.4463
   17MOL   C417 7809   5.403   5.914   0.927  0.5640  0.2843 -0.9168
   17MOL   C418 7810   5.420   5.829   1.060 -0.1550 -0.8047  0.2880
   17MOL   O419 7811   5.303   5.831   1.132  0.0650 -1.2256  0.0990
   17MOL   C420 7812   5.244   5.705   1.157 -0.3519 -0.1227  0.3493
   17MOL   O421 7813   5.273   5.603   1.096 -0.4983 -0.2157 -0.2563
   17MOL   C422 7814   5.130   5.705   1.264  0.1458 -0.0248 -0.3248
   17MOL   C423 7815   5.109   5.818   1.347  0.7758  0.5115 -0.2879
   17MOL   C424 7816   5.005   5.818   1.445 -0.6742  0.3072  0.0393
   17MOL   C425 7817   4.935   5.699   1.468 -1.0993  0.3891 -0.5240
   17MOL   C426 7818   4.825   5.698   1.570 -0.4927  0.2115  0.1334
   17MOL   O427 7819   4.804   5.795   1.646  0.4061 -0.2520  0.0529
   17MOL   O428 7820   4.739   5.594   1.570  0.0835 -0.3288  0.5838
   17MOL   C429 7821   4.955   5.586   1.387  0.3715 -0.1365  0.6875
   17MOL   C430 7822   5.046   5.595   1.280 -0.3554  0.0665 -0.7008
   17MOL   H431 7823   5.501   5.934   0.884  1.4322  3.3164  2.2493
   17MOL   H432 7824   5.348   6.005   0.950 -1.3722 -1.2477  0.8152
   17MOL   H433 7825   5.502   5.879   1.111 -0.2715 -0.3177  0.0028
   17MOL   H434 7826   5.456   5.729   1.039  2.5460  0.1337  0.2871
   17MOL   H435 7827   5.169   5.907   1.340  0.5111  0.9043  2.1550
   17MOL   H436 7828   4.995   5.905   1.507 -1.9050  0.6185 -0.5842
   17MOL   H437 7829   4.900   5.496   1.408 -0.1748 -0.4726 -2.0380
   17MOL   H438 7830   5.071   5.505   1.226  0.7214  0.0065 -0.1066
   17MOL   O439 7831   4.625   5.607   1.673  0.5894  0.1417  0.3087
   17MOL   C440 7832   4.512   5.657   1.606  0.1741  0.4587  0.1298
   17MOL   C441 7833   4.389   5.696   1.704 -0.7260  0.8486 -0.0032
   17MOL   O442 7834   4.420   5.806   1.791  0.0279  0.7091 -0.1360
   17MOL   C443 7835   4.346   5.827   1.898 -0.7127  0.0591  1.2420
   17MOL   O444 7836   4.236   5.777   1.920 -0.0611 -0.5783  0.4501
   17MOL   C445 7837   4.410   5.914   2.003  0.0204  0.2799 -0.6337
   17MOL   C446 7838   4.362   5.893   2.135 -0.7833 -0.3260  0.5979
   17MOL   C447 7839   4.431   5.947   2.251  0.1608 -0.1854 -0.3429
   17MOL   C448 7840   4.539   6.035   2.226  0.5695  0.6871 -0.5216
   17MOL   C449 7841   4.619   6.097   2.342  0.2689 -0.2075  0.4515
   17MOL   O450 7842   4.723   6.163   2.324 -0.1009 -0.2924  0.9556
   17MOL   O451 7843   4.567   6.059   2.458 -0.5096 -0.0276  0.5905
   17MOL   C452 7844   4.587   6.056   2.095  0.6912 -0.2657 -0.3127
   17MOL   C453 7845   4.526   5.998   1.983 -0.0923  0.5758 -0.2172
   17MOL   H454 7846   4.541   5.738   1.539  3.2910 -0.0739  0.7673
   17MOL   H455 7847   4.474   5.571   1.550 -0.7309  1.1537 -0.3492
   17MOL   H456 7848   4.358   5.607   1.759 -1.6283  1.0905 -0.1079
   17MOL   H457 7849   4.305   5.723   1.640 -1.1262 -1.0049 -0.3012
   17MOL   H458 7850   4.276   5.832   2.159  0.4221 -0.7921  3.8907
   17MOL   H459 7851   4.403   5.927   2.353 -0.9882 -2.1979 -1.0302
   17MOL   H460 7852   4.672   6.116   2.069  0.3512  0.5743  0.5141
   17MOL   H461 7853   4.569   6.021   1.887  0.6054  0.4659  0.0699
   17MOL   H462 7854   4.625   6.094   2.524  0.4120 -0.0407 -0.2075
   18MOL     O1 7855   4.212   1.842   3.930  0.9162  0.1319 -0.5431
   18MOL     C2 7856   4.305   1.936   3.881 -0.1035  0.5866 -0.1357
   18MOL     C3 7857   4.433   1.873   3.821  0.4719 -0.2634  1.0456
   18MOL     O4 7858   4.533   1.855   3.919 -0.7495 -0.0753 -0.4222
   18MOL     C5 7859   4.524   1.761   4.016  0.3061  0.3207  0.0064
   18MOL     O6 7860   4.423   1.687   4.034 -0.4738  0.1110 -0.6445
   18MOL     C7 7861   4.653   1.744   4.091 -0.1486  0.0672  0.1954
   18MOL     C8 7862   4.681   1.618   4.152  0.7722 -0.3623 -0.4508
   18MOL     C9 7863   4.798   1.606   4.230 -0.2790 -1.0507  0.0698
   18MOL    C10 7864   4.898   1.703   4.226 -0.2085 -0.0795  0.0214
   18MOL    C11 7865   5.031   1.686   4.292 -0.7840 -0.0477 -0.1177
   18MOL    O12 7866   5.071   1.589   4.360 -0.1726  0.5535  0.1827
   18MOL    O13 7867   5.120   1.784   4.267 -0.0891 -0.3279 -0.1030
   18MOL    C14 7868   4.864   1.833   4.172 -0.8238 -0.0167 -1.1569
   18MOL    C15 7869   4.738   1.854   4.111 -0.0101  0.2113  0.6562
   18MOL    H16 7870   4.259   1.987   3.796  0.1105  2.6295  0.9256
   18MOL    H17 7871   4.331   2.010   3.957  1.4401 -0.8155  0.7388
   18MOL    H18 7872   4.469   1.941   3.745 -1.1623  0.4857  0.9372
   18MOL    H19 7873   4.407   1.779   3.772 -1.2344  0.2098  1.0042
   18MOL    H20 7874   4.620   1.530   4.137  0.6327 -0.5700  1.2304
   18MOL    H21 7875   4.817   1.511   4.278 -0.2394 -1.1599 -0.1600
   18MOL    H22 7876   4.935   1.913   4.180  0.0182 -0.7599 -1.0700
   18MOL    H23 7877   4.717   1.954   4.077  0.4939 -0.7074 -2.4701
   18MOL    H24 7878   4.264   1.787   3.986 -0.7586 -1.4342 -0.5148
   18MOL    O25 7879   5.251   1.787   4.344 -0.0020 -0.6653 -0.8988
   18MOL    C26 7880   5.350   1.731   4.250 -0.1333 -0.3382  0.1537
   18MOL    C27 7881   5.491   1.737   4.303 -0.2897 -0.0485 -1.1291
   18MOL    O28 7882   5.557   1.848   4.233  0.0457 -0.3964 -0.5535
   18MOL    C29 7883   5.668   1.812   4.162 -0.4548  0.3546  0.1339
   18MOL    O30 7884   5.700   1.702   4.133  0.4546  0.2061  0.2014
   18MOL    C31 7885   5.739   1.936   4.116  0.0727 -0.3651  0.5671
   18MOL    C32 7886   5.858   1.925   4.042  0.5461  0.1381  0.6440
   18MOL    C33 7887   5.910   2.032   3.969  0.4506 -0.0494  0.4056
   18MOL    C34 7888   5.858   2.162   3.984  0.0075 -0.4338  0.0304
   18MOL    C35 7889   5.920   2.281   3.917 -0.0379 -0.2769 -0.3235
   18MOL    O36 7890   6.035   2.268   3.868 -0.4711 -0.4031 -0.6005
   18MOL    O37 7891   5.838   2.392   3.921 -0.8376 -0.1535 -0.2908
   18MOL    C38 7892   5.758   2.178   4.074  0.3723  0.1473  0.5526
   18MOL    C39 7893   5.691   2.066   4.140  1.1265  0.3447  0.5367
   18MOL    H40 7894   5.325   1.629   4.221 -1.0091 -0.0345 -0.1780
   18MOL    H41 7895   5.348   1.779   4.152 -1.8139 -1.1138 -0.2026
   18MOL    H42 7896   5.536   1.638   4.293  0.0648  0.0559 -0.6054
   18MOL    H43 7897   5.498   1.759   4.410  1.7350  3.0334 -1.8192
   18MOL    H44 7898   5.900   1.827   4.026  0.9980  0.5953 -1.0796
   18MOL    H45 7899   5.996   2.013   3.906 -1.0144 -0.6179 -1.4684
   18MOL    H46 7900   5.722   2.276   4.101  2.2746  0.9044  0.3587
   18MOL    H47 7901   5.611   2.082   4.210 -1.0963 -0.2158 -1.8183
   18MOL    O48 7902   5.914   2.512   3.872 -0.5315  0.4320 -0.1684
   18MOL    C49 7903   5.825   2.606   3.812  0.1374 -0.7184  0.3306
   18MOL    C50 7904   5.737   2.550   3.701  0.2367  0.4697 -0.3446
   18MOL    O51 7905   5.774   2.584   3.571 -0.1504  0.1904 -0.0176
   18MOL    C52 7906   5.750   2.704   3.515  0.3293  0.0890 -0.0894
   18MOL    O53 7907   5.697   2.794   3.585 -0.5883 -0.0374  0.1600
   18MOL    C54 7908   5.792   2.716   3.372 -0.4183 -0.0841  0.3892
   18MOL    C55 7909   5.894   2.628   3.318  0.4743  0.2497  0.0251
   18MOL    C56 7910   5.933   2.638   3.182 -0.1775  0.3510  0.4604
   18MOL    C57 7911   5.896   2.751   3.106  0.9473  0.2107  0.1729
   18MOL    C58 7912   5.948   2.773   2.969  0.1016 -0.2777  0.8092
   18MOL    O59 7913   5.935   2.875   2.909 -0.6094  0.2951  0.6621
   18MOL    O60 7914   6.028   2.675   2.925  0.0741 -0.2938  0.3364
   18MOL    C61 7915   5.800   2.834   3.160 -0.4947  0.3492  0.1493
   18MOL    C62 7916   5.746   2.817   3.291 -0.3115 -0.8132  0.6405
   18MOL    H63 7917   5.759   2.613   3.899 -0.0341  0.8147  0.0973
   18MOL    H64 7918   5.877   2.701   3.795 -0.6265 -0.3741 -0.1310
   18MOL    H65 7919   5.639   2.595   3.709  0.0692  0.1540 -0.6436
   18MOL    H66 7920   5.718   2.444   3.723 -3.2736  0.6856 -2.0942
   18MOL    H67 7921   5.916   2.542   3.379  1.0422  0.6917  0.4502
   18MOL    H68 7922   5.989   2.559   3.133 -2.1461 -0.6437 -0.2154
   18MOL    H69 7923   5.754   2.923   3.119 -0.5393  0.5184  0.5639
   18MOL    H70 7924   5.674   2.887   3.331  1.3015  0.7810  0.7775
   18MOL    O71 7925   6.068   2.692   2.782  0.2095  0.1918  0.2552
   18MOL    C72 7926   6.206   2.712   2.789  0.2233  0.1231 -0.1593
   18MOL    C73 7927   6.256   2.792   2.663 -0.1615  0.4188  0.0614
   18MOL    O74 7928   6.233   2.930   2.689 -0.3864  0.2699 -0.2101
   18MOL    C75 7929   6.231   3.024   2.588 -0.0101  0.3254  0.1546
   18MOL    O76 7930   6.252   3.000   2.471 -0.7500 -0.3357 -0.5948
   18MOL    C77 7931   6.214   3.156   2.650 -0.0893  0.1886 -0.6430
   18MOL    C78 7932   6.292   3.266   2.597  0.0998 -0.4037  0.2641
   18MOL    C79 7933   6.282   3.393   2.656  0.0509  0.0209  0.0096
   18MOL    C80 7934   6.199   3.414   2.769 -0.2727 -0.1246 -0.5547
   18MOL    C81 7935   6.190   3.553   2.825  0.1304  0.0371  0.5017
   18MOL    O82 7936   6.244   3.654   2.781 -0.1354 -0.5166  0.1769
   18MOL    O83 7937   6.102   3.553   2.928  1.3952  0.3370  0.6169
   18MOL    C84 7938   6.118   3.304   2.821 -0.0423  0.1913 -0.5069
   18MOL    C85 7939   6.127   3.175   2.758 -0.1200  0.3183 -0.1105
   18MOL    H86 7940   6.228   2.760   2.884 -2.9007  0.2488  0.5338
   18MOL    H87 7941   6.257   2.616   2.799 -0.8822 -0.5434 -0.8795
   18MOL    H88 7942   6.202   2.772   2.570  0.9552  0.4148 -0.6046
   18MOL    H89 7943   6.362   2.769   2.651  0.9675  3.6949  3.0832
   18MOL    H90 7944   6.343   3.255   2.502 -0.1621 -2.3329  0.3441
   18MOL    H91 7945   6.336   3.476   2.615 -1.7391  0.2955 -1.8850
   18MOL    H92 7946   6.039   3.329   2.891  1.8797  2.1396  1.0470
   18MOL    H93 7947   6.049   3.105   2.785  1.0159 -0.1034  2.1993
   18MOL    O94 7948   6.085   3.685   3.001  0.0480  0.0107  0.7891
   18MOL    C95 7949   5.960   3.741   2.964 -0.4286 -0.3634  0.3382
   18MOL    C96 7950   5.851   3.657   3.014  0.2195 -0.1366 -0.0064
   18MOL    O97 7951   5.818   3.558   2.917  0.1447  0.0294  0.7342
   18MOL    C98 7952   5.742   3.459   2.957  0.2531  0.2892 -0.1583
   18MOL    O99 7953   5.682   3.456   3.068 -0.4957 -0.0406 -0.0876
   18MOL   C100 7954   5.752   3.345   2.858 -0.4083  0.4872  0.3963
   18MOL   C101 7955   5.784   3.370   2.721 -1.0115 -1.0543 -0.5253
   18MOL   C102 7956   5.824   3.262   2.636 -0.0081 -0.2103  0.1838
   18MOL   C103 7957   5.805   3.130   2.678  0.5102 -0.0675 -0.1070
   18MOL   C104 7958   5.825   3.014   2.591 -0.3944 -0.6804 -0.3055
   18MOL   O105 7959   5.884   3.022   2.481 -0.2409  0.3970 -0.0901
   18MOL   O106 7960   5.773   2.907   2.633  0.0765  0.0360 -0.2833
   18MOL   C107 7961   5.746   3.112   2.809  0.4172 -0.0077  0.6108
   18MOL   C108 7962   5.722   3.215   2.900  0.4566 -0.8373 -0.3954
   18MOL   H109 7963   5.953   3.846   2.991 -0.6700  0.6818 -3.4842
   18MOL   H110 7964   5.962   3.748   2.855  0.3277  0.0608  0.3823
   18MOL   H111 7965   5.770   3.729   3.021  0.9242  0.7431 -0.9145
   18MOL   H112 7966   5.871   3.618   3.114  0.9034  1.0923  0.3339
   18MOL   H113 7967   5.793   3.467   2.675  3.5187 -1.4206 -0.6271
   18MOL   H114 7968   5.850   3.290   2.535 -1.0660  1.1968  0.2779
   18MOL   H115 7969   5.717   3.014   2.845 -3.0157 -0.1394 -2.3192
   18MOL   H116 7970   5.676   3.186   2.993 -1.0841 -1.1178 -1.2350
   18MOL   O117 7971   5.772   2.791   2.533  0.0394 -0.0329  0.6762
   18MOL   C118 7972   5.828   2.672   2.587 -0.1743 -0.2854  0.8041
   18MOL   C119 7973   5.806   2.553   2.488  0.0974  0.6579  0.2592
   18MOL   O120 7974   5.677   2.497   2.501  1.0627  0.7443  0.2927
   18MOL   C121 7975   5.646   2.402   2.594 -0.3607  0.5761  0.3942
   18MOL   O122 7976   5.726   2.366   2.678  0.0778  0.3592 -0.1459
   18MOL   C123 7977   5.509   2.349   2.583  0.3469 -1.0887 -0.0146
   18MOL   C124 7978   5.472   2.228   2.644  0.1426 -0.3855 -0.9091
   18MOL   C125 7979   5.334   2.187   2.641  0.0087 -0.2240 -0.2826
   18MOL   C126 7980   5.236   2.264   2.570 -0.1856  0.3687 -0.3653
   18MOL   C127 7981   5.094   2.234   2.568  0.6762  0.4083 -0.5638
   18MOL   O128 7982   5.046   2.121   2.556  0.0228 -0.1179 -0.0407
   18MOL   O129 7983   5.024   2.347   2.596  0.3633  0.0629  0.3505
   18MOL   C130 7984   5.275   2.383   2.504 -0.4053  0.2649  0.1214
   18MOL   C131 7985   5.408   2.425   2.514  0.0955  0.2646  1.1401
   18MOL   H132 7986   5.933   2.695   2.605  0.0429 -0.7829  0.1586
   18MOL   H133 7987   5.796   2.649   2.689  1.0030 -0.1324  1.2184
   18MOL   H134 7988   5.890   2.486   2.467  1.8597  2.5956  0.9000
   18MOL   H135 7989   5.798   2.594   2.388 -0.8538 -1.9293 -0.7510
   18MOL   H136 7990   5.542   2.177   2.708 -0.3011  0.7076  0.4851
   18MOL   H137 7991   5.291   2.101   2.690  0.5273 -0.4358 -0.1883
   18MOL   H138 7992   5.208   2.439   2.440 -1.6985  3.0977  3.8123
   18MOL   H139 7993   5.430   2.518   2.463 -0.6039 -0.6725 -0.9127
   18MOL   O140 7994   4.875   2.316   2.601 -0.4227  0.0481 -0.2952
   18MOL   C141 7995   4.814   2.364   2.482 -0.2356 -0.6987 -0.2376
   18MOL   C142 7996   4.671   2.324   2.484  0.1220  0.7409 -0.0387
   18MOL   O143 7997   4.606   2.430   2.555  0.1398 -0.3331  0.0557
   18MOL   C144 7998   4.576   2.428   2.692 -0.7566  0.3486  0.5918
   18MOL   O145 7999   4.580   2.326   2.764 -0.1893  0.1736  0.3710
   18MOL   C146 8000   4.538   2.553   2.758 -0.1147 -0.2336 -0.6816
   18MOL   C147 8001   4.516   2.564   2.897  0.3221 -0.2464 -0.3469
   18MOL   C148 8002   4.476   2.686   2.959  0.0149 -0.2128 -0.1103
   18MOL   C149 8003   4.471   2.802   2.881 -0.3358  0.9283 -0.1890
   18MOL   C150 8004   4.435   2.934   2.936 -0.2218  0.2963 -0.8848
   18MOL   O151 8005   4.439   2.962   3.060  0.1324 -0.4737 -0.3811
   18MOL   O152 8006   4.388   3.025   2.842 -0.4842 -0.6567 -0.2563
   18MOL   C153 8007   4.498   2.792   2.744  0.1371  0.3422  0.7572
   18MOL   C154 8008   4.519   2.669   2.684  0.9148 -0.6660  0.5273
   18MOL   H155 8009   4.842   2.466   2.456  1.5003 -1.5332 -1.8239
   18MOL   H156 8010   4.862   2.309   2.401  1.1286  1.1501 -0.7275
   18MOL   H157 8011   4.665   2.228   2.535 -1.7984  0.8264 -0.0650
   18MOL   H158 8012   4.633   2.316   2.382  1.8032 -0.4499 -0.5947
   18MOL   H159 8013   4.517   2.470   2.949  0.7396  0.4626  0.9371
   18MOL   H160 8014   4.441   2.695   3.061 -0.6592 -0.2382 -0.3357
   18MOL   H161 8015   4.491   2.884   2.687 -1.0370 -0.8950 -1.1496
   18MOL   H162 8016   4.541   2.660   2.579  0.0667 -0.4545  0.3234
   18MOL   O163 8017   4.329   3.153   2.901  0.4221  0.5899  0.1476
   18MOL   C164 8018   4.428   3.254   2.898  0.1852  0.0107 -0.7920
   18MOL   C165 8019   4.461   3.282   2.754 -0.3563 -0.0405  0.2480
   18MOL   O166 8020   4.359   3.351   2.686  0.3768  0.5588 -0.7649
   18MOL   C167 8021   4.291   3.302   2.580  0.5557  0.9338  0.1919
   18MOL   O168 8022   4.306   3.192   2.530 -0.0527  0.4314 -0.0527
   18MOL   C169 8023   4.200   3.400   2.508  0.3424 -0.4270  0.3149
   18MOL   C170 8024   4.179   3.530   2.558  0.3395  0.1462 -0.0210
   18MOL   C171 8025   4.097   3.624   2.498 -0.0726 -0.4530 -0.6149
   18MOL   C172 8026   4.046   3.592   2.363  0.3628 -0.6042 -0.1460
   18MOL   C173 8027   3.951   3.678   2.287  0.4432 -0.3079 -0.3622
   18MOL   O174 8028   3.904   3.781   2.335 -0.2272  0.2694 -0.4700
   18MOL   O175 8029   3.924   3.639   2.167  0.7589  0.9568  0.5725
   18MOL   C176 8030   4.067   3.463   2.317 -0.3091  0.5400 -1.2353
   18MOL   C177 8031   4.142   3.369   2.383  0.2848 -0.3312 -0.2276
   18MOL   H178 8032   4.393   3.339   2.955  1.6420 -2.4068  3.9373
   18MOL   H179 8033   4.511   3.222   2.960  0.0408 -0.3461 -0.7801
   18MOL   H180 8034   4.475   3.186   2.705  1.5259  1.9095 -3.2375
   18MOL   H181 8035   4.556   3.335   2.749  0.0434 -0.6272  1.2619
   18MOL   H182 8036   4.223   3.568   2.649  0.3590  0.1900 -0.0489
   18MOL   H183 8037   4.080   3.717   2.550 -2.5257 -1.1660 -0.1013
   18MOL   H184 8038   4.021   3.420   2.229 -0.6815  0.4103 -0.9762
   18MOL   H185 8039   4.163   3.276   2.333  3.9967  0.8103 -0.9537
   18MOL   O186 8040   3.843   3.730   2.083 -0.0036  0.3318  0.1064
   18MOL   C187 8041   3.936   3.810   2.008 -0.1494 -0.7918  0.5669
   18MOL   C188 8042   3.958   3.745   1.866 -0.6045  0.5219  0.7049
   18MOL   O189 8043   4.039   3.628   1.878  0.0171  0.0723 -0.0721
   18MOL   C190 8044   4.009   3.521   1.805 -1.0379  0.1767 -0.1327
   18MOL   O191 8045   3.920   3.505   1.720  0.1588  0.1158 -0.2824
   18MOL   C192 8046   4.105   3.405   1.841 -0.3086 -0.8545  0.0012
   18MOL   C193 8047   4.139   3.304   1.746  0.4503  0.4108  0.0643
   18MOL   C194 8048   4.233   3.197   1.780 -0.1928 -0.3117  0.1242
   18MOL   C195 8049   4.304   3.203   1.901  0.3996  0.3852 -0.6494
   18MOL   C196 8050   4.417   3.116   1.935  0.7416 -0.1113  0.4372
   18MOL   O197 8051   4.479   3.121   2.042 -0.1088 -0.0714  0.0510
   18MOL   O198 8052   4.441   3.024   1.841  0.0868 -0.3717 -0.1676
   18MOL   C199 8053   4.269   3.306   1.997  0.3560 -0.1379  0.0465
   18MOL   C200 8054   4.174   3.404   1.964  0.3953 -0.0256  0.4754
   18MOL   H201 8055   3.875   3.900   2.001  1.7398  0.5961  1.5777
   18MOL   H202 8056   4.026   3.855   2.048 -0.6579  1.2075 -0.4713
   18MOL   H203 8057   3.988   3.815   1.789  0.5480  1.0029  1.5846
   18MOL   H204 8058   3.857   3.719   1.835 -0.2754 -0.1672  0.2018
   18MOL   H205 8059   4.087   3.304   1.652  0.3020  1.0000  0.1398
   18MOL   H206 8060   4.253   3.122   1.706 -0.8030 -0.3823  0.0308
   18MOL   H207 8061   4.320   3.321   2.091  1.5115  1.5187 -0.8237
   18MOL   H208 8062   4.165   3.489   2.031 -1.8081 -0.4263  0.7168
   18MOL   O209 8063   4.569   2.943   1.859  0.0429  0.4667 -0.2051
   18MOL   C210 8064   4.675   3.022   1.803 -0.0594 -0.4741  0.0072
   18MOL   C211 8065   4.655   3.068   1.661 -0.3912 -0.3759 -0.1031
   18MOL   O212 8066   4.586   3.188   1.653 -0.3696 -0.0641 -0.5159
   18MOL   C213 8067   4.495   3.213   1.558 -0.1114  0.8734 -0.1931
   18MOL   O214 8068   4.468   3.132   1.468 -0.1135 -0.4671 -0.2775
   18MOL   C215 8069   4.439   3.353   1.561  0.4683 -0.5342 -0.3101
   18MOL   C216 8070   4.466   3.441   1.670  0.6619  1.2315  0.0519
   18MOL   C217 8071   4.426   3.572   1.651 -0.5487  0.4522 -0.0181
   18MOL   C218 8072   4.339   3.609   1.547 -0.2607 -0.6119  0.8170
   18MOL   C219 8073   4.299   3.751   1.538 -0.1039 -0.3035 -0.1499
   18MOL   O220 8074   4.331   3.843   1.614  0.0534  0.3188 -0.3640
   18MOL   O221 8075   4.209   3.773   1.433 -0.0906 -0.0331 -0.1207
   18MOL   C222 8076   4.303   3.513   1.451 -0.1673 -0.3323  0.8392
   18MOL   C223 8077   4.355   3.388   1.456 -0.8938 -0.4228  0.7185
   18MOL   H224 8078   4.698   3.110   1.863  1.7505 -1.5721  0.9751
   18MOL   H225 8079   4.763   2.958   1.807 -1.4646 -2.4875 -0.3708
   18MOL   H226 8080   4.600   2.995   1.601 -0.2853 -1.6224  1.3110
   18MOL   H227 8081   4.757   3.077   1.623  1.1816 -2.7677  3.2996
   18MOL   H228 8082   4.538   3.413   1.746 -1.6601 -1.9401  1.1880
   18MOL   H229 8083   4.462   3.644   1.724 -0.2474  0.8001 -0.5081
   18MOL   H230 8084   4.229   3.526   1.373  0.2673 -1.9050  0.1394
   18MOL   H231 8085   4.330   3.317   1.378  2.6884 -0.6340 -0.3280
   18MOL   O232 8086   4.179   3.915   1.407  0.3295  0.4714  0.6179
   18MOL   C233 8087   4.219   3.938   1.278 -0.1781 -0.4464 -0.0679
   18MOL   C234 8088   4.371   3.943   1.259  0.6287  0.2409 -0.3737
   18MOL   O235 8089   4.426   3.815   1.235  0.5340 -0.5849 -0.4683
   18MOL   C236 8090   4.400   3.754   1.122  0.9013  1.0618 -0.5847
   18MOL   O237 8091   4.349   3.806   1.022 -0.3108  0.0129 -0.0740
   18MOL   C238 8092   4.445   3.613   1.118  0.6463 -0.3219  0.0712
   18MOL   C239 8093   4.522   3.562   1.230  0.3018  0.0737 -0.0476
   18MOL   C240 8094   4.588   3.438   1.219 -0.0624  0.6343  0.4978
   18MOL   C241 8095   4.579   3.358   1.106 -0.4915 -0.6360  0.2992
   18MOL   C242 8096   4.637   3.222   1.086 -0.0168  0.1273 -0.3456
   18MOL   O243 8097   4.610   3.147   0.993  0.5842 -0.2602  0.0154
   18MOL   O244 8098   4.718   3.195   1.194  0.2878  0.6337  0.0288
   18MOL   C245 8099   4.509   3.410   0.994  0.4554 -1.0512 -0.2630
   18MOL   C246 8100   4.442   3.536   1.000  0.1032 -0.3704 -0.0593
   18MOL   H247 8101   4.163   3.898   1.193 -2.4481  3.6501 -0.6257
   18MOL   H248 8102   4.196   4.044   1.272  0.5013 -0.3512 -1.1433
   18MOL   H249 8103   4.421   3.995   1.340 -0.2958  0.7521 -0.1169
   18MOL   H250 8104   4.404   4.001   1.173  1.2474 -0.3978 -0.5710
   18MOL   H251 8105   4.530   3.614   1.324 -2.1632  0.4543 -0.0322
   18MOL   H252 8106   4.644   3.390   1.298 -1.0650 -1.2677  0.0925
   18MOL   H253 8107   4.497   3.362   0.898 -1.5603 -0.6685 -0.2258
   18MOL   H254 8108   4.388   3.577   0.916 -2.3151  1.3291  2.2477
   18MOL   O255 8109   4.774   3.057   1.188  0.4326 -0.0791 -0.5823
   18MOL   C256 8110   4.697   2.985   1.281 -0.4329 -0.1362  0.1540
   18MOL   C257 8111   4.739   2.831   1.292  0.1977 -0.6085  1.4781
   18MOL   O258 8112   4.662   2.748   1.372 -0.5614 -0.1323  0.0677
   18MOL   C259 8113   4.703   2.730   1.496 -0.3041  0.4849 -0.4981
   18MOL   O260 8114   4.789   2.788   1.555  0.4664 -0.4620 -0.1260
   18MOL   C261 8115   4.615   2.637   1.568  0.5738 -0.2684 -0.8721
   18MOL   C262 8116   4.612   2.624   1.710  0.4480 -0.6067 -0.4372
   18MOL   C263 8117   4.511   2.547   1.773 -0.6947 -0.1006  0.2803
   18MOL   C264 8118   4.408   2.478   1.704 -0.8533  0.3048  0.1057
   18MOL   C265 8119   4.305   2.402   1.776 -0.4513  1.2484  0.3448
   18MOL   O266 8120   4.314   2.368   1.891 -0.2413  0.0581  0.1329
   18MOL   O267 8121   4.205   2.366   1.700 -0.2600 -0.1925 -0.7960
   18MOL   C268 8122   4.418   2.483   1.564  0.6818  0.0913 -0.2448
   18MOL   C269 8123   4.518   2.557   1.498 -0.3086  0.2554 -0.1063
   18MOL   H270 8124   4.721   3.033   1.376 -0.1968  0.7287 -0.3343
   18MOL   H271 8125   4.592   3.001   1.257 -0.8261  0.5998  2.2669
   18MOL   H272 8126   4.844   2.820   1.321  1.3429  0.9970 -1.8035
   18MOL   H273 8127   4.717   2.793   1.192 -1.8039  3.0035  0.4411
   18MOL   H274 8128   4.676   2.684   1.772 -0.4991  0.8388 -0.8278
   18MOL   H275 8129   4.511   2.542   1.881  0.5568  0.5934  0.3241
   18MOL   H276 8130   4.345   2.436   1.500  0.0937  0.4735  0.1385
   18MOL   H277 8131   4.511   2.569   1.391  0.0935  0.9058 -0.0607
   18MOL   O278 8132   4.086   2.311   1.778 -0.3503  0.2637  0.6503
   18MOL   C279 8133   4.081   2.172   1.758 -0.1233 -0.4679  0.7170
   18MOL   C280 8134   3.989   2.129   1.644 -0.3221  0.0668 -0.0562
   18MOL   O281 8135   4.041   2.177   1.525 -0.3071  0.0027 -0.3133
   18MOL   C282 8136   4.128   2.108   1.446 -0.0687 -0.1567 -0.7768
   18MOL   O283 8137   4.168   1.992   1.476 -0.6422 -0.0741  0.4435
   18MOL   C284 8138   4.172   2.191   1.329 -0.2256  0.5554  0.2854
   18MOL   C285 8139   4.231   2.134   1.215 -0.5186 -0.4828 -0.0266
   18MOL   C286 8140   4.301   2.200   1.109 -0.2026  0.5678  0.1511
   18MOL   C287 8141   4.309   2.339   1.118 -1.0306 -0.0847 -0.0100
   18MOL   C288 8142   4.394   2.420   1.027 -0.1231  0.6911  0.2504
   18MOL   O289 8143   4.476   2.378   0.946  0.0125 -0.0195  0.0192
   18MOL   O290 8144   4.362   2.560   1.030  0.1979 -0.4794 -0.4809
   18MOL   C291 8145   4.233   2.402   1.223  0.4342 -0.4282  0.1704
   18MOL   C292 8146   4.163   2.329   1.321  0.4870  0.6604  0.3714
   18MOL   H293 8147   4.181   2.138   1.731 -1.0192 -0.9845 -2.0909
   18MOL   H294 8148   4.054   2.128   1.854  0.9560  0.4752  1.4770
   18MOL   H295 8149   3.885   2.156   1.663 -0.2459  0.8562 -0.7519
   18MOL   H296 8150   3.983   2.020   1.644 -2.1244  0.1483  0.6181
   18MOL   H297 8151   4.220   2.027   1.208 -0.4595 -0.3820 -2.1261
   18MOL   H298 8152   4.339   2.154   1.019  0.6646 -0.1973  0.8922
   18MOL   H299 8153   4.236   2.508   1.240  0.2202 -0.6610  1.7609
   18MOL   H300 8154   4.104   2.385   1.392  1.2942  1.0463  0.7477
   18MOL   O301 8155   4.427   2.648   0.919 -0.3964 -0.6160 -0.8864
   18MOL   C302 8156   4.532   2.714   0.984  0.0995 -0.3404 -0.0311
   18MOL   C303 8157   4.479   2.851   1.032 -0.1438  0.1647 -0.1940
   18MOL   O304 8158   4.415   2.853   1.160 -0.1024  0.0965 -0.9919
   18MOL   C305 8159   4.278   2.834   1.171  0.2313  0.2241 -0.0817
   18MOL   O306 8160   4.197   2.844   1.080  0.0107 -0.2055  0.6978
   18MOL   C307 8161   4.235   2.802   1.307  0.3249  0.4245 -0.5932
   18MOL   C308 8162   4.109   2.739   1.325 -0.4723 -0.2318  0.2005
   18MOL   C309 8163   4.080   2.690   1.459  0.3323 -0.5733  0.0376
   18MOL   C310 8164   4.163   2.723   1.566 -0.7431 -0.3386  0.0815
   18MOL   C311 8165   4.139   2.684   1.709  0.3695  0.5495  0.1695
   18MOL   O312 8166   4.209   2.717   1.806  0.2415  0.3599  0.2664
   18MOL   O313 8167   4.016   2.633   1.720 -0.7891  0.0318  0.2823
   18MOL   C314 8168   4.277   2.805   1.543 -0.0764 -0.0743 -0.4794
   18MOL   C315 8169   4.316   2.839   1.417 -0.1688 -0.0976 -0.1492
   18MOL   H316 8170   4.588   2.665   1.064 -0.6399 -0.4482  0.4332
   18MOL   H317 8171   4.611   2.732   0.912 -0.3577  0.3865 -0.3623
   18MOL   H318 8172   4.421   2.904   0.957 -1.1805 -1.0519 -0.2629
   18MOL   H319 8173   4.567   2.915   1.044 -0.2122  0.1618  0.3293
   18MOL   H320 8174   4.058   2.710   1.235 -0.2927 -0.7202  0.2552
   18MOL   H321 8175   3.992   2.629   1.474  0.8584 -1.3019  0.1876
   18MOL   H322 8176   4.334   2.835   1.630 -1.8642 -1.5999  1.2472
   18MOL   H323 8177   4.406   2.895   1.394 -0.2246  0.2333  0.4535
   18MOL   O324 8178   3.969   2.593   1.857 -0.5223 -0.1711  0.0689
   18MOL   C325 8179   3.905   2.700   1.923  0.4344 -0.0303 -1.3484
   18MOL   C326 8180   3.778   2.752   1.850  0.3458 -0.4030  0.1594
   18MOL   O327 8181   3.824   2.841   1.750  0.3822  0.8540  0.1952
   18MOL   C328 8182   3.742   2.891   1.655  0.3748 -0.9310  0.2969
   18MOL   O329 8183   3.613   2.868   1.652  0.2577  0.1323 -0.0282
   18MOL   C330 8184   3.810   2.974   1.548  0.5561  0.7166 -0.6766
   18MOL   C331 8185   3.944   2.997   1.557 -0.5734  0.3698 -0.1877
   18MOL   C332 8186   4.003   3.069   1.454  0.0196 -0.4960  0.8260
   18MOL   C333 8187   3.938   3.097   1.336  0.4509 -0.1066  0.0891
   18MOL   C334 8188   4.010   3.172   1.235  0.0276  0.1585  0.0557
   18MOL   O335 8189   4.123   3.229   1.253 -0.2444  0.1082  0.4420
   18MOL   O336 8190   3.950   3.192   1.110  0.6658 -0.0099 -0.6582
   18MOL   C337 8191   3.802   3.062   1.320 -0.0354 -0.5671 -0.0479
   18MOL   C338 8192   3.733   3.007   1.434 -0.1183 -0.2480  0.4618
   18MOL   H339 8193   3.868   2.652   2.014  1.5891 -1.1106 -1.4381
   18MOL   H340 8194   3.980   2.775   1.946 -0.9709  0.5012  1.7499
   18MOL   H341 8195   3.719   2.814   1.918 -1.0282  0.7558 -2.0402
   18MOL   H342 8196   3.719   2.678   1.797 -1.6884 -0.0316  1.8350
   18MOL   H343 8197   3.996   2.975   1.648 -1.3658 -0.5211  0.0540
   18MOL   H344 8198   4.103   3.107   1.467  0.2874 -0.6844 -0.5883
   18MOL   H345 8199   3.747   3.105   1.237  1.3491  1.8158  0.2254
   18MOL   H346 8200   3.626   2.995   1.434 -0.1264 -0.2680 -0.9436
   18MOL   O347 8201   4.043   3.268   1.012 -0.4688  0.1770 -0.3146
   18MOL   C348 8202   4.108   3.174   0.928 -0.0940 -0.0741  0.0308
   18MOL   C349 8203   4.246   3.215   0.867 -1.0512 -1.4772 -0.7712
   18MOL   O350 8204   4.299   3.113   0.789  0.8420  0.5286  0.7398
   18MOL   C351 8205   4.372   3.139   0.680 -0.1510  0.4960  0.1239
   18MOL   O352 8206   4.376   3.252   0.630 -0.2401  0.0937 -0.4214
   18MOL   C353 8207   4.430   3.018   0.619 -0.8164 -0.0676  0.3236
   18MOL   C354 8208   4.424   2.889   0.688 -0.1734 -0.2607 -0.0040
   18MOL   C355 8209   4.491   2.779   0.637 -0.5846  0.4808 -0.0640
   18MOL   C356 8210   4.550   2.789   0.510  0.0457  0.4914  0.2501
   18MOL   C357 8211   4.613   2.673   0.448  0.7032  0.0266  0.5157
   18MOL   O358 8212   4.616   2.564   0.506 -0.5330  0.8058 -0.1727
   18MOL   O359 8213   4.668   2.692   0.325 -0.8210 -0.0847 -0.4606
   18MOL   C360 8214   4.547   2.914   0.440 -0.0908  0.2144  0.2984
   18MOL   C361 8215   4.489   3.031   0.490  0.4565  0.3184 -0.4562
   18MOL   H362 8216   4.115   3.073   0.969  0.9963 -1.0626 -2.4795
   18MOL   H363 8217   4.041   3.170   0.842 -0.7995  0.9812  0.5172
   18MOL   H364 8218   4.316   3.232   0.948 -0.7305 -0.0154 -1.3291
   18MOL   H365 8219   4.231   3.311   0.817  2.4751 -1.6688 -2.2931
   18MOL   H366 8220   4.363   2.883   0.776  0.9223 -0.4754  0.7474
   18MOL   H367 8221   4.493   2.684   0.688  2.2100  0.6901  0.3181
   18MOL   H368 8222   4.612   2.920   0.354 -0.6908  0.4078 -0.1447
   18MOL   H369 8223   4.495   3.126   0.439 -0.6113  0.1442 -0.9166
   18MOL   O370 8224   4.742   2.574   0.268 -0.2588 -0.0508  0.3273
   18MOL   C371 8225   4.660   2.503   0.186  1.2266  0.2252  0.4347
   18MOL   C372 8226   4.726   2.361   0.160  0.1604  0.7512 -0.5764
   18MOL   O373 8227   4.681   2.298   0.042 -0.3845 -0.2094  0.0040
   18MOL   C374 8228   4.705   2.341   8.199  0.2217  0.0728 -0.6171
   18MOL   O375 8229   4.755   2.451   8.173 -0.0462  0.3240 -0.0873
   18MOL   C376 8230   4.665   2.238   8.090  0.3556 -0.3353 -0.7907
   18MOL   C377 8231   4.630   2.106   8.125 -0.0894  0.0221  0.5528
   18MOL   C378 8232   4.588   2.019   8.026  0.4815  0.5497 -0.2344
   18MOL   C379 8233   4.582   2.056   7.893 -0.0349  0.3332  0.2308
   18MOL   C380 8234   4.539   1.955   7.791 -0.0291  0.1314 -0.0774
   18MOL   O381 8235   4.508   1.840   7.817 -0.1710 -0.4191  0.8274
   18MOL   O382 8236   4.532   2.011   7.668  0.0006  0.2188  0.2404
   18MOL   C383 8237   4.612   2.189   7.857 -0.6119  0.3270  0.2045
   18MOL   C384 8238   4.656   2.280   7.956 -0.0841 -0.6165  0.1055
   18MOL   H385 8239   4.566   2.483   0.236  0.8303 -1.6665 -1.0209
   18MOL   H386 8240   4.628   2.565   0.102  1.3055 -0.3995 -0.0556
   18MOL   H387 8241   4.703   2.309   0.253 -1.9431  0.3043 -1.3202
   18MOL   H388 8242   4.834   2.368   0.154  0.3914 -0.0183  2.1119
   18MOL   H389 8243   4.623   2.078   8.228 -1.0474  0.6201  0.6518
   18MOL   H390 8244   4.565   1.920   8.062  2.6293  0.1767  0.2121
   18MOL   H391 8245   4.614   2.231   7.758  0.6952  0.3258  0.2200
   18MOL   H392 8246   4.689   2.378   7.924 -3.1837  0.4748  0.0757
   18MOL   O393 8247   4.497   1.903   7.576  1.0182  0.4217  0.5360
   18MOL   C394 8248   4.592   1.885   7.476 -1.3013  0.2804  0.4061
   18MOL   C395 8249   4.733   1.832   7.537  0.6832  0.8248  0.0319
   18MOL   O396 8250   4.809   1.948   7.584 -0.1509 -0.2687 -0.0218
   18MOL   C397 8251   4.911   1.928   7.665  0.7012  0.0358 -0.1895
   18MOL   O398 8252   4.950   1.818   7.694 -0.1549 -0.3239 -0.0152
   18MOL   C399 8253   4.976   2.054   7.712  0.2571 -0.1420  0.9098
   18MOL   C400 8254   4.945   2.180   7.656  0.0176 -0.0561 -0.3728
   18MOL   C401 8255   5.008   2.298   7.703  0.2803  0.2487 -0.3229
   18MOL   C402 8256   5.108   2.298   7.798 -0.5071  0.5005  0.0181
   18MOL   C403 8257   5.167   2.423   7.849 -0.3786 -0.2965  0.8145
   18MOL   O404 8258   5.131   2.533   7.805  0.5653  0.0382 -0.1949
   18MOL   O405 8259   5.267   2.403   7.933  0.5016  0.0607 -0.0114
   18MOL   C406 8260   5.147   2.172   7.847  0.5312  0.0950  1.3311
   18MOL   C407 8261   5.084   2.052   7.806 -0.0080  0.3012 -0.3392
   18MOL   H408 8262   4.553   1.804   7.414 -0.0216 -0.8714  1.0658
   18MOL   H409 8263   4.603   1.971   7.410 -0.1899  0.0082  0.2369
   18MOL   H410 8264   4.794   1.774   7.469  0.3639  1.0771 -0.4771
   18MOL   H411 8265   4.708   1.758   7.612  0.2816  1.7008  0.7764
   18MOL   H412 8266   4.867   2.190   7.582  2.0245 -2.5086 -2.9457
   18MOL   H413 8267   4.976   2.394   7.667 -0.1093  1.1979  2.4524
   18MOL   H414 8268   5.233   2.162   7.912  1.9191 -1.1956 -0.6679
   18MOL   H415 8269   5.116   1.958   7.848  1.4050  1.7820  1.9928
   18MOL   O416 8270   5.311   2.536   7.994  0.0445 -0.4855 -0.1690
   18MOL   C417 8271   5.416   2.595   7.919 -0.6433 -0.3512  0.0558
   18MOL   C418 8272   5.401   2.745   7.941  0.7206 -0.3402  0.4104
   18MOL   O419 8273   5.489   2.775   8.051  0.4023  0.4344 -0.0972
   18MOL   C420 8274   5.602   2.846   8.035 -0.6526 -0.0358 -0.0605
   18MOL   O421 8275   5.631   2.909   7.934 -0.3636 -0.2230  0.4580
   18MOL   C422 8276   5.688   2.844   8.154  0.5944 -0.4874 -0.4751
   18MOL   C423 8277   5.652   2.771   8.269  0.4748  0.1357 -0.6432
   18MOL   C424 8278   5.719   2.788   0.117 -0.6503 -0.2932  0.2031
   18MOL   C425 8279   5.824   2.883   0.120  0.8955 -0.3565 -0.1483
   18MOL   C426 8280   5.895   2.900   0.248  0.2024 -0.2348 -0.6492
   18MOL   O427 8281   5.881   2.824   0.345  0.1618 -0.1944 -0.1118
   18MOL   O428 8282   5.988   2.993   0.244  0.2159  0.3322 -0.4523
   18MOL   C429 8283   5.851   2.961   0.008  0.0312 -0.0362  0.8303
   18MOL   C430 8284   5.789   2.944   8.157 -0.2487  0.5642 -0.5958
   18MOL   H431 8285   5.519   2.564   7.938 -1.0121 -2.2138 -0.8220
   18MOL   H432 8286   5.399   2.564   7.815  3.4349  0.5094 -0.9698
   18MOL   H433 8287   5.296   2.772   7.955  1.0154  1.3508 -0.4845
   18MOL   H434 8288   5.435   2.797   7.851 -2.1085  0.6290 -0.1372
   18MOL   H435 8289   5.575   2.698   8.250  1.5769 -1.4755  0.8714
   18MOL   H436 8290   5.673   2.738   0.201 -2.0309  0.3630 -0.1538
   18MOL   H437 8291   5.927   3.038   0.003 -0.5857  0.4523 -3.5125
   18MOL   H438 8292   5.822   3.015   8.082 -2.1769  2.1606  0.0333
   18MOL   O439 8293   6.096   2.967   0.350  0.4919  0.5793  0.4226
   18MOL   C440 8294   6.223   2.948   0.283  0.3873 -0.3402  0.0933
   18MOL   C441 8295   6.314   2.893   0.397  0.6142 -0.3424  0.2291
   18MOL   O442 8296   6.289   2.752   0.406  0.0812 -0.1116 -0.7960
   18MOL   C443 8297   6.256   2.690   0.518 -1.3289  0.4579  0.2777
   18MOL   O444 8298   6.240   2.743   0.630 -0.0552  0.0731 -0.1057
   18MOL   C445 8299   6.231   2.546   0.494  0.2742  0.2231  0.3901
   18MOL   C446 8300   6.159   2.465   0.589  0.0837  0.2207  0.4753
   18MOL   C447 8301   6.133   2.332   0.549 -0.0885  0.7063  0.5078
   18MOL   C448 8302   6.169   2.277   0.430 -0.4088 -0.1248  0.4583
   18MOL   C449 8303   6.112   2.142   0.397  0.2128 -0.6762 -0.2316
   18MOL   O450 8304   6.081   2.061   0.481  0.0451  0.3552 -0.2612
   18MOL   O451 8305   6.091   2.125   0.267 -0.1386 -0.3471  0.3780
   18MOL   C452 8306   6.251   2.350   0.339  0.7430  0.3597  0.1086
   18MOL   C453 8307   6.279   2.482   0.372 -0.5476 -0.9376 -0.1922
   18MOL   H454 8308   6.217   2.883   0.195  1.7994 -0.6726  0.2286
   18MOL   H455 8309   6.261   3.046   0.254  1.1971 -0.5634  0.3705
   18MOL   H456 8310   6.305   2.941   0.494 -1.3518  0.8896 -0.5442
   18MOL   H457 8311   6.412   2.921   0.356 -0.0265 -0.4396 -1.4261
   18MOL   H458 8312   6.110   2.504   0.677 -1.0372 -0.9858  0.3975
   18MOL   H459 8313   6.075   2.267   0.612 -0.7127 -0.1205 -0.8855
   18MOL   H460 8314   6.279   2.319   0.240  0.8364 -1.9030  0.8173
   18MOL   H461 8315   6.328   2.530   0.288 -0.5935  0.1967  0.4229
   18MOL   H462 8316   6.048   2.042   0.256 -1.0939  0.4870 -2.7584
   19MOL     O1 8317   2.275   3.426   0.032 -0.1742 -0.4030  0.3767
   19MOL     C2 8318   2.171   3.475   0.114  0.1181 -0.7513  0.2499
   19MOL     C3 8319   2.120   3.356   0.199 -0.0462  0.2551  0.1073
   19MOL     O4 8320   2.204   3.322   0.311 -0.0108  0.1548 -0.2173
   19MOL     C5 8321   2.286   3.219   0.305 -0.4057 -0.0726 -0.1492
   19MOL     O6 8322   2.306   3.155   0.198  0.1119  0.1187  0.2458
   19MOL     C7 8323   2.368   3.196   0.429  0.6731  0.5573  0.5321
   19MOL     C8 8324   2.327   3.254   0.552 -0.1053 -0.5658 -0.4004
   19MOL     C9 8325   2.396   3.244   0.675  0.4579 -1.0234  0.1321
   19MOL    C10 8326   2.518   3.162   0.675  0.0107 -0.0606  0.1696
   19MOL    C11 8327   2.593   3.138   0.798 -0.8336 -0.3804  1.1354
   19MOL    O12 8328   2.674   3.052   0.820 -0.2082  0.0623  0.1582
   19MOL    O13 8329   2.570   3.237   0.889 -0.3311 -0.3139  0.9565
   19MOL    C14 8330   2.552   3.095   0.556 -0.5441 -0.0222  0.2339
   19MOL    C15 8331   2.480   3.110   0.436 -0.1387  0.5225 -0.3875
   19MOL    H16 8332   2.207   3.554   0.180  0.8820 -1.3622  0.5812
   19MOL    H17 8333   2.090   3.514   0.054 -1.3699 -1.2847  1.8807
   19MOL    H18 8334   2.099   3.269   0.138  1.4345  0.0247 -0.0952
   19MOL    H19 8335   2.021   3.373   0.242 -1.4055  0.1943 -2.8849
   19MOL    H20 8336   2.237   3.314   0.548 -0.8336 -1.4009  2.5591
   19MOL    H21 8337   2.368   3.295   0.766 -1.8889  1.3444 -1.8473
   19MOL    H22 8338   2.635   3.025   0.553 -1.0411 -0.5571 -1.6039
   19MOL    H23 8339   2.501   3.052   0.347  1.2060 -0.0165  0.2774
   19MOL    H24 8340   2.274   3.332   0.022 -0.8597 -0.3817  0.2264
   19MOL    O25 8341   2.659   3.243   1.002  0.2171  0.6632  0.3474
   19MOL    C26 8342   2.577   3.243   1.119 -0.2918  0.4573  0.0737
   19MOL    C27 8343   2.538   3.096   1.152 -0.1131 -0.1681 -0.5708
   19MOL    O28 8344   2.656   3.013   1.176 -0.4106  0.1477  0.4545
   19MOL    C29 8345   2.728   3.040   1.282 -0.7374 -0.1359  0.3335
   19MOL    O30 8346   2.685   3.116   1.366  0.2940  0.4179 -0.2651
   19MOL    C31 8347   2.855   2.955   1.311  0.6453 -0.1982  0.3762
   19MOL    C32 8348   2.917   2.880   1.211 -0.1907 -0.6970  0.4878
   19MOL    C33 8349   3.044   2.820   1.236  0.6583  0.1596 -0.1400
   19MOL    C34 8350   3.104   2.835   1.364  0.7050  1.1304 -0.5809
   19MOL    C35 8351   3.236   2.770   1.380 -0.4675 -0.0740 -0.4511
   19MOL    O36 8352   3.292   2.711   1.290  0.5316 -0.2162  0.1474
   19MOL    O37 8353   3.291   2.783   1.505  0.2635  0.3749 -0.0462
   19MOL    C38 8354   3.035   2.905   1.469  0.4993 -0.1167  0.3918
   19MOL    C39 8355   2.907   2.965   1.441 -0.4128  0.0168  0.0419
   19MOL    H40 8356   2.629   3.293   1.201  0.4015  0.8910 -0.6227
   19MOL    H41 8357   2.485   3.300   1.109  0.6439  1.8428 -0.9233
   19MOL    H42 8358   2.471   3.050   1.079  1.9693 -1.6115 -1.6173
   19MOL    H43 8359   2.477   3.105   1.242 -1.3456  1.4522 -1.5403
   19MOL    H44 8360   2.873   2.862   1.114  1.7173 -1.7995 -0.1953
   19MOL    H45 8361   3.089   2.769   1.153  0.0547  0.3445 -0.5866
   19MOL    H46 8362   3.090   2.906   1.562 -0.7828 -0.0282  1.1615
   19MOL    H47 8363   2.861   3.034   1.510  2.4326  2.4206 -0.3565
   19MOL    O48 8364   3.388   2.668   1.537  0.0705 -0.2672  0.2830
   19MOL    C49 8365   3.331   2.583   1.635 -0.0126 -0.3170 -0.4029
   19MOL    C50 8366   3.372   2.635   1.778 -0.1566  0.5431  0.0488
   19MOL    O51 8367   3.361   2.518   1.863 -0.2130  0.0689 -0.1045
   19MOL    C52 8368   3.467   2.477   1.943  0.0041 -0.8331 -0.9851
   19MOL    O53 8369   3.574   2.538   1.945 -0.7012 -0.0542  0.2008
   19MOL    C54 8370   3.443   2.360   2.024  0.1210  0.4416  0.4104
   19MOL    C55 8371   3.546   2.307   2.105  0.1824 -0.3793 -0.2821
   19MOL    C56 8372   3.520   2.204   2.191 -0.3343  0.6971 -0.3670
   19MOL    C57 8373   3.394   2.135   2.196  0.6330 -0.5387 -0.6961
   19MOL    C58 8374   3.387   2.020   2.288  0.7020 -0.4155  0.3017
   19MOL    O59 8375   3.483   1.977   2.352  0.2027  0.0815 -0.0045
   19MOL    O60 8376   3.260   1.956   2.303 -0.1312 -0.0568  0.3784
   19MOL    C61 8377   3.289   2.178   2.109 -0.3906  0.6732 -0.4812
   19MOL    C62 8378   3.310   2.292   2.031  0.0536  0.4369  0.3826
   19MOL    H63 8379   3.223   2.586   1.619 -0.0143  3.4024 -0.2598
   19MOL    H64 8380   3.358   2.482   1.605 -0.1353 -0.5562  0.2911
   19MOL    H65 8381   3.301   2.705   1.822 -1.2513  0.0300 -0.8843
   19MOL    H66 8382   3.469   2.685   1.781  0.9422 -1.5071 -0.6506
   19MOL    H67 8383   3.643   2.351   2.124 -0.8938  0.7725  2.6634
   19MOL    H68 8384   3.590   2.187   2.271  0.3416 -2.2952 -1.5185
   19MOL    H69 8385   3.196   2.127   2.092  0.7916 -0.2978 -4.5480
   19MOL    H70 8386   3.231   2.337   1.973 -2.0138 -0.7062  2.2508
   19MOL    O71 8387   3.254   1.846   2.405 -0.0689  0.2851 -0.2802
   19MOL    C72 8388   3.219   1.898   2.530 -0.0974  0.7963 -0.3543
   19MOL    C73 8389   3.080   1.969   2.534  0.7700 -0.1417  0.5814
   19MOL    O74 8390   2.975   1.877   2.565 -0.1165  0.1211 -1.2193
   19MOL    C75 8391   2.870   1.925   2.628  0.0456 -0.1114 -0.4350
   19MOL    O76 8392   2.873   2.026   2.698 -0.6915  0.2866  0.0285
   19MOL    C77 8393   2.747   1.835   2.612 -0.2360  0.2843  0.8847
   19MOL    C78 8394   2.736   1.744   2.506  0.3849  0.9837 -0.2694
   19MOL    C79 8395   2.623   1.662   2.492 -0.0929 -0.3025  0.3246
   19MOL    C80 8396   2.514   1.677   2.573 -0.3810  0.6591 -0.2416
   19MOL    C81 8397   2.389   1.606   2.542  0.3851  0.0036 -0.3841
   19MOL    O82 8398   2.377   1.543   2.436 -0.0542  0.3332 -0.4051
   19MOL    O83 8399   2.292   1.605   2.644 -0.4140 -0.1893 -0.2525
   19MOL    C84 8400   2.530   1.755   2.688  0.2764  0.7235  0.3518
   19MOL    C85 8401   2.647   1.831   2.711  0.3213 -0.3768 -0.1063
   19MOL    H86 8402   3.199   1.821   2.604  0.5135 -0.4547 -1.4794
   19MOL    H87 8403   3.299   1.963   2.567 -2.1843  1.9392  2.3223
   19MOL    H88 8404   3.058   2.018   2.439  1.6495 -0.7962  0.0310
   19MOL    H89 8405   3.082   2.046   2.611  0.3150 -0.4928  0.9472
   19MOL    H90 8406   2.810   1.729   2.429 -1.4738  0.0607 -1.9432
   19MOL    H91 8407   2.607   1.596   2.408 -2.3071 -0.1951  0.6169
   19MOL    H92 8408   2.456   1.764   2.766  0.4245 -2.3645  0.8950
   19MOL    H93 8409   2.655   1.891   2.801  2.5104 -1.7948  0.6914
   19MOL    O94 8410   2.155   1.556   2.604 -0.5655 -0.1608 -0.2235
   19MOL    C95 8411   2.081   1.671   2.560 -0.4145 -0.2788 -0.1051
   19MOL    C96 8412   1.958   1.626   2.473  0.8075  0.2355 -0.2280
   19MOL    O97 8413   1.862   1.568   2.557  0.0231  0.4899 -0.2428
   19MOL    C98 8414   1.732   1.579   2.520 -0.2725 -0.5939  0.1015
   19MOL    O99 8415   1.687   1.632   2.418  0.7588 -0.1165  0.0529
   19MOL   C100 8416   1.637   1.526   2.621  0.4774  0.6320  0.7391
   19MOL   C101 8417   1.672   1.432   2.719 -0.5342  0.4899  0.3553
   19MOL   C102 8418   1.572   1.379   2.801  0.0925 -0.0910  0.0929
   19MOL   C103 8419   1.438   1.423   2.797  0.4076  0.2936 -0.4973
   19MOL   C104 8420   1.341   1.362   2.892 -0.3850  0.6678 -0.7231
   19MOL   O105 8421   1.360   1.254   2.949  0.2630  0.2387 -0.2092
   19MOL   O106 8422   1.233   1.438   2.895  0.0476 -0.0495 -0.2251
   19MOL   C107 8423   1.403   1.523   2.698  0.6605  0.4942 -0.4763
   19MOL   C108 8424   1.502   1.573   2.617  0.1204 -0.1952 -0.0295
   19MOL   H109 8425   2.046   1.723   2.649  1.3387  3.3696 -1.4392
   19MOL   H110 8426   2.139   1.734   2.492 -0.9875 -0.4278 -0.7318
   19MOL   H111 8427   1.993   1.553   2.400  1.1947 -0.7494  0.9372
   19MOL   H112 8428   1.914   1.719   2.437 -0.7728 -0.1953  0.5596
   19MOL   H113 8429   1.772   1.390   2.722 -2.0222 -3.3405 -1.0031
   19MOL   H114 8430   1.598   1.303   2.873  0.9803 -1.0148 -1.1827
   19MOL   H115 8431   1.302   1.562   2.699  1.1308  1.7462 -0.5913
   19MOL   H116 8432   1.469   1.650   2.548  0.3951  0.1485  0.2224
   19MOL   O117 8433   1.126   1.384   2.987  0.5971 -0.1454  0.9173
   19MOL   C118 8434   1.147   1.444   3.121  0.1452 -0.4731 -0.0262
   19MOL   C119 8435   1.116   1.598   3.116  0.6711  0.8577  0.6177
   19MOL   O120 8436   1.239   1.669   3.096  0.5249  0.0335  0.0772
   19MOL   C121 8437   1.230   1.802   3.082 -0.5260  0.3205  0.5380
   19MOL   O122 8438   1.133   1.864   3.124  0.2719 -0.0892  0.3638
   19MOL   C123 8439   1.351   1.852   3.008  0.3182 -0.0570  0.7463
   19MOL   C124 8440   1.450   1.769   2.948 -0.6408 -0.0882  0.3387
   19MOL   C125 8441   1.555   1.826   2.872 -0.4596 -0.0776  0.2178
   19MOL   C126 8442   1.560   1.967   2.855 -0.5858 -0.5647  0.4757
   19MOL   C127 8443   1.665   2.033   2.773  0.4636  0.3624  0.0335
   19MOL   O128 8444   1.735   1.970   2.688 -0.2270 -0.8112 -0.3861
   19MOL   O129 8445   1.678   2.159   2.796  0.0796  0.2801  0.5534
   19MOL   C130 8446   1.467   2.050   2.925 -0.7955  0.6537  0.5834
   19MOL   C131 8447   1.365   1.992   2.996 -0.0544  0.7170 -0.4621
   19MOL   H132 8448   1.090   1.393   3.200 -0.3711  1.5180  0.9153
   19MOL   H133 8449   1.247   1.423   3.158  1.2083  1.0937 -1.9376
   19MOL   H134 8450   1.071   1.610   3.214 -0.6562 -0.6794  0.2247
   19MOL   H135 8451   1.042   1.610   3.036  0.6507  2.7465  0.9007
   19MOL   H136 8452   1.440   1.662   2.959 -2.2833  0.0334  0.1828
   19MOL   H137 8453   1.629   1.763   2.826 -0.7002  0.4245 -0.8550
   19MOL   H138 8454   1.473   2.158   2.913  0.3288  0.3877 -1.5792
   19MOL   H139 8455   1.304   2.058   3.056  0.2227  0.7838 -0.2526
   19MOL   O140 8456   1.805   2.221   2.732  0.2789 -0.1873 -0.9548
   19MOL   C141 8457   1.771   2.309   2.626  0.3676  0.4922  0.1016
   19MOL   C142 8458   1.900   2.341   2.546  0.7126 -0.2628 -0.1335
   19MOL   O143 8459   1.978   2.438   2.621  0.2676  0.1481  0.5731
   19MOL   C144 8460   2.086   2.397   2.690  0.4859  0.8277 -0.1465
   19MOL   O145 8461   2.157   2.307   2.649 -0.0016  0.5407 -0.0541
   19MOL   C146 8462   2.111   2.469   2.816 -0.3880  0.1725  0.4446
   19MOL   C147 8463   2.241   2.479   2.869 -0.3850 -0.0203 -0.8578
   19MOL   C148 8464   2.262   2.544   2.992 -0.1132  0.0287  0.3255
   19MOL   C149 8465   2.152   2.590   3.066  0.6666  0.5326 -0.3668
   19MOL   C150 8466   2.182   2.646   3.200  0.0768 -0.4212  0.1310
   19MOL   O151 8467   2.087   2.683   3.269 -0.4323  0.3431  0.4424
   19MOL   O152 8468   2.308   2.651   3.236 -0.7057  0.6079 -0.5078
   19MOL   C153 8469   2.021   2.591   3.013 -0.2224  0.2191  0.1188
   19MOL   C154 8470   2.003   2.521   2.892 -0.1727  1.0079 -0.6474
   19MOL   H155 8471   1.693   2.257   2.570 -0.7112  0.4462  1.6291
   19MOL   H156 8472   1.740   2.402   2.673 -0.4025 -0.2380  1.0433
   19MOL   H157 8473   1.876   2.388   2.451 -0.9778 -0.9774 -0.0804
   19MOL   H158 8474   1.943   2.242   2.530  2.0453  0.2455  0.2797
   19MOL   H159 8475   2.325   2.442   2.812 -0.1425  1.3865 -1.4259
   19MOL   H160 8476   2.361   2.547   3.035 -0.6270  1.1654  1.4490
   19MOL   H161 8477   1.947   2.630   3.081  0.9442  1.7187  0.5621
   19MOL   H162 8478   1.905   2.501   2.851  0.3490 -0.0750 -1.3820
   19MOL   O163 8479   2.335   2.710   3.373  0.7579 -0.4182  0.0494
   19MOL   C164 8480   2.402   2.834   3.347  0.0344  1.0070 -0.2804
   19MOL   C165 8481   2.332   2.931   3.445  0.7628 -0.1675 -0.2085
   19MOL   O166 8482   2.204   2.965   3.396 -0.2023 -0.4107 -0.1444
   19MOL   C167 8483   2.174   3.090   3.364 -0.0169 -0.1073 -0.8397
   19MOL   O168 8484   2.252   3.185   3.383 -0.5834 -0.9801 -0.1291
   19MOL   C169 8485   2.032   3.102   3.311  0.2813  0.3066  0.0769
   19MOL   C170 8486   1.982   3.230   3.277  0.3068  0.4245 -0.1012
   19MOL   C171 8487   1.852   3.255   3.224  0.1948 -0.7026 -0.0207
   19MOL   C172 8488   1.769   3.146   3.203  0.6422  0.4289 -0.2185
   19MOL   C173 8489   1.631   3.162   3.152  0.8049 -0.4868  0.8283
   19MOL   O174 8490   1.576   3.267   3.125 -0.0605  0.3226 -0.0019
   19MOL   O175 8491   1.552   3.051   3.150 -0.0373 -0.5614 -0.6717
   19MOL   C176 8492   1.817   3.014   3.220 -0.1926 -0.6760  0.4328
   19MOL   C177 8493   1.942   2.995   3.275  0.2969  0.6567  0.6590
   19MOL   H178 8494   2.509   2.827   3.363  0.1665 -2.0373 -2.1256
   19MOL   H179 8495   2.384   2.865   3.244  3.1963 -0.4668 -1.3382
   19MOL   H180 8496   2.398   3.017   3.457 -2.0342  1.8360  1.2154
   19MOL   H181 8497   2.321   2.881   3.541 -0.3413  0.6474  0.0868
   19MOL   H182 8498   2.052   3.313   3.273  1.8925 -0.7693  1.6513
   19MOL   H183 8499   1.824   3.353   3.189  1.0711 -0.1598  0.7520
   19MOL   H184 8500   1.752   2.929   3.210  0.1439 -1.0742  1.6451
   19MOL   H185 8501   1.980   2.896   3.294 -1.7790  0.1762  2.7013
   19MOL   O186 8502   1.392   3.066   3.166  0.5030 -0.3281 -0.4190
   19MOL   C187 8503   1.331   3.077   3.036 -0.1705 -0.0103 -0.4959
   19MOL   C188 8504   1.175   3.077   3.062 -0.7507  0.0893  0.0543
   19MOL   O189 8505   1.103   2.963   3.007 -0.7964 -0.1583 -0.0959
   19MOL   C190 8506   1.078   2.857   3.082 -0.0464  0.0929  0.3046
   19MOL   O191 8507   1.141   2.830   3.190 -0.2295 -0.0889  0.3172
   19MOL   C192 8508   0.985   2.755   3.022  0.0906 -0.1853  0.3161
   19MOL   C193 8509   0.947   2.643   3.097 -0.1706  0.8124  0.4600
   19MOL   C194 8510   0.873   2.538   3.035 -0.2793  0.6545 -0.0968
   19MOL   C195 8511   0.832   2.549   2.903  1.2114  0.4200  0.7757
   19MOL   C196 8512   0.753   2.441   2.838 -0.3689 -0.4184 -0.2076
   19MOL   O197 8513   0.675   2.453   2.745 -0.2432  0.5924  0.3954
   19MOL   O198 8514   0.782   2.318   2.886 -0.3010  0.2087 -0.6234
   19MOL   C199 8515   0.868   2.661   2.829  0.3314 -0.1773 -0.0071
   19MOL   C200 8516   0.954   2.759   2.887  0.0766 -0.5216  0.4328
   19MOL   H201 8517   1.383   3.158   2.984  3.1695 -1.4263  0.5206
   19MOL   H202 8518   1.356   2.985   2.983 -1.4098 -0.5690 -0.1225
   19MOL   H203 8519   1.131   3.169   3.025  0.3887  0.3131 -0.7818
   19MOL   H204 8520   1.153   3.085   3.169  1.2367  1.6323  0.3926
   19MOL   H205 8521   0.969   2.643   3.203 -1.6366 -0.0723  0.7744
   19MOL   H206 8522   0.836   2.456   3.094 -0.1626 -1.4391 -2.8436
   19MOL   H207 8523   0.861   2.665   2.722 -0.8651  2.2564  0.1459
   19MOL   H208 8524   0.994   2.837   2.824 -2.6484 -0.1937 -0.9483
   19MOL   O209 8525   0.727   2.212   2.805  0.0202  0.6016 -0.1346
   19MOL   C210 8526   0.818   2.163   2.713 -0.1590  0.5638  0.1419
   19MOL   C211 8527   0.939   2.094   2.779  0.0849 -0.2208 -0.1209
   19MOL   O212 8528   1.027   2.194   2.820 -0.2718 -0.1547 -0.2776
   19MOL   C213 8529   1.111   2.257   2.727  0.5244  0.6451 -0.8699
   19MOL   O214 8530   1.094   2.254   2.603  0.2820  0.0772 -0.4728
   19MOL   C215 8531   1.226   2.330   2.799 -0.4239 -0.4954  0.3582
   19MOL   C216 8532   1.232   2.332   2.941 -0.3120 -0.3667  0.3347
   19MOL   C217 8533   1.342   2.396   3.004  0.1952 -0.3836  0.2314
   19MOL   C218 8534   1.448   2.448   2.933  0.3101 -0.4736 -0.2494
   19MOL   C219 8535   1.571   2.493   2.989  0.1562 -0.4240  0.1464
   19MOL   O220 8536   1.677   2.502   2.925  0.3561 -0.1858 -0.2587
   19MOL   O221 8537   1.563   2.516   3.128 -0.4875  0.0332  0.1254
   19MOL   C222 8538   1.440   2.455   2.791  0.5255  0.1035 -0.2280
   19MOL   C223 8539   1.327   2.406   2.727 -0.1117  0.5392  0.9983
   19MOL   H224 8540   0.769   2.079   2.664 -1.1097  0.7687  0.7264
   19MOL   H225 8541   0.835   2.239   2.637  1.2169  2.2483  2.0820
   19MOL   H226 8542   0.992   2.028   2.710  0.1495 -2.5496  2.1186
   19MOL   H227 8543   0.904   2.032   2.861 -1.0320  0.0131 -0.4016
   19MOL   H228 8544   1.159   2.277   2.998 -1.0606  0.7056  0.4239
   19MOL   H229 8545   1.350   2.389   3.111  2.0773 -1.1341  0.0588
   19MOL   H230 8546   1.523   2.499   2.739  0.2744  2.9504  1.6693
   19MOL   H231 8547   1.326   2.418   2.619 -2.1749  0.2443  0.9685
   19MOL   O232 8548   1.701   2.532   3.190  0.0280 -0.0011  0.3530
   19MOL   C233 8549   1.721   2.432   3.296  0.1475  0.0091  0.1159
   19MOL   C234 8550   1.675   2.286   3.254 -0.6263  0.4328  0.2107
   19MOL   O235 8551   1.775   2.239   3.164 -0.0859 -0.2003 -0.1610
   19MOL   C236 8552   1.788   2.119   3.133 -0.1461 -0.0471 -0.4087
   19MOL   O237 8553   1.707   2.033   3.172 -0.0158  0.0304  0.3220
   19MOL   C238 8554   1.908   2.092   3.053  0.1118  0.3629  0.6379
   19MOL   C239 8555   1.924   1.969   2.986  0.0262 -0.1412 -0.3178
   19MOL   C240 8556   2.042   1.942   2.915  0.6107 -0.5305  0.1793
   19MOL   C241 8557   2.137   2.043   2.898  0.0732  0.7842 -0.0273
   19MOL   C242 8558   2.251   2.019   2.803 -0.2089  0.0400  0.7205
   19MOL   O243 8559   2.260   1.923   2.729  0.7374 -0.0851  0.3900
   19MOL   O244 8560   2.355   2.106   2.812  0.0300  0.2889 -0.7299
   19MOL   C245 8561   2.122   2.166   2.963  0.3195 -0.8010 -0.2177
   19MOL   C246 8562   2.009   2.184   3.049  0.0683 -1.1583  0.5996
   19MOL   H247 8563   1.827   2.424   3.319  0.4177  1.4400 -0.5653
   19MOL   H248 8564   1.662   2.452   3.386 -1.7082  1.0560 -1.3139
   19MOL   H249 8565   1.578   2.281   3.205  0.4373  1.4308 -2.0951
   19MOL   H250 8566   1.665   2.216   3.337  0.2030  1.4898  1.2088
   19MOL   H251 8567   1.851   1.890   2.998  0.2441 -0.3039 -0.0572
   19MOL   H252 8568   2.051   1.850   2.859 -0.2836 -0.4529 -0.0909
   19MOL   H253 8569   2.198   2.242   2.953 -0.7868  0.5034  1.1709
   19MOL   H254 8570   2.000   2.276   3.103  2.5327 -0.3628 -0.2702
   19MOL   O255 8571   2.456   2.105   2.693 -0.4145 -0.1740  0.3697
   19MOL   C256 8572   2.465   2.236   2.637 -0.2512 -0.1365 -0.3883
   19MOL   C257 8573   2.595   2.249   2.571  0.1407 -0.3963 -0.2117
   19MOL   O258 8574   2.592   2.171   2.455  0.0964  0.1561  0.3710
   19MOL   C259 8575   2.631   2.212   2.332  0.2302  0.7637 -0.0154
   19MOL   O260 8576   2.650   2.329   2.306  0.3335  0.1572  0.0713
   19MOL   C261 8577   2.655   2.101   2.236  0.4884  0.0275  0.5484
   19MOL   C262 8578   2.658   1.968   2.283 -0.3755  0.8958 -0.1703
   19MOL   C263 8579   2.672   1.862   2.192 -0.0178 -0.4686  0.1945
   19MOL   C264 8580   2.705   1.890   2.057  0.4587  0.6248 -0.3418
   19MOL   C265 8581   2.734   1.782   1.958  0.1072 -0.5008 -0.1531
   19MOL   O266 8582   2.737   1.661   1.986 -0.2717 -0.0461 -0.2056
   19MOL   O267 8583   2.768   1.831   1.831  0.6990 -0.5695  0.1403
   19MOL   C268 8584   2.711   2.021   2.013 -0.5510  0.1951 -0.4155
   19MOL   C269 8585   2.679   2.128   2.101 -0.0634  0.6742  0.2047
   19MOL   H270 8586   2.391   2.254   2.558  0.7863 -0.1715 -1.3833
   19MOL   H271 8587   2.471   2.301   2.723 -0.9842 -0.4683 -0.0825
   19MOL   H272 8588   2.678   2.227   2.639  1.4714  1.1771 -1.2654
   19MOL   H273 8589   2.593   2.357   2.559  1.7490 -0.4082 -0.7875
   19MOL   H274 8590   2.646   1.952   2.389 -1.3838  1.6264 -0.1699
   19MOL   H275 8591   2.669   1.764   2.236 -1.0195 -0.1608  0.8445
   19MOL   H276 8592   2.739   2.047   1.912 -0.9281 -0.0580 -0.5889
   19MOL   H277 8593   2.683   2.225   2.056  1.8085 -0.3299 -1.8708
   19MOL   O278 8594   2.789   1.728   1.720  0.3648  0.4256 -0.2203
   19MOL   C279 8595   2.693   1.761   1.626  0.3388 -0.1958 -0.0990
   19MOL   C280 8596   2.749   1.870   1.533  0.0729 -0.2963 -0.4661
   19MOL   O281 8597   2.722   1.997   1.589  0.3143 -0.0139  0.8897
   19MOL   C282 8598   2.652   2.077   1.521 -0.6411  0.4370 -0.3864
   19MOL   O283 8599   2.625   2.063   1.407  0.1655 -0.4713  0.3610
   19MOL   C284 8600   2.607   2.197   1.604  0.2274  0.0004  0.2575
   19MOL   C285 8601   2.680   2.242   1.715 -0.0411 -0.0496  0.0632
   19MOL   C286 8602   2.623   2.324   1.815 -0.6664 -0.5468  0.3566
   19MOL   C287 8603   2.492   2.369   1.793  0.1046  0.3234  0.0135
   19MOL   C288 8604   2.419   2.448   1.898  0.0633 -0.0523 -1.4470
   19MOL   O289 8605   2.312   2.505   1.877  0.0915 -0.0679 -0.6832
   19MOL   O290 8606   2.475   2.423   2.025  0.6204 -0.1338  0.1827
   19MOL   C291 8607   2.422   2.335   1.672  0.5462  0.1719  0.0415
   19MOL   C292 8608   2.484   2.254   1.575  0.1647 -1.0135 -0.1104
   19MOL   H293 8609   2.683   1.672   1.564 -2.4124  0.4601 -0.6453
   19MOL   H294 8610   2.591   1.774   1.662  1.2040 -0.1467  2.4075
   19MOL   H295 8611   2.705   1.851   1.435 -1.4989  1.5260 -0.1399
   19MOL   H296 8612   2.857   1.859   1.523  0.5768  1.5451  2.2717
   19MOL   H297 8613   2.779   2.204   1.728 -0.0039 -0.1915 -0.6012
   19MOL   H298 8614   2.681   2.363   1.898  0.7576 -2.9160  0.5421
   19MOL   H299 8615   2.323   2.374   1.656  1.0996  2.0630  1.1032
   19MOL   H300 8616   2.433   2.233   1.482  1.4656  1.0288 -1.3449
   19MOL   O301 8617   2.394   2.471   2.141  0.2429  0.2515  0.2579
   19MOL   C302 8618   2.315   2.361   2.177 -0.4542 -0.2675 -0.2630
   19MOL   C303 8619   2.214   2.390   2.296 -0.1876 -0.0021 -0.1724
   19MOL   O304 8620   2.079   2.333   2.289  0.1622 -0.0676  0.6853
   19MOL   C305 8621   2.071   2.197   2.302 -0.4426 -0.2725  0.7080
   19MOL   O306 8622   2.166   2.125   2.330 -0.1860  0.1760 -0.6986
   19MOL   C307 8623   1.934   2.149   2.295  0.1586  0.7246  0.3666
   19MOL   C308 8624   1.844   2.204   2.203  0.1779  0.3123  0.0975
   19MOL   C309 8625   1.723   2.137   2.178  0.5531  0.0639 -0.0262
   19MOL   C310 8626   1.689   2.015   2.240 -0.0720 -0.3559  0.0930
   19MOL   C311 8627   1.551   1.951   2.214 -0.4634  0.2197  0.6188
   19MOL   O312 8628   1.467   2.002   2.141 -0.4157 -0.2188  0.4767
   19MOL   O313 8629   1.544   1.837   2.275 -0.0133  0.1959  0.0675
   19MOL   C314 8630   1.785   1.964   2.333 -0.2286 -0.1373 -0.3068
   19MOL   C315 8631   1.906   2.034   2.372  0.1573  0.2094 -0.1851
   19MOL   H316 8632   2.251   2.344   2.091 -2.1848 -0.3183  1.0100
   19MOL   H317 8633   2.371   2.268   2.185  1.4083  1.0008  2.3300
   19MOL   H318 8634   2.210   2.494   2.326  1.1160  0.1476 -0.4601
   19MOL   H319 8635   2.267   2.349   2.382  0.5219  0.0376 -0.5825
   19MOL   H320 8636   1.857   2.301   2.156 -1.1393  0.2063 -0.5049
   19MOL   H321 8637   1.647   2.176   2.112 -0.3933 -0.3042  0.8401
   19MOL   H322 8638   1.766   1.873   2.388  0.0527 -0.7081 -1.1425
   19MOL   H323 8639   1.977   1.988   2.440  0.2063  0.5199 -0.0256
   19MOL   O324 8640   1.395   1.790   2.288 -0.5636 -0.3814  0.0014
   19MOL   C325 8641   1.365   1.715   2.171  0.3260 -0.6456  0.4601
   19MOL   C326 8642   1.231   1.647   2.194 -0.2601 -0.2199  0.7671
   19MOL   O327 8643   1.238   1.529   2.255 -0.7359 -0.8555 -0.6551
   19MOL   C328 8644   1.128   1.458   2.285  0.2123  0.3634 -0.2645
   19MOL   O329 8645   1.017   1.478   2.238 -0.0955  0.3174  0.3577
   19MOL   C330 8646   1.160   1.347   2.386  0.0758  0.2624  0.7113
   19MOL   C331 8647   1.059   1.251   2.415  0.0771 -0.5752 -0.4953
   19MOL   C332 8648   1.079   1.148   2.500 -0.0485  0.1238 -0.2532
   19MOL   C333 8649   1.205   1.132   2.560  0.1002 -0.1612  0.2269
   19MOL   C334 8650   1.234   1.009   2.642 -0.0981 -0.7681  0.0121
   19MOL   O335 8651   1.174   0.902   2.635 -0.0256 -0.1615  0.2056
   19MOL   O336 8652   1.347   1.026   2.711 -0.0138 -0.1874 -0.4855
   19MOL   C337 8653   1.304   1.227   2.536 -0.7182  0.1629  0.4993
   19MOL   C338 8654   1.281   1.334   2.450  0.4377  0.8774  0.4928
   19MOL   H339 8655   1.337   1.789   2.096  1.4788 -1.3696 -0.6898
   19MOL   H340 8656   1.447   1.645   2.157 -0.5207 -1.6021  0.2061
   19MOL   H341 8657   1.179   1.641   2.099 -0.6240  1.3093  0.8610
   19MOL   H342 8658   1.177   1.712   2.262  0.5751  0.6699  0.5767
   19MOL   H343 8659   0.967   1.261   2.359 -0.1437  1.4833  0.2001
   19MOL   H344 8660   1.008   1.070   2.520 -0.0903  0.9823  3.4684
   19MOL   H345 8661   1.409   1.212   2.558 -0.4520  0.4643 -0.5096
   19MOL   H346 8662   1.366   1.394   2.421  0.0631  1.6107  0.8846
   19MOL   O347 8663   1.390   0.897   2.786  0.4929  0.4216  0.4343
   19MOL   C348 8664   1.337   0.892   2.912 -0.1099  0.4174 -0.2564
   19MOL   C349 8665   1.414   0.793   3.008 -0.0234 -0.2222 -0.6636
   19MOL   O350 8666   1.388   0.658   2.987  0.4771  0.0982 -0.1697
   19MOL   C351 8667   1.281   0.593   3.025  0.3689 -0.0868  0.8075
   19MOL   O352 8668   1.195   0.653   3.090 -0.1056 -0.3084 -0.5612
   19MOL   C353 8669   1.270   0.452   2.966 -0.0048  0.2107 -0.6450
   19MOL   C354 8670   1.374   0.403   2.880 -0.1262 -0.3815 -0.5610
   19MOL   C355 8671   1.362   0.275   2.821 -0.3145 -0.4472 -0.7543
   19MOL   C356 8672   1.249   0.191   2.850 -1.4631  0.7060  0.5188
   19MOL   C357 8673   1.239   0.057   2.792 -0.1369 -0.3981 -0.3691
   19MOL   O358 8674   1.147   8.256   2.813  0.7172  0.0813  0.1160
   19MOL   O359 8675   1.360   0.021   2.731  0.1796  0.2437  0.4985
   19MOL   C360 8676   1.156   0.239   2.948 -0.0500 -0.3176  0.1478
   19MOL   C361 8677   1.164   0.368   3.002 -0.0968 -0.2528  0.2058
   19MOL   H362 8678   1.355   0.989   2.959  3.2093  0.0770 -0.7137
   19MOL   H363 8679   1.229   0.876   2.915 -0.1953  1.1409  4.2160
   19MOL   H364 8680   1.398   0.825   3.111 -0.1648  0.9532 -1.0467
   19MOL   H365 8681   1.521   0.803   2.991  0.3043  1.9975  2.4081
   19MOL   H366 8682   1.454   0.470   2.855  0.2154 -0.7071 -0.3433
   19MOL   H367 8683   1.434   0.248   2.746  1.7336  1.2163  0.5532
   19MOL   H368 8684   1.074   0.171   2.964 -1.4991  1.4215  0.2076
   19MOL   H369 8685   1.086   0.408   3.065  0.4945 -1.1040  1.5002
   19MOL   O370 8686   1.361   8.156   2.678 -0.4016 -0.3097 -0.5660
   19MOL   C371 8687   1.408   8.069   2.787 -0.3564  0.5289 -0.2070
   19MOL   C372 8688   1.395   7.925   2.749  0.6592 -0.4084 -0.2753
   19MOL   O373 8689   1.486   7.891   2.640  0.0172 -0.4088 -0.3774
   19MOL   C374 8690   1.460   7.776   2.577  0.0536 -0.8909 -0.3275
   19MOL   O375 8691   1.370   7.699   2.605 -0.0627  0.1166 -0.0618
   19MOL   C376 8692   1.558   7.739   2.470  0.2365 -0.7120 -0.6995
   19MOL   C377 8693   1.529   7.638   2.381  0.2791 -0.1759 -0.0854
   19MOL   C378 8694   1.610   7.621   2.266  0.4395 -0.0032 -0.6346
   19MOL   C379 8695   1.729   7.696   2.249  0.1836 -0.0622  0.8142
   19MOL   C380 8696   1.831   7.679   2.141  0.6581  1.0515  0.5814
   19MOL   O381 8697   1.933   7.747   2.136 -0.2803  0.6916 -0.6426
   19MOL   O382 8698   1.804   7.586   2.066 -0.0783  0.5570  0.5197
   19MOL   C383 8699   1.767   7.784   2.350  0.2022 -0.3791  0.9890
   19MOL   C384 8700   1.684   7.805   2.461 -0.6025  0.7429  0.8577
   19MOL   H385 8701   1.510   8.100   2.812 -0.4089  0.6890 -0.1905
   19MOL   H386 8702   1.342   8.089   2.871 -0.3494 -2.8114  0.6393
   19MOL   H387 8703   1.298   7.903   2.705  1.4263  1.1539 -2.8918
   19MOL   H388 8704   1.412   7.863   2.837 -2.3495 -0.5436  0.2613
   19MOL   H389 8705   1.443   7.573   2.395  0.1443 -0.1452 -0.7957
   19MOL   H390 8706   1.579   7.550   2.191 -1.5723  1.0848 -0.8681
   19MOL   H391 8707   1.862   7.834   2.352 -1.0778  2.0997  1.0628
   19MOL   H392 8708   1.720   7.869   2.540 -1.8438  1.7192  0.6518
   19MOL   O393 8709   1.887   7.576   1.944  0.3569 -0.0207 -0.8806
   19MOL   C394 8710   1.795   7.590   1.834 -0.2580 -0.3569  0.1159
   19MOL   C395 8711   1.716   7.464   1.804  0.1222  0.0158  0.1380
   19MOL   O396 8712   1.793   7.362   1.742 -0.1876 -0.6118  0.3937
   19MOL   C397 8713   1.846   7.256   1.813 -0.2790  0.0679 -1.0512
   19MOL   O398 8714   1.827   7.241   1.934 -0.2239 -0.7377  0.5498
   19MOL   C399 8715   1.934   7.162   1.731  1.1176  0.1707 -0.0450
   19MOL   C400 8716   1.939   7.184   1.594  0.1120 -0.2578 -0.4290
   19MOL   C401 8717   2.026   7.108   1.519  0.3012 -0.1082  0.6459
   19MOL   C402 8718   2.114   7.013   1.580  0.2028  0.6882  0.1992
   19MOL   C403 8719   2.218   6.943   1.502 -0.8011  0.3795  0.0045
   19MOL   O404 8720   2.278   6.839   1.533  0.0823  0.6592  0.7003
   19MOL   O405 8721   2.242   7.012   1.388 -0.2095 -0.1117  0.0556
   19MOL   C406 8722   2.099   6.988   1.717 -0.2884 -0.2125  0.3166
   19MOL   C407 8723   2.010   7.065   1.793 -0.1882 -0.4179  0.0089
   19MOL   H408 8724   1.720   7.668   1.848 -0.6652 -0.5363 -1.0140
   19MOL   H409 8725   1.838   7.635   1.745  0.2458 -0.3751  0.3525
   19MOL   H410 8726   1.635   7.503   1.743 -0.4749  0.1508  1.0024
   19MOL   H411 8727   1.669   7.428   1.896  1.0695 -0.4168  0.4696
   19MOL   H412 8728   1.880   7.267   1.556  1.4832  0.9752  0.1207
   19MOL   H413 8729   2.030   7.132   1.414  1.3470  0.7023  0.8565
   19MOL   H414 8730   2.156   6.911   1.768 -1.2956 -1.2664 -0.1204
   19MOL   H415 8731   1.995   7.045   1.898 -1.8338  2.7225  0.4297
   19MOL   O416 8732   2.357   6.949   1.318 -0.4511  0.4715  0.3179
   19MOL   C417 8733   2.473   7.021   1.343 -0.8945  0.4008 -0.1233
   19MOL   C418 8734   2.546   6.974   1.464 -0.0943 -0.0473  0.8297
   19MOL   O419 8735   2.601   6.844   1.447 -0.2925  0.1584  0.5761
   19MOL   C420 8736   2.671   6.787   1.543 -0.0609  0.0755 -0.3123
   19MOL   O421 8737   2.685   6.838   1.656 -0.0012 -0.6951  0.7033
   19MOL   C422 8738   2.732   6.660   1.506  0.6087  0.6581 -0.2031
   19MOL   C423 8739   2.741   6.615   1.370 -0.4838 -0.5729 -0.4504
   19MOL   C424 8740   2.795   6.484   1.346  0.3272 -0.7696  1.0456
   19MOL   C425 8741   2.860   6.419   1.451  0.0859  0.4551  0.2329
   19MOL   C426 8742   2.936   6.293   1.430  0.1639  0.1291 -0.2972
   19MOL   O427 8743   2.995   6.229   1.520  0.6625  0.3856 -0.2056
   19MOL   O428 8744   2.954   6.257   1.302  0.1515  0.1164 -0.2093
   19MOL   C429 8745   2.862   6.471   1.583 -0.0953 -0.1312  0.2322
   19MOL   C430 8746   2.795   6.588   1.612 -0.0236 -0.3413  0.1816
   19MOL   H431 8747   2.541   7.024   1.257 -1.2456  0.2909 -0.4034
   19MOL   H432 8748   2.445   7.124   1.364  1.8471  1.8276 -2.9221
   19MOL   H433 8749   2.475   6.978   1.546  0.2780  1.4794  1.0836
   19MOL   H434 8750   2.631   7.040   1.481  0.4051 -0.5745  0.4069
   19MOL   H435 8751   2.690   6.680   1.300 -1.4588 -0.1791  0.5941
   19MOL   H436 8752   2.796   6.445   1.245  0.1091 -2.1886  1.5759
   19MOL   H437 8753   2.904   6.413   1.664 -1.9894 -1.7203  0.0903
   19MOL   H438 8754   2.808   6.635   1.708  0.7076  0.2695 -0.2097
   19MOL   O439 8755   3.088   6.193   1.280 -0.3447  0.5704 -0.0718
   19MOL   C440 8756   3.058   6.051   1.265 -0.5462 -0.3294 -0.1433
   19MOL   C441 8757   2.994   6.016   1.128 -0.5470  0.2411  0.3032
   19MOL   O442 8758   3.073   6.049   1.020  0.0139 -0.4267  0.1068
   19MOL   C443 8759   3.170   5.964   0.972  0.0075 -0.1766 -0.1857
   19MOL   O444 8760   3.189   5.851   1.017  0.4108  0.2954  0.6508
   19MOL   C445 8761   3.250   6.004   0.853 -0.3724  0.4330 -0.1405
   19MOL   C446 8762   3.195   6.101   0.761  0.1226  0.7388  0.8974
   19MOL   C447 8763   3.270   6.139   0.646  0.0316 -0.3252  0.9296
   19MOL   C448 8764   3.398   6.079   0.626 -0.0593  0.0468 -0.5032
   19MOL   C449 8765   3.479   6.115   0.502  0.2706  0.6201 -0.0583
   19MOL   O450 8766   3.427   6.173   0.407 -0.7872 -0.1149 -0.5250
   19MOL   O451 8767   3.609   6.078   0.503 -0.2803 -0.3764  0.3766
   19MOL   C452 8768   3.451   5.987   0.719 -0.3207  0.1284  0.0119
   19MOL   C453 8769   3.376   5.948   0.832  0.4069 -0.2365  0.0468
   19MOL   H454 8770   3.147   5.991   1.284 -0.4593 -0.0572  0.2956
   19MOL   H455 8771   2.991   6.018   1.344 -0.1142 -2.2007 -0.5367
   19MOL   H456 8772   2.906   6.080   1.137 -1.5300 -0.6793 -2.1362
   19MOL   H457 8773   2.966   5.911   1.138 -3.2703  0.6722 -1.9354
   19MOL   H458 8774   3.096   6.140   0.780  0.4668  2.5934 -1.0065
   19MOL   H459 8775   3.240   6.209   0.569  1.1737 -1.7658 -0.8617
   19MOL   H460 8776   3.543   5.933   0.704  0.0553 -0.1607  2.9977
   19MOL   H461 8777   3.418   5.883   0.908 -1.7547 -0.1499  1.3612
   19MOL   H462 8778   3.623   6.072   0.410  0.4807 -0.7339  0.5112
   20MOL     O1 8779   3.440   3.210   8.086  0.8478 -0.3765 -0.2572
   20MOL     C2 8780   3.453   3.269   8.216  0.0357  0.3629 -0.0077
   20MOL     C3 8781   3.586   3.233   0.001 -0.6700 -0.2399  0.0509
   20MOL     O4 8782   3.575   3.104   0.063 -0.1809  0.8217  0.6622
   20MOL     C5 8783   3.596   2.996   8.267  0.5323 -0.9231 -0.4802
   20MOL     O6 8784   3.633   2.999   8.147 -0.0664 -0.4849 -0.2689
   20MOL     C7 8785   3.571   2.876   0.067 -0.0584  0.1031  0.2575
   20MOL     C8 8786   3.590   2.752   8.272  0.2813  0.1813 -0.3223
   20MOL     C9 8787   3.566   2.634   0.064 -0.0067 -0.7766 -0.6361
   20MOL    C10 8788   3.527   2.634   0.201 -0.3692 -0.4214  0.0332
   20MOL    C11 8789   3.495   2.509   0.273 -0.6559  0.2026  0.1440
   20MOL    O12 8790   3.505   2.503   0.398  0.3630 -0.2344  0.0897
   20MOL    O13 8791   3.463   2.403   0.199 -0.3869 -0.0458  0.1541
   20MOL    C14 8792   3.528   2.757   0.270  0.1767  0.5997 -0.1567
   20MOL    C15 8793   3.540   2.877   0.203 -0.4463  0.3649  0.4963
   20MOL    H16 8794   3.455   3.376   8.195  1.3946  0.3557  0.0516
   20MOL    H17 8795   3.375   3.247   0.013 -0.2948 -2.0048 -1.0520
   20MOL    H18 8796   3.609   3.297   0.086 -1.6017  0.7833 -0.4615
   20MOL    H19 8797   3.659   3.237   8.196  0.1756  0.5852  0.8374
   20MOL    H20 8798   3.631   2.746   8.173 -0.6045  2.5297 -0.8569
   20MOL    H21 8799   3.575   2.543   0.008 -0.5857 -0.3022 -1.5046
   20MOL    H22 8800   3.514   2.758   0.377  1.5006  0.4677  0.0269
   20MOL    H23 8801   3.531   2.974   0.249 -2.0489 -0.3166  1.6786
   20MOL    H24 8802   3.507   3.144   8.076  0.1860 -1.2962  1.1837
   20MOL    O25 8803   3.416   2.282   0.278 -0.3721  0.1105  0.2519
   20MOL    C26 8804   3.286   2.297   0.325  0.1431 -0.6144 -0.1472
   20MOL    C27 8805   3.180   2.327   0.214  0.0913 -0.1198  0.1164
   20MOL    O28 8806   3.050   2.311   0.276 -0.5958  0.3537  0.4106
   20MOL    C29 8807   2.970   2.218   0.229 -0.0312  0.1490  0.2189
   20MOL    O30 8808   3.003   2.125   0.150  0.0018 -0.6301  0.2313
   20MOL    C31 8809   2.826   2.228   0.278 -0.0547  0.1312 -0.5582
   20MOL    C32 8810   2.784   2.346   0.345  0.7644 -0.0932  0.3529
   20MOL    C33 8811   2.647   2.361   0.380 -0.2502 -0.5296 -0.4099
   20MOL    C34 8812   2.559   2.253   0.369  0.0931  0.2050 -0.3861
   20MOL    C35 8813   2.417   2.273   0.412 -0.1730  0.2434  0.3626
   20MOL    O36 8814   2.366   2.385   0.415 -0.2876  0.0104  0.6775
   20MOL    O37 8815   2.355   2.150   0.438 -0.4420  0.0073 -0.2259
   20MOL    C38 8816   2.603   2.136   0.310  0.2730 -0.8650 -0.5010
   20MOL    C39 8817   2.734   2.119   0.257  0.0612  0.3310  0.6353
   20MOL    H40 8818   3.274   2.194   0.358 -0.0916 -1.2346 -2.0917
   20MOL    H41 8819   3.272   2.361   0.412  0.3199 -0.8288  0.0404
   20MOL    H42 8820   3.201   2.269   0.124  0.5827  0.2444 -0.0048
   20MOL    H43 8821   3.187   2.429   0.178 -0.8312  0.5139  1.6606
   20MOL    H44 8822   2.853   2.423   0.373 -0.3107  0.5192  1.3467
   20MOL    H45 8823   2.613   2.448   0.436 -0.3369 -1.0632  0.3719
   20MOL    H46 8824   2.535   2.055   0.288  0.1783 -0.3084 -2.3962
   20MOL    H47 8825   2.771   2.030   0.207  1.0534  0.5957  0.8923
   20MOL    O48 8826   2.222   2.172   0.504 -0.0299  0.1485  1.2062
   20MOL    C49 8827   2.127   2.160   0.397 -0.0871 -0.0564 -0.5293
   20MOL    C50 8828   2.088   2.015   0.388 -0.1395  0.1964  0.0461
   20MOL    O51 8829   2.182   1.948   0.305  0.5113 -0.4629 -0.0958
   20MOL    C52 8830   2.142   1.925   0.174 -0.1827  0.5927  0.2883
   20MOL    O53 8831   2.034   1.963   0.131  0.3040  0.1620 -0.2918
   20MOL    C54 8832   2.253   1.864   0.089 -0.2178 -0.0547 -0.4713
   20MOL    C55 8833   2.224   1.817   8.230 -1.4392 -0.5020 -0.8981
   20MOL    C56 8834   2.326   1.789   8.140  1.0454  0.3818  0.1651
   20MOL    C57 8835   2.456   1.807   8.187 -0.0076  0.7654 -0.1744
   20MOL    C58 8836   2.565   1.785   8.087  0.4642 -0.9498 -0.0170
   20MOL    O59 8837   2.542   1.739   7.973  0.0289 -0.4047 -0.0868
   20MOL    O60 8838   2.688   1.821   8.135 -0.0398  0.0849  0.6658
   20MOL    C61 8839   2.489   1.846   0.045  0.1397  0.7203  0.3241
   20MOL    C62 8840   2.383   1.875   0.138 -0.9481  0.0418  0.3976
   20MOL    H63 8841   2.039   2.218   0.427 -0.1844  0.6554 -2.1245
   20MOL    H64 8842   2.144   2.206   0.300 -1.9730 -0.7651 -1.2056
   20MOL    H65 8843   1.987   2.005   0.349 -0.1217 -2.9606  0.6432
   20MOL    H66 8844   2.093   1.974   0.489 -2.6199  2.0489  0.9764
   20MOL    H67 8845   2.119   1.809   8.206 -1.8933  2.0242  0.0192
   20MOL    H68 8846   2.287   1.752   8.047  1.1834 -2.1229  1.0818
   20MOL    H69 8847   2.587   1.864   0.087 -0.2185  0.0923  1.4726
   20MOL    H70 8848   2.402   1.907   0.239  2.2116 -0.1229 -0.1104
   20MOL    O71 8849   2.795   1.798   8.038 -0.0783 -0.1553 -0.2003
   20MOL    C72 8850   2.846   1.665   8.065 -0.4468 -0.3653 -0.1202
   20MOL    C73 8851   2.955   1.645   7.953 -0.0040 -0.4910 -0.4606
   20MOL    O74 8852   2.955   1.510   7.902 -0.3732  0.4605 -0.4615
   20MOL    C75 8853   2.999   1.406   7.979  0.5265 -0.5893 -0.3223
   20MOL    O76 8854   3.028   1.428   8.092  0.7130 -0.1489  0.0699
   20MOL    C77 8855   3.003   1.273   7.907  0.0826  0.1295  0.6879
   20MOL    C78 8856   2.947   1.262   7.778 -0.1900  0.7791  0.9318
   20MOL    C79 8857   2.961   1.141   7.711  0.0094 -0.5268 -0.0837
   20MOL    C80 8858   3.024   1.028   7.763 -0.4167  0.1438  0.1495
   20MOL    C81 8859   3.046   0.910   7.674  0.2879  0.6618  0.2055
   20MOL    O82 8860   2.988   0.896   7.568 -0.5131  0.2956 -0.5629
   20MOL    O83 8861   3.141   0.827   7.725 -0.2605 -0.4808  0.1132
   20MOL    C84 8862   3.059   1.032   7.899  0.3519 -0.4810  0.2728
   20MOL    C85 8863   3.048   1.153   7.970  0.1599 -0.8564  0.2778
   20MOL    H86 8864   2.902   1.653   8.158  1.7352 -0.3623 -1.3954
   20MOL    H87 8865   2.759   1.600   8.065 -0.4064 -0.4411  1.6242
   20MOL    H88 8866   3.049   1.672   8.001  0.4804 -2.3148 -0.3391
   20MOL    H89 8867   2.938   1.720   7.876 -2.4915  0.6741  1.1658
   20MOL    H90 8868   2.904   1.344   7.722 -1.6677 -0.9874 -0.5790
   20MOL    H91 8869   2.916   1.133   7.614 -2.6652  1.8868  0.8676
   20MOL    H92 8870   3.096   0.936   7.931 -1.2704 -1.5682 -1.0461
   20MOL    H93 8871   3.080   1.158   8.073  0.8894 -1.0347  0.0565
   20MOL    O94 8872   3.188   0.717   7.623  0.2597  0.4429 -0.2271
   20MOL    C95 8873   3.328   0.721   7.632  1.0482 -0.2017  0.4353
   20MOL    C96 8874   3.393   0.824   7.535  0.2160  0.2987  0.0688
   20MOL    O97 8875   3.366   0.954   7.586  0.7274 -0.2134  0.2230
   20MOL    C98 8876   3.355   1.059   7.501 -0.2616 -1.1656 -0.4540
   20MOL    O99 8877   3.373   1.061   7.379  0.3024  0.2865  0.5393
   20MOL   C100 8878   3.340   1.188   7.579  0.3274  0.3474  0.1996
   20MOL   C101 8879   3.343   1.186   7.720  0.0158 -0.6119  0.6814
   20MOL   C102 8880   3.348   1.311   7.792 -0.1749  0.5093 -0.0319
   20MOL   C103 8881   3.325   1.428   7.726  0.5407 -0.4230  0.7876
   20MOL   C104 8882   3.315   1.561   7.793  0.1015 -0.5785 -0.2886
   20MOL   O105 8883   3.290   1.674   7.736 -0.0632 -0.2778 -0.6872
   20MOL   O106 8884   3.325   1.558   7.923 -0.2715 -0.2154 -0.5418
   20MOL   C107 8885   3.318   1.428   7.588 -0.5326 -0.8380 -0.1716
   20MOL   C108 8886   3.333   1.311   7.508  0.3333 -0.8245 -0.4236
   20MOL   H109 8887   3.365   0.739   7.733 -1.4238  1.0264  1.1705
   20MOL   H110 8888   3.363   0.618   7.624  0.4112 -0.3721 -0.2241
   20MOL   H111 8889   3.348   0.808   7.437 -0.2445  0.6467  0.2205
   20MOL   H112 8890   3.501   0.811   7.533  0.3025  0.9772 -3.4547
   20MOL   H113 8891   3.347   1.093   7.774  1.9094 -2.3312 -2.2640
   20MOL   H114 8892   3.350   1.301   7.900 -1.8086  0.7038  0.0219
   20MOL   H115 8893   3.302   1.518   7.531  1.5658 -0.2457  0.1403
   20MOL   H116 8894   3.336   1.319   7.400 -1.6116 -1.0350 -0.5230
   20MOL   O117 8895   3.271   1.683   7.989  0.1510  0.4308  0.0806
   20MOL   C118 8896   3.382   1.749   8.042  0.1682  0.5939 -0.2168
   20MOL   C119 8897   3.341   1.850   8.162 -0.2284 -0.2916  0.0692
   20MOL   O120 8898   3.343   1.986   8.122  0.5064  0.3553  0.0194
   20MOL   C121 8899   3.230   2.042   8.081  0.2230  0.1226  0.4652
   20MOL   O122 8900   3.127   1.981   8.057  0.2390  0.3275  0.2188
   20MOL   C123 8901   3.240   2.188   8.073  0.0884  0.4252  0.2497
   20MOL   C124 8902   3.145   2.253   7.996 -0.1139  0.0833  0.3863
   20MOL   C125 8903   3.146   2.393   7.988 -0.7679 -1.1131 -0.3957
   20MOL   C126 8904   3.242   2.472   8.065  0.7298  0.0111  0.3573
   20MOL   C127 8905   3.221   2.616   8.088  0.0762 -0.1616 -0.3081
   20MOL   O128 8906   3.137   2.675   8.022  0.0759 -0.3172 -0.1784
   20MOL   O129 8907   3.304   2.663   8.176 -0.1603  0.3729 -0.8669
   20MOL   C130 8908   3.334   2.404   8.144 -0.9918  0.6766  0.0398
   20MOL   C131 8909   3.339   2.264   8.143  0.4523  0.3592 -0.1354
   20MOL   H132 8910   3.444   1.670   8.085 -2.1477  0.6125  3.3241
   20MOL   H133 8911   3.426   1.803   7.958  0.5913  1.7048  0.7184
   20MOL   H134 8912   3.416   1.838   8.240  1.7167  0.4128 -1.6361
   20MOL   H135 8913   3.256   1.810   8.216 -0.8719  0.5183 -0.3346
   20MOL   H136 8914   3.062   2.199   7.952  1.5121 -1.9786 -0.2156
   20MOL   H137 8915   3.082   2.453   7.925 -0.1148  0.2842  0.2608
   20MOL   H138 8916   3.405   2.448   8.213 -0.7687  1.2087 -0.5176
   20MOL   H139 8917   3.412   2.208   8.200  2.0010  1.5378 -0.9253
   20MOL   O140 8918   3.270   2.802   8.217  0.3409  0.4063  0.3860
   20MOL   C141 8919   3.187   2.801   0.053  0.6880 -0.1380 -0.7250
   20MOL   C142 8920   3.122   2.928   0.094 -0.6036  0.4702  0.0829
   20MOL   O143 8921   2.993   2.931   0.034 -0.8074  0.3978 -0.0184
   20MOL   C144 8922   2.971   2.981   8.192  0.1837  0.1917  0.1276
   20MOL   O145 8923   3.055   2.992   8.108 -0.2488  0.0691 -0.2776
   20MOL   C146 8924   2.829   2.999   8.159 -0.0101  0.6403 -0.0458
   20MOL   C147 8925   2.742   3.079   8.233  0.4733 -0.0824  0.2955
   20MOL   C148 8926   2.608   3.093   8.200 -0.0841 -0.1191  0.3936
   20MOL   C149 8927   2.562   3.026   8.083  0.3470 -0.2952  0.0679
   20MOL   C150 8928   2.414   3.025   8.045  0.3598 -0.9205 -0.6953
   20MOL   O151 8929   2.369   2.979   7.939 -0.8102 -0.0699  0.1088
   20MOL   O152 8930   2.342   3.086   8.136 -0.0501 -0.3260  0.2857
   20MOL   C153 8931   2.645   2.946   8.011 -0.4980  0.3288  0.6193
   20MOL   C154 8932   2.777   2.933   8.047 -0.2699 -0.8961  0.0017
   20MOL   H155 8933   3.105   2.729   0.049  1.9548 -1.5603 -1.7912
   20MOL   H156 8934   3.238   2.766   0.142 -0.3408  2.3541  0.9034
   20MOL   H157 8935   3.186   3.008   0.055 -1.0923  1.0600  0.4743
   20MOL   H158 8936   3.121   2.933   0.203  0.2622  0.2299  0.1038
   20MOL   H159 8937   2.781   3.140   0.037  0.3469  1.7922 -1.0439
   20MOL   H160 8938   2.547   3.150   8.268 -0.2548  0.8163 -0.5421
   20MOL   H161 8939   2.619   2.891   7.922  1.1713 -0.9370  0.8909
   20MOL   H162 8940   2.840   2.870   7.985  0.4224 -0.7304  0.5297
   20MOL   O163 8941   2.199   3.095   8.107  0.4262  0.2846  0.4203
   20MOL   C164 8942   2.130   3.019   8.202  0.5641  0.0117  0.0460
   20MOL   C165 8943   2.079   2.887   8.148 -0.5264  0.0599  0.4468
   20MOL   O166 8944   2.183   2.797   8.115 -0.2642 -0.0556  0.6598
   20MOL   C167 8945   2.152   2.666   8.099 -0.7724 -0.5119 -0.1447
   20MOL   O168 8946   2.041   2.620   8.138  0.0887 -0.0358  0.0517
   20MOL   C169 8947   2.256   2.591   8.031 -0.4626  0.3162 -0.7525
   20MOL   C170 8948   2.390   2.637   8.010 -0.0780  0.1476  0.5735
   20MOL   C171 8949   2.477   2.559   7.931 -0.7115  0.7300 -0.9392
   20MOL   C172 8950   2.445   2.422   7.892 -0.4952  0.2028  0.0703
   20MOL   C173 8951   2.547   2.342   7.820  0.4726  0.3579 -0.5322
   20MOL   O174 8952   2.652   2.386   7.787 -0.5405  0.3825 -0.0078
   20MOL   O175 8953   2.523   2.214   7.822  0.1946  0.0377 -0.5522
   20MOL   C176 8954   2.323   2.371   7.939 -0.4052 -0.7738  0.3343
   20MOL   C177 8955   2.223   2.456   7.995 -0.4643  0.3765  0.0623
   20MOL   H178 8956   2.197   3.007   0.011 -0.3171 -0.0837  0.7410
   20MOL   H179 8957   2.044   3.074   8.240  0.8684 -1.2501  2.6610
   20MOL   H180 8958   2.008   2.893   8.065  1.3037  1.6109 -1.0324
   20MOL   H181 8959   2.027   2.838   8.231  0.5509  1.0695  1.7340
   20MOL   H182 8960   2.426   2.735   8.036  1.0137  0.1862 -0.9912
   20MOL   H183 8961   2.565   2.617   7.906 -0.9861  2.2294  1.4376
   20MOL   H184 8962   2.299   2.267   7.923 -2.0334 -0.2095 -1.0447
   20MOL   H185 8963   2.125   2.416   8.014  0.4610 -2.4736 -0.8865
   20MOL   O186 8964   2.628   2.135   7.749  0.2292 -0.1476 -0.3224
   20MOL   C187 8965   2.695   2.044   7.836  0.2542  0.3301  0.0942
   20MOL   C188 8966   2.832   2.100   7.883  0.0174  0.4214 -0.1237
   20MOL   O189 8967   2.925   2.061   7.787  0.0456 -0.0231 -0.4316
   20MOL   C190 8968   2.953   2.156   7.693  0.4125 -0.0476 -0.1931
   20MOL   O191 8969   2.907   2.269   7.687 -0.0649  0.4190  0.1245
   20MOL   C192 8970   3.065   2.112   7.610 -0.7144  0.0352  0.3043
   20MOL   C193 8971   3.141   2.000   7.640 -0.7885 -0.1227  0.3256
   20MOL   C194 8972   3.244   1.968   7.555  0.4725  0.2067 -0.1033
   20MOL   C195 8973   3.285   2.040   7.445 -0.4824 -0.0506 -0.4442
   20MOL   C196 8974   3.392   1.991   7.346  0.0963 -0.5482  0.3828
   20MOL   O197 8975   3.443   2.060   7.253 -0.4558  0.3111 -0.2699
   20MOL   O198 8976   3.425   1.864   7.355 -0.3521  0.0412  0.2393
   20MOL   C199 8977   3.209   2.157   7.416 -0.1726  0.1479 -0.4888
   20MOL   C200 8978   3.108   2.195   7.503  0.7696  0.2861 -0.8063
   20MOL   H201 8979   2.631   2.028   7.923 -0.0733 -1.8522 -0.5215
   20MOL   H202 8980   2.706   1.939   7.807 -1.1449  0.2640 -0.2587
   20MOL   H203 8981   2.877   2.061   7.974 -0.4835 -0.3417 -0.1968
   20MOL   H204 8982   2.818   2.203   7.917  0.7288 -0.1524  2.0014
   20MOL   H205 8983   3.134   1.939   7.728  0.2631 -0.3793  0.2388
   20MOL   H206 8984   3.283   1.870   7.577  1.3304  0.2629 -1.3379
   20MOL   H207 8985   3.235   2.202   7.321  2.3150 -3.0943 -1.4314
   20MOL   H208 8986   3.056   2.286   7.476  1.7128  1.2035  0.4347
   20MOL   O209 8987   3.570   1.828   7.307  0.1231  0.4706 -0.3694
   20MOL   C210 8988   3.547   1.745   7.191 -0.6042 -0.0866  0.3233
   20MOL   C211 8989   3.560   1.599   7.227  1.2165 -0.2622 -0.4294
   20MOL   O212 8990   3.486   1.519   7.140  0.2430 -0.3171  0.0765
   20MOL   C213 8991   3.487   1.390   7.148 -0.3500  0.0211 -0.2784
   20MOL   O214 8992   3.532   1.331   7.249  0.0819 -0.8846  0.4162
   20MOL   C215 8993   3.415   1.319   7.040  0.3578  0.6880 -0.5778
   20MOL   C216 8994   3.349   1.395   6.945  0.0298 -0.8183 -0.1600
   20MOL   C217 8995   3.262   1.338   6.853 -0.3754  0.2841 -0.1818
   20MOL   C218 8996   3.239   1.200   6.851 -0.4127 -0.4600 -0.4571
   20MOL   C219 8997   3.158   1.137   6.753 -0.0767  0.4671  0.0747
   20MOL   O220 8998   3.134   1.015   6.754  0.4233  0.3399  0.0640
   20MOL   O221 8999   3.115   1.217   6.651 -0.0794 -0.2598  0.2004
   20MOL   C222 9000   3.306   1.115   6.944 -0.6059 -0.5329  0.5756
   20MOL   C223 9001   3.393   1.176   7.038  0.1360  0.7544 -0.1666
   20MOL   H224 9002   3.453   1.769   7.141 -0.5117 -1.5773 -0.6035
   20MOL   H225 9003   3.617   1.781   7.116  0.2968 -1.5329  0.4521
   20MOL   H226 9004   3.505   1.576   7.318  1.8955 -1.0769 -0.2247
   20MOL   H227 9005   3.660   1.563   7.247  1.7144  1.3380  0.0683
   20MOL   H228 9006   3.371   1.501   6.948 -1.6603 -0.4574 -0.1552
   20MOL   H229 9007   3.217   1.404   6.781  0.0470  1.5987  0.7475
   20MOL   H230 9008   3.299   1.007   6.941 -1.1157 -0.4916  0.2854
   20MOL   H231 9009   3.452   1.118   7.107 -1.1271  0.1855  0.4655
   20MOL   O232 9010   3.028   1.158   6.546 -0.0269 -0.1227 -0.1591
   20MOL   C233 9011   3.107   1.089   6.444  0.8915 -0.1781  0.0369
   20MOL   C234 9012   3.038   1.095   6.312  0.4286 -0.1365 -0.6676
   20MOL   O235 9013   2.964   0.977   6.300 -0.5257 -0.7391 -0.5918
   20MOL   C236 9014   2.851   0.969   6.213  0.5139 -0.3780 -0.4956
   20MOL   O237 9015   2.820   1.053   6.128 -0.2228  0.2170  0.0307
   20MOL   C238 9016   2.771   0.846   6.248 -0.2480  0.0915  0.4619
   20MOL   C239 9017   2.825   0.729   6.304 -0.0478  0.5657  0.7139
   20MOL   C240 9018   2.742   0.613   6.325 -0.2741 -0.6907 -0.0988
   20MOL   C241 9019   2.600   0.621   6.299 -0.5559 -0.3543  0.1419
   20MOL   C242 9020   2.512   0.504   6.325 -1.3444 -0.0674  0.4417
   20MOL   O243 9021   2.556   0.398   6.361 -0.1140  0.1312 -0.0826
   20MOL   O244 9022   2.378   0.534   6.316 -0.5128 -0.3448  0.2328
   20MOL   C245 9023   2.549   0.741   6.246  1.5563 -0.6955  0.3900
   20MOL   C246 9024   2.634   0.850   6.218 -0.3223 -0.6508  0.2783
   20MOL   H247 9025   3.197   1.150   6.442 -0.1557  1.5166  1.9291
   20MOL   H248 9026   3.137   0.988   6.471 -0.9885 -1.1091 -1.2468
   20MOL   H249 9027   3.111   1.105   6.232  1.2216  0.2080  0.0943
   20MOL   H250 9028   2.970   1.180   6.300  0.1620 -0.2891 -0.2656
   20MOL   H251 9029   2.929   0.724   6.330 -0.3329  0.6746  1.8880
   20MOL   H252 9030   2.784   0.519   6.355  1.1428 -0.0927 -0.1930
   20MOL   H253 9031   2.443   0.762   6.237  1.7767  0.8653  1.2190
   20MOL   H254 9032   2.593   0.938   6.170 -0.1040 -2.0679 -2.6030
   20MOL   O255 9033   2.296   0.414   6.346 -0.1706 -0.4870 -0.5034
   20MOL   C256 9034   2.247   0.370   6.228 -0.3253 -0.5088  0.8253
   20MOL   C257 9035   2.192   0.225   6.243 -0.3000 -0.5305  0.6926
   20MOL   O258 9036   2.078   0.225   6.326 -0.2561  0.1236 -0.1799
   20MOL   C259 9037   2.032   0.122   6.380 -0.1876 -0.1293  0.6541
   20MOL   O260 9038   2.090   0.016   6.373  0.0224 -0.7285  0.5789
   20MOL   C261 9039   1.902   0.137   6.462  0.2560 -0.6148  0.4249
   20MOL   C262 9040   1.865   0.036   6.552  0.6186 -0.7733  0.3064
   20MOL   C263 9041   1.750   0.047   6.633  0.0181  0.2170 -0.4721
   20MOL   C264 9042   1.663   0.161   6.607  0.2704  0.0820 -0.5032
   20MOL   C265 9043   1.517   0.170   6.664  0.3190  0.1986 -0.2333
   20MOL   O266 9044   1.437   0.257   6.642 -0.0015  0.4190  0.2621
   20MOL   O267 9045   1.489   0.075   6.751 -0.0681  0.3984  0.3699
   20MOL   C268 9046   1.702   0.264   6.523 -0.5100  0.2565  0.1231
   20MOL   C269 9047   1.818   0.249   6.441  0.8308 -0.1704  0.0179
   20MOL   H270 9048   2.171   0.435   6.185 -2.1894 -4.4630 -2.0616
   20MOL   H271 9049   2.329   0.378   6.157  0.2374 -1.3050  1.3787
   20MOL   H272 9050   2.272   0.158   6.275 -0.3225 -0.7284  0.3398
   20MOL   H273 9051   2.159   0.180   6.149  3.0637  0.2046 -0.9410
   20MOL   H274 9052   1.930   8.224   6.554  2.6772  0.6597 -1.7689
   20MOL   H275 9053   1.717   8.239   6.693  0.9781  2.5217  3.4492
   20MOL   H276 9054   1.632   0.345   6.507  0.4914  1.6306  2.5334
   20MOL   H277 9055   1.840   0.328   6.370 -1.0403 -0.1135 -0.5277
   20MOL   O278 9056   1.370   0.113   6.845 -0.2645  0.1483  0.5208
   20MOL   C279 9057   1.244   0.080   6.780  0.7777 -0.3606  0.1985
   20MOL   C280 9058   1.132   0.179   6.818 -0.3638 -0.1266  0.4004
   20MOL   O281 9059   1.113   0.290   6.733  0.5364 -0.1509 -0.2673
   20MOL   C282 9060   1.167   0.411   6.764  0.8322 -0.6008  0.1946
   20MOL   O283 9061   1.231   0.442   6.863 -0.2285  0.1569  0.1536
   20MOL   C284 9062   1.144   0.507   6.654 -0.4076  0.1352  0.2644
   20MOL   C285 9063   1.085   0.469   6.528  0.2366 -0.2477 -0.6870
   20MOL   C286 9064   1.060   0.563   6.426 -0.1229  0.3785 -0.1288
   20MOL   C287 9065   1.097   0.700   6.445  0.1022  0.2140 -0.5016
   20MOL   C288 9066   1.065   0.790   6.329 -0.0195 -0.1942 -0.0609
   20MOL   O289 9067   0.975   0.771   6.250  0.3789  0.1467 -0.6978
   20MOL   O290 9068   1.140   0.900   6.325 -0.3853  0.0359  0.0356
   20MOL   C291 9069   1.150   0.736   6.565  0.1784  0.1165 -0.3488
   20MOL   C292 9070   1.176   0.647   6.668  0.5408 -0.6132 -0.6275
   20MOL   H293 9071   1.247   0.059   6.673 -0.0138  0.9619 -0.0986
   20MOL   H294 9072   1.206   8.258   6.809  1.2582 -1.1795 -1.8657
   20MOL   H295 9073   1.151   0.221   6.917 -2.0581 -1.1650  1.1750
   20MOL   H296 9074   1.039   0.129   6.846 -1.1721  0.7831 -0.6281
   20MOL   H297 9075   1.053   0.368   6.508  0.5490 -0.4128 -0.3630
   20MOL   H298 9076   1.007   0.540   6.335 -2.5057  2.5743  0.6343
   20MOL   H299 9077   1.181   0.837   6.588 -1.9763  0.7465 -0.0880
   20MOL   H300 9078   1.221   0.679   6.760 -1.9746 -0.4631  0.6119
   20MOL   O301 9079   1.130   0.977   6.190  0.4051  0.2877 -0.1369
   20MOL   C302 9080   1.056   1.094   6.213 -0.3330 -0.1996  0.1374
   20MOL   C303 9081   1.144   1.211   6.245 -0.3217  0.1813 -0.1697
   20MOL   O304 9082   1.228   1.223   6.135 -0.5839 -0.1227 -0.3957
   20MOL   C305 9083   1.189   1.293   6.028  0.1754  0.8544  0.3291
   20MOL   O306 9084   1.075   1.345   6.006  0.0523 -0.7387 -0.6500
   20MOL   C307 9085   1.297   1.312   5.926 -0.3108 -0.3035 -1.1286
   20MOL   C308 9086   1.435   1.308   5.961 -0.5110 -0.5330  0.5061
   20MOL   C309 9087   1.539   1.344   5.872 -0.7674 -1.1570  0.6303
   20MOL   C310 9088   1.508   1.390   5.740  0.3582  0.0024 -0.3775
   20MOL   C311 9089   1.612   1.443   5.652 -0.0401  0.3714 -0.0878
   20MOL   O312 9090   1.589   1.483   5.537  0.0416  0.1918 -0.1006
   20MOL   O313 9091   1.739   1.443   5.699  0.0821  1.1463 -0.4518
   20MOL   C314 9092   1.371   1.402   5.710 -0.7987  0.1727  0.4256
   20MOL   C315 9093   1.269   1.359   5.795 -0.5137  0.2138  0.4393
   20MOL   H316 9094   1.012   1.127   6.119 -0.3921 -0.7603 -0.0326
   20MOL   H317 9095   0.976   1.083   6.286 -0.8274 -1.3972 -0.5721
   20MOL   H318 9096   1.202   1.192   6.335  0.1964  0.2109 -0.4932
   20MOL   H319 9097   1.085   1.301   6.264 -0.0961 -0.1382  2.0730
   20MOL   H320 9098   1.468   1.283   6.061  0.0053 -0.2791  0.4022
   20MOL   H321 9099   1.639   1.348   5.912 -0.5743 -0.6870  0.1054
   20MOL   H322 9100   1.355   1.451   5.614  1.7146 -2.0901 -1.1967
   20MOL   H323 9101   1.169   1.359   5.755 -0.2468  2.1141 -0.2953
   20MOL   O324 9102   1.837   1.518   5.615 -0.1434 -0.1982  0.2905
   20MOL   C325 9103   1.916   1.420   5.538  0.0189 -0.4997 -0.4396
   20MOL   C326 9104   2.038   1.373   5.611 -0.5356  0.2491 -0.0999
   20MOL   O327 9105   2.137   1.321   5.519  0.8540 -0.0729 -0.0912
   20MOL   C328 9106   2.249   1.258   5.570  0.2467  0.0558  0.8945
   20MOL   O329 9107   2.267   1.244   5.692  0.4165  0.2603 -0.4056
   20MOL   C330 9108   2.352   1.218   5.474 -0.3643  0.8314 -0.3584
   20MOL   C331 9109   2.447   1.122   5.504 -0.5677 -0.0884  0.1291
   20MOL   C332 9110   2.549   1.094   5.414 -0.0003  0.1131  0.1619
   20MOL   C333 9111   2.566   1.161   5.298 -0.1854 -0.4955 -0.2921
   20MOL   C334 9112   2.675   1.122   5.220  0.0573  0.1361  0.2001
   20MOL   O335 9113   2.763   1.034   5.251 -0.1258  0.3373 -0.4669
   20MOL   O336 9114   2.681   1.188   5.103  0.1944 -0.2257 -0.2700
   20MOL   C337 9115   2.472   1.257   5.261 -0.0353 -0.5580 -0.2224
   20MOL   C338 9116   2.369   1.289   5.354  0.2562 -0.3680  1.0995
   20MOL   H339 9117   1.860   1.330   5.511 -0.6043 -0.7064  1.4844
   20MOL   H340 9118   1.929   1.477   5.447 -0.7516 -1.5593 -1.2331
   20MOL   H341 9119   2.008   1.311   5.695 -0.4689 -0.9451 -0.9411
   20MOL   H342 9120   2.079   1.456   5.668 -0.3151  0.7928 -1.0454
   20MOL   H343 9121   2.431   1.050   5.583 -2.4874  0.1163 -0.0501
   20MOL   H344 9122   2.620   1.016   5.438  1.2773  1.2015 -0.0285
   20MOL   H345 9123   2.467   1.310   5.167 -2.2463 -0.4580 -0.0900
   20MOL   H346 9124   2.311   1.376   5.326  2.0384  1.1125  1.9074
   20MOL   O347 9125   2.818   1.172   5.030 -0.5135 -0.1972 -0.0243
   20MOL   C348 9126   2.891   1.295   5.045  0.3806 -0.3194 -0.4719
   20MOL   C349 9127   2.975   1.304   5.183 -0.2715 -0.1140 -0.5281
   20MOL   O350 9128   2.896   1.326   5.300 -0.4379 -0.3565 -1.2892
   20MOL   C351 9129   2.828   1.450   5.318 -0.1891  0.1053  0.1959
   20MOL   O352 9130   2.838   1.548   5.242  0.4522 -0.5007  0.1214
   20MOL   C353 9131   2.744   1.447   5.450  0.8698  0.3206  0.5140
   20MOL   C354 9132   2.625   1.519   5.444  0.4673 -0.0730 -0.1704
   20MOL   C355 9133   2.543   1.525   5.554  0.4528 -0.1284  0.2586
   20MOL   C356 9134   2.568   1.448   5.674 -0.6261  0.1765  0.3759
   20MOL   C357 9135   2.488   1.460   5.796  0.0527 -0.0463 -0.7710
   20MOL   O358 9136   2.372   1.504   5.794  0.2290 -0.0455  0.6550
   20MOL   O359 9137   2.561   1.423   5.913  0.4374 -0.1456 -0.0800
   20MOL   C360 9138   2.684   1.361   5.666 -0.8453 -0.1924 -0.2506
   20MOL   C361 9139   2.772   1.362   5.560  0.2732  0.0841  0.3146
   20MOL   H362 9140   2.960   1.312   4.961  2.0904 -0.5736  0.8584
   20MOL   H363 9141   2.814   1.372   5.046  1.6314  0.9423  1.4704
   20MOL   H364 9142   3.043   1.389   5.179  1.6172 -1.4105  2.7488
   20MOL   H365 9143   3.026   1.211   5.207 -1.1043 -1.2633 -2.9727
   20MOL   H366 9144   2.591   1.579   5.361 -3.1026 -2.3493 -0.4764
   20MOL   H367 9145   2.457   1.587   5.534 -0.2336 -1.3369 -0.7170
   20MOL   H368 9146   2.701   1.291   5.747  1.4592 -1.9079 -2.1215
   20MOL   H369 9147   2.863   1.304   5.566  1.1153  1.2683 -0.6639
   20MOL   O370 9148   2.484   1.469   6.039 -0.5014 -0.3500 -0.0284
   20MOL   C371 9149   2.408   1.365   6.093 -0.0271 -0.0996  0.0538
   20MOL   C372 9150   2.493   1.256   6.171 -0.3164 -0.2869  0.0097
   20MOL   O373 9151   2.392   1.155   6.196  0.5800 -0.0492 -0.2999
   20MOL   C374 9152   2.323   1.160   6.311 -0.0356 -0.7690  0.2043
   20MOL   O375 9153   2.331   1.251   6.394  0.1546  0.2417 -0.0283
   20MOL   C376 9154   2.241   1.036   6.333 -0.2916  0.2840 -0.0740
   20MOL   C377 9155   2.251   0.926   6.253  0.4398  0.4777 -0.3133
   20MOL   C378 9156   2.185   0.805   6.285 -0.1267 -0.2864 -0.4810
   20MOL   C379 9157   2.108   0.797   6.401  0.0149  0.5248 -0.4561
   20MOL   C380 9158   2.039   0.664   6.433 -0.5465  0.1037  0.4686
   20MOL   O381 9159   2.024   0.572   6.357  0.0990 -0.3794 -0.4101
   20MOL   O382 9160   2.012   0.643   6.562  0.2290 -0.3078  0.4048
   20MOL   C383 9161   2.086   0.912   6.478  0.5139  0.1382  0.1346
   20MOL   C384 9162   2.154   1.034   6.446  0.1053 -0.4431  0.4464
   20MOL   H385 9163   2.330   1.404   6.158  0.5790 -1.3887  1.5814
   20MOL   H386 9164   2.374   1.311   6.005  1.4512 -3.2738  1.3319
   20MOL   H387 9165   2.538   1.289   6.264 -0.9404 -0.5408  0.4026
   20MOL   H388 9166   2.567   1.214   6.102  0.1557  0.8923 -0.2225
   20MOL   H389 9167   2.319   0.924   6.169  0.5762  1.0603 -0.2146
   20MOL   H390 9168   2.207   0.727   6.214 -2.0009  0.0725 -1.4890
   20MOL   H391 9169   2.021   0.920   6.563 -0.2262  1.4041 -0.5407
   20MOL   H392 9170   2.136   1.117   6.512  0.3633 -0.3976  0.4616
   20MOL   O393 9171   1.940   0.519   6.593 -0.5249  0.6500  0.3326
   20MOL   C394 9172   2.041   0.423   6.638  0.0920  0.1400  0.1566
   20MOL   C395 9173   2.121   0.456   6.761  0.3707 -0.8505  0.2767
   20MOL   O396 9174   2.211   0.563   6.737 -0.0821  0.3158  0.0720
   20MOL   C397 9175   2.333   0.526   6.708  0.2075  0.1842 -0.3046
   20MOL   O398 9176   2.366   0.409   6.709  0.4046 -0.5886  0.2548
   20MOL   C399 9177   2.419   0.637   6.665 -0.1419  0.6781  0.5184
   20MOL   C400 9178   2.559   0.607   6.665 -0.5093 -0.5232 -0.1540
   20MOL   C401 9179   2.646   0.709   6.619  0.0493  0.0346 -0.3559
   20MOL   C402 9180   2.593   0.835   6.583 -0.3012 -0.0403  0.1387
   20MOL   C403 9181   2.680   0.950   6.547  0.4037  0.4022 -0.1651
   20MOL   O404 9182   2.803   0.946   6.570 -0.1529  0.4201  0.0063
   20MOL   O405 9183   2.618   1.053   6.479 -0.2525  0.1036  0.8694
   20MOL   C406 9184   2.453   0.867   6.586 -0.2007 -0.8229  0.1604
   20MOL   C407 9185   2.362   0.761   6.621 -0.7391 -0.0460  0.1408
   20MOL   H408 9186   1.989   0.329   6.652 -0.8202  0.1280 -2.8908
   20MOL   H409 9187   2.111   0.401   6.557  0.1823  0.6626  0.0892
   20MOL   H410 9188   2.175   0.366   6.791  0.2735  0.0411  3.2963
   20MOL   H411 9189   2.055   0.493   6.840  0.0412  0.9648 -0.8161
   20MOL   H412 9190   2.605   0.511   6.686 -1.9092 -1.1295  0.1778
   20MOL   H413 9191   2.752   0.689   6.604 -0.1005 -2.2883  1.3101
   20MOL   H414 9192   2.410   0.964   6.562 -0.3115 -0.4065  1.9888
   20MOL   H415 9193   2.255   0.778   6.619 -0.4007  2.1066 -0.5956
   20MOL   O416 9194   2.715   1.157   6.456  0.2004  0.2764  0.6841
   20MOL   C417 9195   2.680   1.270   6.526  0.2921 -0.1461 -0.0111
   20MOL   C418 9196   2.744   1.396   6.460  0.0174 -0.4385  0.2219
   20MOL   O419 9197   2.867   1.439   6.526 -0.2293 -0.3392  0.0172
   20MOL   C420 9198   2.977   1.447   6.451  0.7221  0.0909  0.4504
   20MOL   O421 9199   2.983   1.404   6.330 -0.0739 -0.0521  0.0339
   20MOL   C422 9200   3.087   1.523   6.519  0.5258 -0.4112  0.0871
   20MOL   C423 9201   3.220   1.499   6.482 -0.1527  0.0553 -0.3086
   20MOL   C424 9202   3.323   1.571   6.544  0.0093  0.2620 -0.1747
   20MOL   C425 9203   3.301   1.668   6.646 -0.4805  0.3534  0.6455
   20MOL   C426 9204   3.414   1.751   6.702  0.2141 -0.0340 -0.7539
   20MOL   O427 9205   3.534   1.742   6.678  0.1125  0.3563  0.4958
   20MOL   O428 9206   3.367   1.846   6.786 -0.0480  0.4299 -0.5771
   20MOL   C429 9207   3.168   1.681   6.677  0.7526 -0.3895  1.0329
   20MOL   C430 9208   3.062   1.609   6.621 -0.4866 -0.5233  0.6921
   20MOL   H431 9209   2.578   1.289   6.491  0.9405 -0.7759 -2.3446
   20MOL   H432 9210   2.694   1.268   6.634  0.6873  2.3443  0.0335
   20MOL   H433 9211   2.668   1.473   6.469 -1.6409 -2.3107  2.7211
   20MOL   H434 9212   2.764   1.370   6.356  0.8777 -0.8573  0.4819
   20MOL   H435 9213   3.244   1.432   6.401 -0.0555  1.2914 -1.3123
   20MOL   H436 9214   3.425   1.556   6.512  0.0694  3.5817 -1.7635
   20MOL   H437 9215   3.142   1.766   6.738  1.8831  0.9613 -0.3541
   20MOL   H438 9216   2.963   1.636   6.655 -0.1832 -0.0349  1.2077
   20MOL   O439 9217   3.476   1.931   6.852 -0.3594  0.3605  0.0288
   20MOL   C440 9218   3.484   2.051   6.795  0.3744 -0.4505 -0.1123
   20MOL   C441 9219   3.595   2.121   6.875 -0.3774  0.1887 -0.6232
   20MOL   O442 9220   3.542   2.208   6.968 -0.1923  0.0449  0.2762
   20MOL   C443 9221   3.635   2.277   7.040 -0.1729  0.4132 -0.4481
   20MOL   O444 9222   3.757   2.255   7.028  0.5087 -0.7040  0.1909
   20MOL   C445 9223   3.586   2.367   7.148  0.0698  0.1888  0.4370
   20MOL   C446 9224   3.443   2.382   7.167 -0.7954  0.9903  0.0626
   20MOL   C447 9225   3.394   2.462   7.266 -0.4585 -0.5937 -0.1981
   20MOL   C448 9226   3.488   2.529   7.355  0.5134  0.7538 -0.5578
   20MOL   C449 9227   3.446   2.607   7.477  0.3995  0.0853 -0.0015
   20MOL   O450 9228   3.525   2.666   7.548 -0.1917 -0.4793  0.2335
   20MOL   O451 9229   3.313   2.601   7.509  0.0481 -0.6206  0.1747
   20MOL   C452 9230   3.625   2.523   7.332 -0.2895  0.1317 -0.4058
   20MOL   C453 9231   3.675   2.436   7.228  0.0833  0.2742 -0.9697
   20MOL   H454 9232   3.519   2.045   6.692 -0.0171 -1.5547 -0.1878
   20MOL   H455 9233   3.382   2.089   6.801  0.2902 -0.5640 -0.8090
   20MOL   H456 9234   3.660   2.168   6.802  1.9976 -0.5150  0.9679
   20MOL   H457 9235   3.665   2.049   6.918 -0.8527 -0.2157 -0.5210
   20MOL   H458 9236   3.376   2.337   7.096 -0.4296 -1.0185  0.9739
   20MOL   H459 9237   3.290   2.488   7.277 -0.1383 -0.0543  1.7126
   20MOL   H460 9238   3.698   2.572   7.395  1.0203  0.8861 -2.4277
   20MOL   H461 9239   3.781   2.423   7.212  0.7893  0.8387  2.7859
   20MOL   H462 9240   3.288   2.637   7.593 -1.1925  1.2297 -0.9565
   21MOL     O1 9241   1.718   1.754   0.817 -0.5196  0.0524 -0.2517
   21MOL     C2 9242   1.717   1.621   0.782 -0.1777  0.6272  0.6620
   21MOL     C3 9243   1.691   1.534   0.901  0.1246  0.4744 -0.2088
   21MOL     O4 9244   1.549   1.517   0.916 -0.4687 -0.4080 -0.3568
   21MOL     C5 9245   1.485   1.613   0.988  0.2699  0.3902 -0.0980
   21MOL     O6 9246   1.539   1.687   1.068  0.5620 -0.0224  0.8172
   21MOL     C7 9247   1.337   1.614   0.955 -0.4595 -0.0833  0.2707
   21MOL     C8 9248   1.263   1.724   1.008  0.4542  0.1604  0.2031
   21MOL     C9 9249   1.123   1.736   0.974 -0.1942  0.2522 -0.1810
   21MOL    C10 9250   1.055   1.635   0.894  0.2606 -0.0542  0.1954
   21MOL    C11 9251   0.905   1.625   0.880  0.6399 -0.7616  0.0877
   21MOL    O12 9252   0.845   1.548   0.803 -0.1560 -0.0062  0.1387
   21MOL    O13 9253   0.836   1.719   0.963  0.3468  0.0596 -0.6196
   21MOL    C14 9254   1.129   1.527   0.849  0.0709 -0.7241 -0.7163
   21MOL    C15 9255   1.269   1.522   0.868  0.1095  0.8479  0.5739
   21MOL    H16 9256   1.651   1.591   0.701 -0.1537 -1.0582  1.2261
   21MOL    H17 9257   1.817   1.607   0.741 -1.7352 -1.3539 -2.6372
   21MOL    H18 9258   1.746   1.569   0.988  2.4482 -0.5525 -1.2148
   21MOL    H19 9259   1.744   1.442   0.877 -0.8991  0.3326 -2.0061
   21MOL    H20 9260   1.313   1.799   1.067  1.4313  1.1896 -1.8960
   21MOL    H21 9261   1.075   1.818   1.024 -0.2362  0.5079 -0.6387
   21MOL    H22 9262   1.095   1.447   0.786  1.7497 -2.2691  0.2992
   21MOL    H23 9263   1.331   1.444   0.826  2.6508  2.6711  0.8252
   21MOL    H24 9264   1.631   1.774   0.848 -1.4593 -2.0425 -1.4398
   21MOL    O25 9265   0.689   1.718   0.925 -0.2445 -0.3886  0.4591
   21MOL    C26 9266   0.628   1.617   1.008 -0.0742 -0.1133 -0.4160
   21MOL    C27 9267   0.649   1.668   1.150 -0.1132 -0.1552  0.3567
   21MOL    O28 9268   0.579   1.580   1.229  0.1768  0.0066  0.5269
   21MOL    C29 9269   0.457   1.620   1.273  0.3981  1.1381 -0.1208
   21MOL    O30 9270   0.414   1.738   1.278 -0.5142 -0.2453  0.1706
   21MOL    C31 9271   0.381   1.505   1.311  0.4155  0.4748  0.5164
   21MOL    C32 9272   0.247   1.524   1.363  0.3420 -0.3442 -0.7918
   21MOL    C33 9273   0.172   1.412   1.407 -0.4136  0.2625 -0.4704
   21MOL    C34 9274   0.218   1.282   1.392 -1.1491 -0.1105 -0.0585
   21MOL    C35 9275   0.133   1.169   1.436 -0.1561 -0.6121  0.5396
   21MOL    O36 9276   0.036   1.177   1.517 -0.7323 -0.4397  0.4004
   21MOL    O37 9277   0.160   1.058   1.379 -0.5520 -0.4654  0.8601
   21MOL    C38 9278   0.346   1.267   1.334  0.2417  0.4091 -0.6029
   21MOL    C39 9279   0.431   1.370   1.304 -0.1735  0.4223 -0.4598
   21MOL    H40 9280   0.524   1.613   0.974 -1.1058 -0.2165  2.5825
   21MOL    H41 9281   0.674   1.519   0.995 -0.4721 -0.1572 -1.5865
   21MOL    H42 9282   0.620   1.774   1.149 -0.5656 -0.2762 -0.9659
   21MOL    H43 9283   0.753   1.656   1.182 -0.2483 -1.8700  0.1488
   21MOL    H44 9284   0.211   1.625   1.376 -0.0182 -0.4149 -1.2261
   21MOL    H45 9285   0.071   1.433   1.438  0.4090  0.6330  2.0592
   21MOL    H46 9286   0.380   1.167   1.310 -1.1297 -0.9832  2.8096
   21MOL    H47 9287   0.526   1.345   1.258 -0.3193  2.8120 -2.1296
   21MOL    O48 9288   0.070   0.936   1.400 -0.3217 -0.3588 -0.3148
   21MOL    C49 9289   8.255   0.926   1.294  0.4227  0.4317  0.2689
   21MOL    C50 9290   8.144   0.832   1.340 -0.2353  0.2456 -0.1122
   21MOL    O51 9291   8.042   0.823   1.246 -0.3005  0.0731 -1.0642
   21MOL    C52 9292   7.965   0.706   1.246 -0.1534  0.4668  0.8070
   21MOL    O53 9293   7.972   0.619   1.332 -0.5690  0.2940  0.3032
   21MOL    C54 9294   7.854   0.707   1.144  0.1379  0.0890  0.7953
   21MOL    C55 9295   7.848   0.812   1.054 -0.1376 -0.1952 -0.0915
   21MOL    C56 9296   7.744   0.813   0.963  0.2396  0.0940 -0.1582
   21MOL    C57 9297   7.645   0.715   0.959 -0.4410 -0.0775  0.0890
   21MOL    C58 9298   7.546   0.710   0.848 -0.3473  0.3811 -0.0652
   21MOL    O59 9299   7.539   0.792   0.756  0.1243 -0.0183 -0.3069
   21MOL    O60 9300   7.468   0.604   0.863  0.2738 -0.6887  0.1619
   21MOL    C61 9301   7.651   0.614   1.053  0.0966 -0.0647  0.1786
   21MOL    C62 9302   7.745   0.610   1.156  0.5447  0.1856 -0.3623
   21MOL    H63 9303   8.217   1.027   1.277 -2.2820 -0.5228  0.3911
   21MOL    H64 9304   0.027   0.887   1.204  0.8202  1.3350  0.0811
   21MOL    H65 9305   8.099   0.853   1.437 -1.0474 -1.4259 -0.1137
   21MOL    H66 9306   8.191   0.736   1.359  0.2146  0.9397  2.4694
   21MOL    H67 9307   7.923   0.889   1.045 -0.9741  0.6661  0.2477
   21MOL    H68 9308   7.733   0.893   0.891  0.2222 -1.2735 -1.7057
   21MOL    H69 9309   7.580   0.532   1.053  1.3307 -1.1529  1.4973
   21MOL    H70 9310   7.740   0.543   1.240 -1.5863  2.2806  1.2491
   21MOL    O71 9311   7.378   0.572   0.752 -0.0337 -0.4459  0.4851
   21MOL    C72 9312   7.255   0.625   0.780  0.1616 -0.0516 -0.4617
   21MOL    C73 9313   7.200   0.692   0.662 -0.3490 -0.4207  0.2786
   21MOL    O74 9314   7.255   0.824   0.653 -0.5422 -0.1385 -0.1577
   21MOL    C75 9315   7.183   0.932   0.675  0.1118 -0.0755  0.2644
   21MOL    O76 9316   7.082   0.932   0.743  0.4817  0.2033 -0.2429
   21MOL    C77 9317   7.248   1.053   0.614 -0.3184  0.0020 -0.0316
   21MOL    C78 9318   7.364   1.049   0.534  0.8435 -0.3044 -0.3744
   21MOL    C79 9319   7.427   1.165   0.495  0.3455 -0.3086 -0.0618
   21MOL    C80 9320   7.368   1.292   0.524 -0.6200  0.3321 -0.0823
   21MOL    C81 9321   7.433   1.419   0.475  1.1971 -0.8082  0.1385
   21MOL    O82 9322   7.535   1.431   0.414 -0.6392 -0.5009  0.4244
   21MOL    O83 9323   7.349   1.533   0.500  0.3471  0.1187 -0.2877
   21MOL    C84 9324   7.237   1.299   0.582 -0.1766  0.1404  0.0747
   21MOL    C85 9325   7.182   1.181   0.621  0.3008 -0.5437  0.7415
   21MOL    H86 9326   7.192   0.541   0.808  0.3017 -0.4897 -1.4141
   21MOL    H87 9327   7.250   0.699   0.859  0.0033 -0.9554  0.3778
   21MOL    H88 9328   7.091   0.691   0.670 -0.3610 -2.0523  0.0764
   21MOL    H89 9329   7.225   0.641   0.568  0.8027 -1.1246  0.9600
   21MOL    H90 9330   7.412   0.954   0.514  0.8836 -0.0255 -1.6235
   21MOL    H91 9331   7.522   1.165   0.444 -0.3059  2.2262 -1.3463
   21MOL    H92 9332   7.187   1.393   0.602  1.1410  0.6304  1.1757
   21MOL    H93 9333   7.082   1.189   0.661  0.2369  1.2940  0.2594
   21MOL    O94 9334   7.414   1.667   0.489  0.0498  0.7027  0.3204
   21MOL    C95 9335   7.391   1.725   0.615  0.1725  0.5217  0.3240
   21MOL    C96 9336   7.500   1.836   0.632 -0.2402  0.5469  0.7164
   21MOL    O97 9337   7.609   1.770   0.694 -0.0304  0.1657  0.0106
   21MOL    C98 9338   7.720   1.728   0.627 -1.0595  1.0221 -0.7638
   21MOL    O99 9339   7.732   1.740   0.503 -0.1923 -0.4368  0.1549
   21MOL   C100 9340   7.832   1.686   0.722 -0.5119  1.0679  0.0420
   21MOL   C101 9341   7.951   1.640   0.667 -0.3075 -0.4978 -0.0864
   21MOL   C102 9342   8.077   1.632   0.741  0.6786 -0.2777 -0.9383
   21MOL   C103 9343   8.064   1.649   0.883  0.4500  0.2875 -0.1346
   21MOL   C104 9344   8.181   1.620   0.973 -0.1939  0.1915 -0.2765
   21MOL   O105 9345   0.006   1.566   0.937 -0.3789  0.0550  0.8870
   21MOL   O106 9346   8.170   1.674   1.093 -0.4790  0.0763  0.3768
   21MOL   C107 9347   7.935   1.673   0.943  0.3886  0.0064 -0.2748
   21MOL   C108 9348   7.821   1.696   0.865 -0.0090 -0.1621 -0.1829
   21MOL   H109 9349   7.291   1.768   0.619  0.2277  0.7182 -0.4473
   21MOL   H110 9350   7.409   1.649   0.691  1.7976  1.3508  0.7867
   21MOL   H111 9351   7.465   1.916   0.698 -2.0505  0.4712 -0.1354
   21MOL   H112 9352   7.515   1.887   0.537  0.9737  2.6329  1.9652
   21MOL   H113 9353   7.961   1.624   0.561 -1.4910 -1.1745 -0.0987
   21MOL   H114 9354   8.172   1.605   0.697  2.0601  0.0481  1.7364
   21MOL   H115 9355   7.930   1.671   1.051 -1.7735  0.4318 -0.3342
   21MOL   H116 9356   7.730   1.733   0.910  0.2015 -0.7147  0.7060
   21MOL   O117 9357   0.032   1.677   1.172 -0.2094  0.1783 -0.2895
   21MOL   C118 9358   0.087   1.808   1.151  0.3735 -0.5973  0.6591
   21MOL   C119 9359   0.202   1.795   1.059 -0.3575 -0.0116 -0.8328
   21MOL   O120 9360   0.175   1.800   0.925 -0.4117  0.6399 -0.6380
   21MOL   C121 9361   0.284   1.812   0.842  0.3326  0.3606 -0.1277
   21MOL   O122 9362   0.395   1.812   0.886 -0.0100 -0.0016  0.0259
   21MOL   C123 9363   0.262   1.802   0.693 -0.0376 -0.2424 -0.5421
   21MOL   C124 9364   0.138   1.775   0.638 -0.3262 -0.7612  0.2253
   21MOL   C125 9365   0.114   1.768   0.504  0.4981  0.2973  0.2723
   21MOL   C126 9366   0.218   1.796   0.412  0.0635  0.5513 -0.0621
   21MOL   C127 9367   0.193   1.790   0.271 -0.2456 -0.2036  0.3485
   21MOL   O128 9368   0.081   1.799   0.221 -0.1052  0.0363 -0.2668
   21MOL   O129 9369   0.308   1.765   0.203  0.2232  0.3896 -0.7529
   21MOL   C130 9370   0.342   1.830   0.462 -0.5792  0.1708  0.0845
   21MOL   C131 9371   0.365   1.828   0.604 -0.1396  0.1678 -0.2154
   21MOL   H132 9372   0.018   1.872   1.096  2.9348  1.8895  0.2308
   21MOL   H133 9373   0.112   1.855   1.246 -1.3173 -1.2965  1.4864
   21MOL   H134 9374   0.257   1.703   1.077  1.4200  1.3331  0.9238
   21MOL   H135 9375   0.271   1.878   1.078  0.0415 -0.5697  0.1882
   21MOL   H136 9376   0.057   1.756   0.706 -0.7719  0.3475  0.0314
   21MOL   H137 9377   0.015   1.739   0.473 -0.3277  0.4785  2.6496
   21MOL   H138 9378   0.420   1.852   0.391 -0.3113 -2.5715 -0.5073
   21MOL   H139 9379   0.462   1.851   0.646 -0.0030  1.5322 -1.2389
   21MOL   O140 9380   0.294   1.735   0.056 -0.3949 -0.1393  0.4733
   21MOL   C141 9381   0.299   1.603   0.045  0.0623  0.1282 -0.1803
   21MOL   C142 9382   0.312   1.578   8.175  0.7120 -0.1655 -1.1283
   21MOL   O143 9383   0.212   1.489   8.128 -0.1819  0.6989 -0.8143
   21MOL   C144 9384   0.238   1.361   8.128  0.5333 -0.7458 -0.8826
   21MOL   O145 9385   0.348   1.310   8.150 -0.3289  0.1225  0.4873
   21MOL   C146 9386   0.116   1.278   8.097  0.1101 -0.0710  0.2213
   21MOL   C147 9387   0.126   1.135   8.095  0.1263 -0.4232  0.2066
   21MOL   C148 9388   0.016   1.050   8.074  0.1666 -0.6517  0.8586
   21MOL   C149 9389   8.162   1.116   8.060  0.6036 -0.3743  0.7618
   21MOL   C150 9390   8.045   1.027   8.032  0.1071 -0.4082  1.1177
   21MOL   O151 9391   8.050   0.905   8.043 -0.0624  0.6409 -0.4856
   21MOL   O152 9392   7.935   1.090   8.003  0.1043  0.0735  0.3996
   21MOL   C153 9393   8.153   1.256   8.059 -0.0161 -0.0859 -0.0531
   21MOL   C154 9394   8.265   1.337   8.079 -0.4486  0.2690  0.1080
   21MOL   H155 9395   0.382   1.562   0.103 -0.9954 -2.4449 -0.4354
   21MOL   H156 9396   0.212   1.553   0.088 -0.2923  1.3251  0.5038
   21MOL   H157 9397   0.413   1.557   8.140  1.3636 -3.4374  2.5102
   21MOL   H158 9398   0.281   1.667   8.119  1.8707  1.3845  0.6288
   21MOL   H159 9399   0.229   1.101   8.099 -0.9554 -3.6709  2.7470
   21MOL   H160 9400   0.026   0.942   8.069 -1.9666 -0.7733 -1.1611
   21MOL   H161 9401   8.058   1.307   8.052 -0.8150 -1.4509  0.5701
   21MOL   H162 9402   8.239   1.440   8.096  1.3506  0.8642 -0.6686
   21MOL   O163 9403   7.816   1.000   7.942 -0.6611  0.1996  0.6589
   21MOL   C164 9404   7.736   0.954   8.048 -0.0590  0.5885 -0.5753
   21MOL   C165 9405   7.670   1.066   8.132  0.3483 -0.4288  0.0294
   21MOL   O166 9406   7.753   1.111   8.236  0.4759 -0.4021 -0.2178
   21MOL   C167 9407   7.720   1.216   0.032 -0.1088 -0.1013 -0.4441
   21MOL   O168 9408   7.610   1.276   0.027 -0.6533  0.2646 -0.5080
   21MOL   C169 9409   7.834   1.258   0.117  0.1597  0.4813 -0.1698
   21MOL   C170 9410   7.964   1.217   0.083 -0.1702 -0.3716 -0.7785
   21MOL   C171 9411   8.078   1.259   0.162  0.6633  0.7847  0.1987
   21MOL   C172 9412   8.058   1.358   0.260  0.2818 -0.0249 -0.5233
   21MOL   C173 9413   8.176   1.411   0.326  0.3032 -0.0482 -0.4048
   21MOL   O174 9414   8.172   1.475   0.430 -0.2966  0.5321  0.5037
   21MOL   O175 9415   0.014   1.387   0.255 -0.1973 -0.3956  0.2187
   21MOL   C176 9416   7.925   1.401   0.290 -0.7181 -0.0477  0.0026
   21MOL   C177 9417   7.815   1.336   0.234 -0.4013  0.4448  0.7052
   21MOL   H178 9418   7.655   0.893   8.011 -0.1888  1.7641 -2.2717
   21MOL   H179 9419   7.792   0.897   8.122 -0.3679  0.0997 -0.7188
   21MOL   H180 9420   7.575   1.042   8.179 -0.0592  0.5173 -0.2950
   21MOL   H181 9421   7.642   1.149   8.067  0.1108 -0.0987  0.5580
   21MOL   H182 9422   7.977   1.150   8.275 -0.9309 -2.9169  1.1107
   21MOL   H183 9423   8.176   1.225   0.132 -0.0947 -1.0400 -0.2690
   21MOL   H184 9424   7.892   1.482   0.352  0.5221 -1.6691  2.8698
   21MOL   H185 9425   7.714   1.368   0.256 -0.1515  0.9472  1.1392
   21MOL   O186 9426   0.133   1.478   0.292  0.6018 -1.0835 -0.2735
   21MOL   C187 9427   0.205   1.412   0.396 -0.0756  0.1453  0.5182
   21MOL   C188 9428   0.340   1.472   0.404  0.2914 -0.5583 -0.1723
   21MOL   O189 9429   0.431   1.398   0.495 -0.3411  0.2314  0.0821
   21MOL   C190 9430   0.421   1.428   0.625 -0.2092  0.5162 -0.4734
   21MOL   O191 9431   0.355   1.519   0.673  0.3730 -0.2665  0.8275
   21MOL   C192 9432   0.497   1.334   0.713  0.2503 -0.3214  0.7510
   21MOL   C193 9433   0.471   1.334   0.851 -0.1022  0.3031  0.1146
   21MOL   C194 9434   0.540   1.259   0.943  0.1932  0.6560 -0.2117
   21MOL   C195 9435   0.636   1.165   0.894 -0.1762 -0.2705  0.1119
   21MOL   C196 9436   0.689   1.063   0.990  0.0238 -0.0352  0.3264
   21MOL   O197 9437   0.648   1.056   1.106 -0.3169  0.1005  0.4928
   21MOL   O198 9438   0.769   0.978   0.933 -0.1404 -0.6470 -0.1178
   21MOL   C199 9439   0.662   1.165   0.753 -0.3626  0.2209  0.2785
   21MOL   C200 9440   0.598   1.252   0.664  0.3296  0.3700 -0.4711
   21MOL   H201 9441   0.152   1.415   0.491  1.4242  0.2497  1.3745
   21MOL   H202 9442   0.206   1.308   0.366 -0.5339  1.0064 -2.6501
   21MOL   H203 9443   0.348   1.578   0.429 -0.9730 -0.3483 -0.6407
   21MOL   H204 9444   0.397   1.468   0.312 -0.0991 -0.4385 -0.4191
   21MOL   H205 9445   0.412   1.417   0.887  0.8600  0.0262  2.4166
   21MOL   H206 9446   0.531   1.285   1.047 -1.0360 -0.5180 -0.0049
   21MOL   H207 9447   0.729   1.091   0.713 -1.5149 -0.1665 -0.9764
   21MOL   H208 9448   0.631   1.241   0.562  1.9848 -0.3813  0.1094
   21MOL   O209 9449   0.801   0.856   1.018  0.4309  0.3932 -0.3651
   21MOL   C210 9450   0.936   0.867   1.070  0.6909  0.3225 -0.3738
   21MOL   C211 9451   0.939   0.798   1.205  0.2579  0.0275  0.2249
   21MOL   O212 9452   0.936   0.659   1.178 -0.2728 -0.7060 -0.1343
   21MOL   C213 9453   1.039   0.580   1.189 -0.2400 -0.2679  0.3337
   21MOL   O214 9454   1.154   0.621   1.200 -0.2898 -0.0318  0.4235
   21MOL   C215 9455   1.011   0.434   1.183 -0.3419 -0.3497 -0.7325
   21MOL   C216 9456   1.113   0.331   1.186  0.2285  0.1308 -0.1338
   21MOL   C217 9457   1.087   0.190   1.195 -0.3774 -0.0359 -0.5725
   21MOL   C218 9458   0.952   0.149   1.182  0.2509  0.2531  0.3062
   21MOL   C219 9459   0.920   0.003   1.168 -0.0216  0.0847  0.4303
   21MOL   O220 9460   0.806   8.237   1.146  0.2304  0.0041 -0.1774
   21MOL   O221 9461   1.020   8.199   1.195  0.0977 -0.1548 -0.1983
   21MOL   C222 9462   0.846   0.249   1.169  0.1758  0.1375 -0.5317
   21MOL   C223 9463   0.874   0.389   1.171 -0.1779 -0.2740 -0.4356
   21MOL   H224 9464   1.003   0.825   0.995  1.5120  1.2452 -0.1751
   21MOL   H225 9465   0.957   0.974   1.076  0.2343  0.4150 -0.4163
   21MOL   H226 9466   0.854   0.837   1.261 -0.4668 -1.0481 -0.1116
   21MOL   H227 9467   1.031   0.828   1.255  0.0375 -0.1339  0.7358
   21MOL   H228 9468   1.218   0.356   1.185  0.0468  1.0296  1.4036
   21MOL   H229 9469   1.157   0.111   1.216 -1.8044 -1.5987 -1.6011
   21MOL   H230 9470   0.744   0.216   1.156 -0.1602  0.9236  0.0391
   21MOL   H231 9471   0.792   0.460   1.173  0.4084  0.3872  0.2268
   21MOL   O232 9472   0.982   8.056   1.195 -0.0931 -0.6281 -0.0005
   21MOL   C233 9473   1.058   7.996   1.089  0.0024 -0.8953 -0.0441
   21MOL   C234 9474   1.062   7.847   1.109 -0.8888 -0.1763 -0.8494
   21MOL   O235 9475   0.943   7.776   1.087 -0.7645  0.6661  0.1248
   21MOL   C236 9476   0.933   7.710   0.971 -0.6141  0.1860  0.0266
   21MOL   O237 9477   1.028   7.690   0.893 -0.0748  0.7884 -0.2999
   21MOL   C238 9478   0.791   7.670   0.939  0.1015  0.1900  0.5043
   21MOL   C239 9479   0.765   7.605   0.818  0.3313 -0.2541 -0.6666
   21MOL   C240 9480   0.632   7.581   0.783  0.1125 -0.2829 -0.3192
   21MOL   C241 9481   0.525   7.624   0.859  0.1595 -0.3888 -0.2811
   21MOL   C242 9482   0.387   7.622   0.805  0.1749 -0.8078  0.2101
   21MOL   O243 9483   0.363   7.629   0.687  1.4210  0.1785  0.6807
   21MOL   O244 9484   0.290   7.605   0.905  0.2801  1.0629  0.0797
   21MOL   C245 9485   0.549   7.698   0.978 -0.3526 -0.1197 -0.4364
   21MOL   C246 9486   0.683   7.719   1.022 -0.0393 -0.4062  0.1463
   21MOL   H247 9487   1.035   8.025   0.987 -0.3181 -2.6222 -0.4807
   21MOL   H248 9488   1.164   8.020   1.097  0.0540 -1.1688  0.0904
   21MOL   H249 9489   1.073   7.859   1.216 -2.0568  1.1192 -0.8621
   21MOL   H250 9490   1.151   7.800   1.066 -0.5222  0.7655 -1.1637
   21MOL   H251 9491   0.848   7.572   0.758  0.7800  0.2832 -0.3431
   21MOL   H252 9492   0.615   7.527   0.691 -0.6305  1.0828 -0.9898
   21MOL   H253 9493   0.464   7.735   1.034 -0.6815 -1.4774 -0.0233
   21MOL   H254 9494   0.703   7.770   1.115  0.2725  1.6357 -1.0065
   21MOL   O255 9495   0.159   7.554   0.855  0.7153  0.8834  0.0758
   21MOL   C256 9496   0.063   7.656   0.859 -0.8251  0.1615  0.0311
   21MOL   C257 9497   8.204   7.606   0.801  0.2509  0.3634 -0.4418
   21MOL   O258 9498   8.139   7.534   0.912 -0.1603  0.3769  0.3230
   21MOL   C259 9499   8.051   7.595   0.997 -0.2657  0.3028  0.0242
   21MOL   O260 9500   7.994   7.705   0.983  0.6699  0.2034 -0.0154
   21MOL   C261 9501   8.046   7.521   1.126  0.4291 -0.1221  0.2323
   21MOL   C262 9502   7.979   7.590   1.230 -0.2153 -0.1040  0.0853
   21MOL   C263 9503   7.979   7.533   1.359  0.3351  0.5119 -0.7364
   21MOL   C264 9504   8.042   7.405   1.388  0.1091  0.1981  0.0896
   21MOL   C265 9505   8.037   7.350   1.527  0.1281  0.1345 -0.2724
   21MOL   O266 9506   8.093   7.249   1.568 -0.1770  0.2542  0.4508
   21MOL   O267 9507   7.965   7.432   1.605  0.1813  0.1952  0.0664
   21MOL   C268 9508   8.109   7.343   1.278 -0.6682 -0.0436 -0.1165
   21MOL   C269 9509   8.107   7.394   1.150 -0.0085  0.4960  0.7917
   21MOL   H270 9510   0.054   7.703   0.957 -0.1272 -1.3399  0.8355
   21MOL   H271 9511   0.099   7.740   0.799  0.7094 -0.2116  0.3916
   21MOL   H272 9512   8.220   7.547   0.711 -0.7617  0.8177 -0.9248
   21MOL   H273 9513   8.159   7.698   0.764 -1.7111 -0.2274  0.3928
   21MOL   H274 9514   7.933   7.687   1.219  2.1092  1.3631  2.6158
   21MOL   H275 9515   7.921   7.585   1.433  1.8699 -0.7810  1.4244
   21MOL   H276 9516   8.144   7.243   1.298  2.9590  1.1969  0.0708
   21MOL   H277 9517   8.160   7.343   1.071 -0.8847  1.4480 -0.4173
   21MOL   O278 9518   7.929   7.367   1.730 -0.0736 -1.0425 -0.2607
   21MOL   C279 9519   8.037   7.395   1.824  0.7171 -0.8151  0.1393
   21MOL   C280 9520   8.013   7.348   1.964  0.0943 -0.2889  0.1229
   21MOL   O281 9521   8.103   7.397   2.060 -0.6863 -0.6889 -0.3482
   21MOL   C282 9522   8.208   7.332   2.102 -0.0441 -0.8535 -0.7774
   21MOL   O283 9523   8.262   7.239   2.040  0.2632 -0.0454  0.5692
   21MOL   C284 9524   8.261   7.378   2.240  0.3501  0.2407 -0.3765
   21MOL   C285 9525   8.196   7.483   2.313 -0.4536  0.4416  0.2236
   21MOL   C286 9526   8.239   7.518   2.443  0.3595  0.4435 -0.6219
   21MOL   C287 9527   0.070   7.451   2.503  0.3303 -0.1793  0.4904
   21MOL   C288 9528   0.102   7.474   2.644  0.5706 -0.3170  0.3816
   21MOL   O289 9529   0.155   7.388   2.714  0.3066 -0.6742 -0.5064
   21MOL   O290 9530   0.070   7.598   2.680  0.2065  0.2134  0.0120
   21MOL   C291 9531   0.137   7.346   2.435 -0.3411  0.1920 -0.1498
   21MOL   C292 9532   0.094   7.315   2.305 -0.7248 -0.5068  0.2427
   21MOL   H293 9533   8.127   7.349   1.784 -0.7982 -3.3853 -0.3592
   21MOL   H294 9534   8.073   7.498   1.815  1.4795 -0.7649  3.0976
   21MOL   H295 9535   8.004   7.239   1.966  1.3418 -0.3944  0.8284
   21MOL   H296 9536   7.915   7.382   1.995  0.0700 -0.5868  0.3734
   21MOL   H297 9537   8.120   7.533   2.255  0.8453  1.1047 -0.9332
   21MOL   H298 9538   8.176   7.595   2.486 -0.3011 -1.5521  2.1477
   21MOL   H299 9539   0.214   7.288   2.482  1.5245  1.9701 -0.9414
   21MOL   H300 9540   0.164   7.248   2.258  0.2766  1.3501 -0.9850
   21MOL   O301 9541   0.036   7.616   2.825 -0.0553 -0.3128 -0.0071
   21MOL   C302 9542   8.177   7.569   2.848 -0.3453  0.1054 -0.9428
   21MOL   C303 9543   8.113   7.672   2.949  0.3262 -0.4643 -0.4581
   21MOL   O304 9544   8.094   7.799   2.885 -0.1117 -0.3918  0.1547
   21MOL   C305 9545   8.086   7.911   2.948  0.7326 -0.3063 -0.1916
   21MOL   O306 9546   8.098   7.931   3.067 -0.3587  0.7946  0.1322
   21MOL   C307 9547   8.056   8.028   2.862 -1.0008 -0.7734 -0.2737
   21MOL   C308 9548   8.094   8.157   2.904  0.1093  0.2756  0.4487
   21MOL   C309 9549   8.072   8.271   2.826 -0.2249  0.0128 -0.2020
   21MOL   C310 9550   8.022   8.261   2.692  0.1536 -0.7207 -0.2687
   21MOL   C311 9551   7.990   0.108   2.605  0.0251 -0.4489 -0.1531
   21MOL   O312 9552   7.905   0.110   2.515 -0.3250 -0.0830  0.9150
   21MOL   O313 9553   8.060   0.225   2.630  0.0185  0.2311 -0.2274
   21MOL   C314 9554   7.994   8.130   2.648 -0.3175 -0.4936  0.1076
   21MOL   C315 9555   7.996   8.015   2.735 -0.1548  0.2506  0.7906
   21MOL   H316 9556   8.108   7.559   2.764 -2.8103 -1.6601  1.1993
   21MOL   H317 9557   8.179   7.477   2.906  1.6815  0.7638  0.0766
   21MOL   H318 9558   8.194   7.669   3.023 -0.7177 -0.1040  0.7226
   21MOL   H319 9559   8.027   7.633   3.004  0.8331 -0.1955  0.5489
   21MOL   H320 9560   8.145   8.171   2.998 -0.1138 -2.3828  0.9863
   21MOL   H321 9561   8.098   0.092   2.868  0.6606  0.7320 -2.3279
   21MOL   H322 9562   7.943   8.115   2.554  0.8883  1.3230 -0.8730
   21MOL   H323 9563   7.959   7.925   2.689  0.9064  0.5822 -0.7499
   21MOL   O324 9564   8.028   0.336   2.536 -0.0558  0.0018 -0.2171
   21MOL   C325 9565   7.959   0.436   2.613  0.6987 -0.3831  0.0627
   21MOL   C326 9566   7.904   0.548   2.532  0.2523 -0.3486 -0.3597
   21MOL   O327 9567   7.756   0.530   2.517 -0.2264 -0.1360 -0.3056
   21MOL   C328 9568   7.709   0.420   2.440  0.3046  0.2480  0.0828
   21MOL   O329 9569   7.776   0.362   2.356  0.3894 -0.0254 -0.6445
   21MOL   C330 9570   7.569   0.384   2.469  0.1367 -0.0911  0.5446
   21MOL   C331 9571   7.527   0.258   2.438  0.8209  0.7331 -0.2831
   21MOL   C332 9572   7.398   0.217   2.478  0.0743  0.0546 -0.0419
   21MOL   C333 9573   7.311   0.307   2.545  0.0127  0.5151 -0.0810
   21MOL   C334 9574   7.170   0.267   2.572  0.5304  0.5813  0.0945
   21MOL   O335 9575   7.090   0.337   2.635  0.3989  0.2673  0.7171
   21MOL   O336 9576   7.135   0.151   2.520  0.8573  0.6907 -0.0027
   21MOL   C337 9577   7.361   0.434   2.580  0.2278 -0.2304 -0.2477
   21MOL   C338 9578   7.490   0.475   2.542  0.6337  0.4609 -0.4677
   21MOL   H339 9579   7.884   0.385   2.674 -1.1372 -0.2693 -2.0239
   21MOL   H340 9580   8.033   0.476   2.683 -1.9409 -0.2408  2.8566
   21MOL   H341 9581   7.951   0.561   2.434  1.6255  0.9135  0.4475
   21MOL   H342 9582   7.926   0.647   2.572  0.6178  0.1757 -1.8220
   21MOL   H343 9583   7.604   0.192   2.401  0.0963  0.1350 -0.7436
   21MOL   H344 9584   7.371   0.113   2.464 -0.4226  0.0745  0.7312
   21MOL   H345 9585   7.306   0.509   2.635  0.1174 -0.1631 -0.4512
   21MOL   H346 9586   7.521   0.576   2.563  1.5046  0.1895 -0.4285
   21MOL   O347 9587   6.996   0.113   2.543 -0.3592  0.1674  0.2115
   21MOL   C348 9588   6.911   0.157   2.434  0.5847  0.4020  0.0722
   21MOL   C349 9589   6.768   0.141   2.471  0.1939  1.0301 -0.5551
   21MOL   O350 9590   6.732   0.231   2.577 -0.3356 -0.0741  0.3664
   21MOL   C351 9591   6.727   0.187   2.705  0.1157  0.3300  0.3835
   21MOL   O352 9592   6.770   0.075   2.757 -0.2505 -0.4888  0.4382
   21MOL   C353 9593   6.657   0.288   2.792  0.0155 -0.4873  0.7283
   21MOL   C354 9594   6.581   0.393   2.740  0.3727  0.4206 -0.2082
   21MOL   C355 9595   6.503   0.475   2.829  0.6922  0.3300 -0.1769
   21MOL   C356 9596   6.523   0.472   2.972  0.2444  0.6192  0.1151
   21MOL   C357 9597   6.466   0.573   3.065 -0.1647  0.4442 -0.2360
   21MOL   O358 9598   6.429   0.543   3.177 -0.4147  0.0047  0.0009
   21MOL   O359 9599   6.462   0.690   3.010  0.3592 -0.3276  1.1292
   21MOL   C360 9600   6.604   0.366   3.017 -0.9040 -0.4308  0.0735
   21MOL   C361 9601   6.672   0.274   2.933 -0.2291  0.7729 -0.1114
   21MOL   H362 9602   6.929   0.260   2.404  3.4888  0.2251  1.0202
   21MOL   H363 9603   6.927   0.100   2.343  0.8806  0.4315  0.1060
   21MOL   H364 9604   6.747   0.037   2.497  0.5380  1.2737  0.7239
   21MOL   H365 9605   6.697   0.172   2.395 -0.9409  0.1787  0.1361
   21MOL   H366 9606   6.560   0.398   2.634 -1.2140 -0.6214  0.0523
   21MOL   H367 9607   6.433   0.544   2.783  0.0071 -1.5655 -2.0738
   21MOL   H368 9608   6.621   0.356   3.123 -2.1650 -2.2451  0.1357
   21MOL   H369 9609   6.723   0.190   2.976  1.4994  1.3887 -0.9088
   21MOL   O370 9610   6.397   0.793   3.107 -0.0135  0.5415 -0.4428
   21MOL   C371 9611   6.497   0.857   3.184  0.5082 -0.1724 -0.3129
   21MOL   C372 9612   6.564   0.978   3.116  0.1504 -0.5259  0.6638
   21MOL   O373 9613   6.500   1.103   3.130 -0.2350 -0.0339  0.0645
   21MOL   C374 9614   6.524   1.188   3.236 -0.3561  0.6134 -0.1070
   21MOL   O375 9615   6.586   1.155   3.332 -1.0412  0.0206  0.1091
   21MOL   C376 9616   6.459   1.324   3.233 -1.0467  0.2662  0.4561
   21MOL   C377 9617   6.376   1.354   3.129 -0.3753  1.0316  0.1251
   21MOL   C378 9618   6.315   1.478   3.118 -0.2802  0.1830  0.7298
   21MOL   C379 9619   6.339   1.575   3.215  0.5805  0.4169  0.1313
   21MOL   C380 9620   6.278   1.708   3.191 -0.0015 -0.4500 -0.1499
   21MOL   O381 9621   6.216   1.737   3.088  0.9040 -0.4432  0.3223
   21MOL   O382 9622   6.287   1.785   3.301 -0.9339 -0.6632 -0.3366
   21MOL   C383 9623   6.415   1.539   3.329 -0.0913 -0.3904  0.6805
   21MOL   C384 9624   6.481   1.416   3.334 -0.5084 -0.4177  0.4981
   21MOL   H385 9625   6.461   0.903   3.276  0.3286  0.4797 -0.7106
   21MOL   H386 9626   6.574   0.784   3.207  1.1053  0.8503  1.0441
   21MOL   H387 9627   6.589   0.963   3.011 -0.2919  0.1730  0.4541
   21MOL   H388 9628   6.659   0.988   3.167  0.0680 -1.0470  0.9212
   21MOL   H389 9629   6.349   1.277   3.058  0.1025 -0.1636  1.2043
   21MOL   H390 9630   6.246   1.501   3.037 -0.8695 -0.4714  1.0472
   21MOL   H391 9631   6.444   1.616   3.399 -1.4268  1.1171 -0.3953
   21MOL   H392 9632   6.550   1.392   3.413 -0.8834  2.0820  1.6193
   21MOL   O393 9633   6.192   1.897   3.292  0.0809  0.0372 -0.4242
   21MOL   C394 9634   6.262   2.014   3.275  0.0349 -0.0799 -0.1088
   21MOL   C395 9635   6.156   2.128   3.277 -0.0217 -0.2145 -0.0604
   21MOL   O396 9636   6.056   2.112   3.373  0.4285  0.2849 -0.8420
   21MOL   C397 9637   5.953   2.200   3.371 -0.4702  0.8646 -0.6006
   21MOL   O398 9638   5.950   2.300   3.301 -0.1160 -0.4104 -0.2249
   21MOL   C399 9639   5.846   2.168   3.466 -0.3903  0.2762  0.5252
   21MOL   C400 9640   5.861   2.061   3.564 -0.7466  0.4498  0.0205
   21MOL   C401 9641   5.755   2.039   3.655  0.5214 -0.2851  0.3597
   21MOL   C402 9642   5.642   2.125   3.646 -0.0426  0.5270 -0.0511
   21MOL   C403 9643   5.527   2.111   3.738  0.4081  0.1855 -0.1092
   21MOL   O404 9644   5.412   2.152   3.713  0.1840  0.2783 -0.2900
   21MOL   O405 9645   5.560   2.057   3.857 -0.0279  0.2436 -0.3820
   21MOL   C406 9646   5.623   2.217   3.546  0.9275 -0.5094  0.1768
   21MOL   C407 9647   5.728   2.244   3.460 -0.0963 -0.2053  0.2769
   21MOL   H408 9648   6.331   2.030   3.357  1.7741  0.0755 -1.5644
   21MOL   H409 9649   6.322   2.004   3.184  1.4747  0.8951  0.7135
   21MOL   H410 9650   6.106   2.133   3.181 -0.1225 -1.4458 -0.0874
   21MOL   H411 9651   6.206   2.223   3.296  0.6067 -0.8618  1.6579
   21MOL   H412 9652   5.938   1.986   3.553  1.5647  2.9057 -0.8129
   21MOL   H413 9653   5.753   1.966   3.734 -3.6352 -1.2026 -0.4459
   21MOL   H414 9654   5.532   2.270   3.521  0.7479 -1.0999 -0.4348
   21MOL   H415 9655   5.719   2.313   3.377 -0.9357 -0.5399  0.0871
   21MOL   O416 9656   5.441   2.026   3.947  0.0024 -0.1609  0.0239
   21MOL   C417 9657   5.399   2.151   4.010  0.0721 -0.8522  0.1201
   21MOL   C418 9658   5.298   2.122   4.120 -0.0629 -0.0223 -0.7463
   21MOL   O419 9659   5.170   2.165   4.083  0.3748  0.6913  0.3573
   21MOL   C420 9660   5.104   2.108   3.986  0.2095 -0.0601 -0.3685
   21MOL   O421 9661   5.149   2.026   3.911 -0.0930  0.4050  0.1244
   21MOL   C422 9662   4.953   2.153   3.988 -0.5642 -0.5512  0.6533
   21MOL   C423 9663   4.888   2.224   4.095 -0.3405  0.7415  0.7781
   21MOL   C424 9664   4.751   2.255   4.075 -0.0881  0.3593 -0.4451
   21MOL   C425 9665   4.680   2.221   3.958 -0.4356 -0.4387  0.1109
   21MOL   C426 9666   4.540   2.273   3.945 -0.2710  0.2285  0.5507
   21MOL   O427 9667   4.486   2.336   4.038  0.5359 -0.2388  0.1721
   21MOL   O428 9668   4.487   2.244   3.826 -0.0095  0.8648 -0.1533
   21MOL   C429 9669   4.742   2.147   3.853  0.2993 -0.2389  0.2686
   21MOL   C430 9670   4.882   2.125   3.868 -0.3061 -0.5229  0.5965
   21MOL   H431 9671   5.481   2.209   4.052  1.1422 -2.5768  0.5062
   21MOL   H432 9672   5.361   2.213   3.930 -0.3268 -1.1035  0.1142
   21MOL   H433 9673   5.323   2.186   4.205  1.0085 -1.4048  0.0072
   21MOL   H434 9674   5.299   2.018   4.153  0.3016  0.0506 -0.5149
   21MOL   H435 9675   4.950   2.250   4.180  0.2341  2.6273 -0.1945
   21MOL   H436 9676   4.693   2.310   4.147  1.1619  1.2986 -0.1182
   21MOL   H437 9677   4.685   2.135   3.761  0.3523  2.7043 -0.2073
   21MOL   H438 9678   4.940   2.083   3.788  0.4572  0.5975  0.5516
   21MOL   O439 9679   4.355   2.313   3.801  0.3382  0.3275  0.0533
   21MOL   C440 9680   4.373   2.440   3.751  0.1241  0.2370 -0.0681
   21MOL   C441 9681   4.380   2.443   3.602 -0.2486  0.3744  0.5506
   21MOL   O442 9682   4.516   2.435   3.561  0.4836  0.5057 -0.4321
   21MOL   C443 9683   4.556   2.327   3.485  0.5088 -0.6206  0.3723
   21MOL   O444 9684   4.489   2.247   3.420  0.1977 -0.3491  0.9568
   21MOL   C445 9685   4.703   2.323   3.474  0.0220 -0.3781 -0.0410
   21MOL   C446 9686   4.763   2.244   3.374  0.5769 -0.2700 -0.6276
   21MOL   C447 9687   4.898   2.231   3.369  0.2825 -0.6119  0.8045
   21MOL   C448 9688   4.982   2.283   3.472 -0.8205 -0.0809 -0.7905
   21MOL   C449 9689   5.123   2.242   3.485  0.3738 -0.6114  0.0797
   21MOL   O450 9690   5.182   2.190   3.395 -0.3871 -0.1640 -0.5200
   21MOL   O451 9691   5.173   2.242   3.614 -0.1483 -0.3792 -0.1413
   21MOL   C452 9692   4.922   2.368   3.569 -0.1536  0.8027  0.4149
   21MOL   C453 9693   4.788   2.389   3.565  0.4854 -0.0115 -0.3683
   21MOL   H454 9694   4.293   2.507   3.782 -0.4880 -0.1973 -0.6918
   21MOL   H455 9695   4.458   2.484   3.802 -2.1682  1.0934  3.1332
   21MOL   H456 9696   4.338   2.541   3.576  1.9671  0.9147 -1.1670
   21MOL   H457 9697   4.316   2.373   3.548 -2.0387  2.5005 -0.1685
   21MOL   H458 9698   4.703   2.196   3.299 -0.6778 -0.7865  0.6735
   21MOL   H459 9699   4.942   2.163   3.297 -0.0676 -1.7512  1.6653
   21MOL   H460 9700   4.984   2.416   3.644 -3.6738  3.3397  1.8251
   21MOL   H461 9701   4.752   2.442   3.652  1.3608  0.6041 -0.3709
   21MOL   H462 9702   5.251   2.190   3.621  0.3686  0.1029 -2.0165
   22MOL     O1 9703   7.526   0.593   1.956  0.0707 -0.1102  0.1632
   22MOL     C2 9704   7.641   0.517   1.934 -0.2557 -0.4916  0.0150
   22MOL     C3 9705   7.698   0.468   2.063  0.2372 -0.2537  0.0244
   22MOL     O4 9706   7.767   0.580   2.126  0.1064 -0.0619  0.3940
   22MOL     C5 9707   7.902   0.598   2.117 -0.2154 -0.7986  0.4005
   22MOL     O6 9708   7.979   0.515   2.086  0.6232  0.7476  0.7293
   22MOL     C7 9709   7.944   0.732   2.169 -0.1738  0.2078 -0.0764
   22MOL     C8 9710   8.071   0.775   2.135 -0.2184 -0.0945  0.0487
   22MOL     C9 9711   8.111   0.900   2.176  0.0374 -0.3824 -0.0781
   22MOL    C10 9712   8.024   0.976   2.254 -0.0247 -0.3127 -0.0271
   22MOL    C11 9713   8.071   1.103   2.310  0.1702  0.1369  0.1930
   22MOL    O12 9714   7.996   1.185   2.366  0.5867  0.1575  0.3985
   22MOL    O13 9715   8.211   1.116   2.298  0.4238  0.3263 -0.5564
   22MOL    C14 9716   7.895   0.939   2.292  0.3855 -0.2116 -0.5748
   22MOL    C15 9717   7.855   0.815   2.246 -0.4393  1.0408  0.9274
   22MOL    H16 9718   7.607   0.426   1.883 -0.2941 -1.0443  1.0185
   22MOL    H17 9719   7.720   0.570   1.881 -0.9369  0.3479 -0.1567
   22MOL    H18 9720   7.762   0.380   2.053  2.9583  1.8350 -1.9796
   22MOL    H19 9721   7.619   0.432   2.128 -0.3246  0.0355 -0.4939
   22MOL    H20 9722   8.129   0.709   2.072 -0.8050 -2.4365  1.8982
   22MOL    H21 9723   8.206   0.927   2.133 -0.2291 -1.7443 -1.5634
   22MOL    H22 9724   7.833   1.005   2.350  1.2211 -0.1902  0.3177
   22MOL    H23 9725   7.759   0.778   2.280 -0.6928  0.5774 -0.2657
   22MOL    H24 9726   7.482   0.540   2.020 -0.5388 -0.4661 -0.5367
   22MOL    O25 9727   8.255   1.248   2.354  0.3733  0.2001  0.0991
   22MOL    C26 9728   0.064   1.214   2.459 -0.1763  0.0998 -0.3682
   22MOL    C27 9729   0.201   1.159   2.409 -0.9634  0.6346 -0.4323
   22MOL    O28 9730   0.200   1.035   2.336 -0.0795 -0.0777  0.1380
   22MOL    C29 9731   0.265   1.019   2.213 -0.1135 -0.5417  0.4216
   22MOL    O30 9732   0.331   1.107   2.159  0.0748 -0.0282  0.6954
   22MOL    C31 9733   0.238   0.887   2.152 -0.2555  0.1098 -0.1622
   22MOL    C32 9734   0.161   0.787   2.214 -0.0261 -0.1016  0.3930
   22MOL    C33 9735   0.155   0.659   2.146  0.1020 -0.5886 -0.3080
   22MOL    C34 9736   0.204   0.641   2.018  0.3338 -0.0670 -0.5813
   22MOL    C35 9737   0.185   0.512   1.946  0.7034  0.5951  0.5973
   22MOL    O36 9738   0.258   0.475   1.856  0.1870 -0.5406  0.2791
   22MOL    O37 9739   0.073   0.442   1.989  0.0332 -0.6056 -0.2079
   22MOL    C38 9740   0.286   0.736   1.967  0.2564 -0.2967  0.5278
   22MOL    C39 9741   0.300   0.866   2.023  0.2377 -0.0445 -0.1611
   22MOL    H40 9742   0.089   1.310   2.504  2.6151 -0.1642 -1.2757
   22MOL    H41 9743   0.029   1.154   2.543 -2.3254  0.1711 -1.1774
   22MOL    H42 9744   0.271   1.144   2.491 -0.1635  2.5095 -0.7588
   22MOL    H43 9745   0.245   1.239   2.350  0.4906 -1.4167 -2.2393
   22MOL    H44 9746   0.127   0.806   2.315  2.3890  0.6808  1.1008
   22MOL    H45 9747   0.110   0.571   2.190  0.0029 -1.1145 -1.4507
   22MOL    H46 9748   0.341   0.725   1.874  0.9754  0.7850  0.8177
   22MOL    H47 9749   0.372   0.933   1.978  1.9834 -2.7955 -1.6303
   22MOL    O48 9750   0.059   0.305   1.936 -0.4507 -0.1074  0.3609
   22MOL    C49 9751   8.266   0.312   1.809  0.6361 -0.1554  0.1414
   22MOL    C50 9752   8.113   0.344   1.820 -0.7213  0.3926 -0.2119
   22MOL    O51 9753   8.049   0.336   1.693  0.8220 -0.3565 -0.2754
   22MOL    C52 9754   7.917   0.335   1.684 -0.0468  0.7188 -0.3985
   22MOL    O53 9755   7.845   0.342   1.788 -0.1042 -0.0358 -0.0872
   22MOL    C54 9756   7.862   0.314   1.548 -0.5045  0.1021  0.3462
   22MOL    C55 9757   7.936   0.294   1.427 -0.2251  0.0265 -0.6940
   22MOL    C56 9758   7.873   0.262   1.307  0.2187  0.5476 -0.2185
   22MOL    C57 9759   7.730   0.261   1.296  0.3670 -0.2192 -0.0035
   22MOL    C58 9760   7.672   0.241   1.162 -0.2592 -0.3691 -0.4069
   22MOL    O59 9761   7.550   0.257   1.143 -0.3952 -0.1727  0.3452
   22MOL    O60 9762   7.765   0.212   1.062 -0.1343 -0.0186  0.3879
   22MOL    C61 9763   7.661   0.278   1.423  0.0216 -0.4713  0.2285
   22MOL    C62 9764   7.721   0.312   1.544 -0.5631 -0.5033 -0.1124
   22MOL    H63 9765   0.033   0.389   1.744  0.8954  0.8378  1.4671
   22MOL    H64 9766   0.000   0.223   1.748 -0.8290 -2.0432  2.5711
   22MOL    H65 9767   8.090   0.441   1.865 -0.0109  0.1355  0.7026
   22MOL    H66 9768   8.068   0.261   1.874 -0.7951  1.2580  1.0668
   22MOL    H67 9769   8.043   0.287   1.425  0.0813  2.8634  1.8288
   22MOL    H68 9770   7.939   0.247   1.223 -3.3618 -2.1345 -2.6953
   22MOL    H69 9771   7.554   0.266   1.419 -0.1478 -0.1955  3.1467
   22MOL    H70 9772   7.652   0.313   1.627 -0.4628  0.2480 -0.0339
   22MOL    O71 9773   7.691   0.204   0.928  0.3290 -0.3520 -0.5793
   22MOL    C72 9774   7.669   0.065   0.912  0.2361  0.1398  0.2897
   22MOL    C73 9775   7.555   0.047   0.807 -0.2974  0.0267  0.4826
   22MOL    O74 9776   7.525   8.183   0.784 -0.1038 -0.1703  0.5101
   22MOL    C75 9777   7.596   8.108   0.698  0.2349 -0.0021  0.0655
   22MOL    O76 9778   7.680   8.150   0.617 -0.1127 -0.4967  0.0640
   22MOL    C77 9779   7.544   7.974   0.706  0.2907 -0.4727 -0.5596
   22MOL    C78 9780   7.610   7.873   0.631 -0.5755 -0.2049 -0.0339
   22MOL    C79 9781   7.557   7.742   0.622  0.8752 -0.0098 -0.4467
   22MOL    C80 9782   7.434   7.708   0.686  0.4879 -0.1214  0.1885
   22MOL    C81 9783   7.358   7.588   0.640  0.2605  0.2235  0.2965
   22MOL    O82 9784   7.396   7.510   0.555  0.3064  0.3087 -0.1885
   22MOL    O83 9785   7.235   7.576   0.701 -0.1306  0.1020  0.2192
   22MOL    C84 9786   7.376   7.803   0.772  0.0498 -0.1924 -0.1326
   22MOL    C85 9787   7.431   7.935   0.778 -0.1465  0.3638  0.1846
   22MOL    H86 9788   7.759   0.025   0.866  0.0386 -2.3509  1.9898
   22MOL    H87 9789   7.656   0.010   1.005 -1.8845  0.3970  0.1915
   22MOL    H88 9790   7.582   0.097   0.714 -2.2194  0.7066  0.2710
   22MOL    H89 9791   7.456   0.088   0.825 -1.1295 -1.5400 -0.3748
   22MOL    H90 9792   7.693   7.907   0.571 -0.6017  0.4427  0.2866
   22MOL    H91 9793   7.596   7.653   0.574  0.5644 -0.4705  0.1513
   22MOL    H92 9794   7.282   7.791   0.824 -0.0152 -0.0619 -0.2184
   22MOL    H93 9795   7.376   7.998   0.847  1.0381  1.9403 -0.2794
   22MOL    O94 9796   7.168   7.449   0.672 -0.1364 -0.1553  0.2102
   22MOL    C95 9797   7.061   7.475   0.577  0.6706  0.5633  0.4331
   22MOL    C96 9798   7.025   7.335   0.523  0.0682 -0.0514 -0.0662
   22MOL    O97 9799   6.984   7.251   0.625 -0.1883  0.5922  0.0866
   22MOL    C98 9800   6.994   7.118   0.617 -0.1396  0.6221 -0.0150
   22MOL    O99 9801   7.017   7.062   0.505 -0.2054  0.6184  0.0130
   22MOL   C100 9802   6.963   7.039   0.741 -0.3891  0.7325  0.0168
   22MOL   C101 9803   6.954   7.102   0.870 -0.1684  0.1109 -0.0595
   22MOL   C102 9804   6.921   7.029   0.980  1.0670 -0.2941 -0.2616
   22MOL   C103 9805   6.906   6.891   0.959 -0.0019  0.3896  0.2120
   22MOL   C104 9806   6.872   6.804   1.076 -0.1247 -0.0166  0.1701
   22MOL   O105 9807   6.878   6.680   1.080 -0.1073 -0.6434  0.1348
   22MOL   O106 9808   6.829   6.879   1.180 -0.6207  0.2482  0.1603
   22MOL   C107 9809   6.921   6.824   0.838 -0.0826 -0.1629  0.1683
   22MOL   C108 9810   6.951   6.900   0.723  0.4611  1.1362  0.3843
   22MOL   H109 9811   6.986   7.542   0.619 -0.0720  0.0938 -0.1404
   22MOL   H110 9812   7.099   7.531   0.492  0.4693 -0.1537 -0.1374
   22MOL   H111 9813   7.117   7.292   0.484 -0.0565 -0.0500 -0.3626
   22MOL   H112 9814   6.949   7.341   0.445  0.6451  1.0908 -0.5605
   22MOL   H113 9815   6.967   7.207   0.892  2.1579 -0.7758  3.1732
   22MOL   H114 9816   6.914   7.087   1.070  1.3931  0.8800 -0.9741
   22MOL   H115 9817   6.902   6.717   0.832 -0.3042 -0.0641 -0.8791
   22MOL   H116 9818   6.962   6.856   0.624  0.8986  0.1610  0.8553
   22MOL   O117 9819   6.763   6.797   1.286  0.1752 -0.1235 -0.1941
   22MOL   C118 9820   6.627   6.810   1.252 -0.1005 -0.0313 -0.5592
   22MOL   C119 9821   6.547   6.738   1.371  0.4025  0.0264 -1.0953
   22MOL   O120 9822   6.528   6.834   1.480 -0.4726  0.3733 -0.4494
   22MOL   C121 9823   6.423   6.917   1.470 -0.4252  0.4426 -0.3315
   22MOL   O122 9824   6.356   6.930   1.368 -0.2223  0.7265 -0.2015
   22MOL   C123 9825   6.401   6.999   1.592 -0.1200  0.5875  0.4554
   22MOL   C124 9826   6.449   6.950   1.713 -1.0929 -0.3974  0.3351
   22MOL   C125 9827   6.427   7.030   1.828 -0.1022 -0.6174 -0.1743
   22MOL   C126 9828   6.360   7.154   1.816  0.5044 -0.2146  0.0699
   22MOL   C127 9829   6.320   7.225   1.940  0.8652  0.7335  0.4898
   22MOL   O128 9830   6.311   7.166   2.046  0.2971  0.2319  0.3033
   22MOL   O129 9831   6.300   7.356   1.924 -0.1929  0.1485  0.5058
   22MOL   C130 9832   6.321   7.197   1.689  0.4491 -0.5059  1.1363
   22MOL   C131 9833   6.349   7.126   1.573  0.6076 -0.3518 -0.0847
   22MOL   H132 9834   6.605   6.917   1.249  3.8920  0.8983  0.3837
   22MOL   H133 9835   6.604   6.767   1.154  0.7046  0.6471 -1.0493
   22MOL   H134 9836   6.594   6.641   1.388  2.2338  1.2049  0.8499
   22MOL   H135 9837   6.450   6.702   1.338  0.2516 -1.7950  1.2035
   22MOL   H136 9838   6.490   6.851   1.719 -2.4964 -1.0794 -1.0224
   22MOL   H137 9839   6.462   6.998   1.925  0.8072 -1.3170 -0.7279
   22MOL   H138 9840   6.260   7.285   1.674  0.8808 -0.2193  1.0348
   22MOL   H139 9841   6.315   7.155   1.475  2.0314  0.0948 -0.4564
   22MOL   O140 9842   6.220   7.429   2.033 -0.1146  0.1812  0.0917
   22MOL   C141 9843   6.092   7.454   1.988  0.5361 -0.3521 -0.4136
   22MOL   C142 9844   6.023   7.554   2.086 -0.1613 -0.4446  0.4642
   22MOL   O143 9845   6.037   7.682   2.029  0.3882 -0.0833  0.1414
   22MOL   C144 9846   6.023   7.792   2.104 -0.7603 -0.5608  0.0330
   22MOL   O145 9847   5.973   7.795   2.216 -0.1339 -0.2518  0.8522
   22MOL   C146 9848   6.066   7.919   2.028 -0.3846  0.0537  0.2674
   22MOL   C147 9849   6.115   7.912   1.895 -0.1740 -0.3374  0.5549
   22MOL   C148 9850   6.158   8.026   1.826  0.3190 -0.5321  0.4124
   22MOL   C149 9851   6.161   8.148   1.895  0.7731 -0.2845  0.1566
   22MOL   C150 9852   6.220   8.268   1.831  0.1328  0.6545  0.8823
   22MOL   O151 9853   6.306   8.265   1.738 -0.0890  0.6201 -0.0953
   22MOL   O152 9854   6.158   0.103   1.872 -0.3231  0.1784  0.0423
   22MOL   C153 9855   6.103   8.160   2.024  0.3572 -0.2093 -0.5520
   22MOL   C154 9856   6.062   8.045   2.093 -0.2299 -0.1161  0.2479
   22MOL   H155 9857   6.103   7.506   1.892 -2.2088 -1.8266 -1.5702
   22MOL   H156 9858   6.035   7.365   1.961  1.5934 -0.4560 -2.3515
   22MOL   H157 9859   6.055   7.550   2.190  1.8846 -0.6872 -0.1448
   22MOL   H158 9860   5.916   7.534   2.083  0.0648 -1.6497  0.2106
   22MOL   H159 9861   6.115   7.821   1.836  0.2825 -1.0160  1.5855
   22MOL   H160 9862   6.179   8.030   1.720 -0.9673  1.4574  0.2174
   22MOL   H161 9863   6.085   8.262   2.056  1.3520 -0.3960  0.6177
   22MOL   H162 9864   6.037   8.058   2.197 -0.5979  1.5189 -0.0382
   22MOL   O163 9865   6.164   0.215   1.768 -0.0705 -0.0027  0.0331
   22MOL   C164 9866   6.270   0.297   1.802 -0.0648  0.4467  0.4008
   22MOL   C165 9867   6.334   0.361   1.680 -0.9564  0.7299  0.3833
   22MOL   O166 9868   6.402   0.272   1.599 -0.6046  0.4912 -0.2554
   22MOL   C167 9869   6.539   0.250   1.589 -0.1218 -0.8022 -0.1903
   22MOL   O168 9870   6.620   0.304   1.669 -0.4980 -0.3631  0.1518
   22MOL   C169 9871   6.586   0.160   1.484  0.1946  0.4031 -0.8481
   22MOL   C170 9872   6.719   0.160   1.450 -0.2525 -0.1636 -0.5843
   22MOL   C171 9873   6.763   0.076   1.348  0.1821  0.3134 -0.2063
   22MOL   C172 9874   6.674   8.262   1.275 -0.0491 -0.0478  0.3660
   22MOL   C173 9875   6.720   8.174   1.166 -0.8177 -0.1233 -0.0813
   22MOL   O174 9876   6.644   8.109   1.095 -0.3579  0.7972  0.7345
   22MOL   O175 9877   6.853   8.156   1.168  0.9070 -0.0491 -0.2358
   22MOL   C176 9878   6.542   8.265   1.318 -0.0068 -0.3043  0.1670
   22MOL   C177 9879   6.496   0.073   1.422  0.4106  0.2131 -0.8646
   22MOL   H178 9880   6.232   0.383   1.857 -0.5882  0.3897  0.1279
   22MOL   H179 9881   6.350   0.247   1.857  0.2027 -0.4937 -0.8415
   22MOL   H180 9882   6.407   0.423   1.733 -0.6364  0.7997 -0.1399
   22MOL   H181 9883   6.261   0.408   1.616  0.3822 -0.2358 -1.9029
   22MOL   H182 9884   6.789   0.227   1.498 -1.4197  0.9870 -0.4571
   22MOL   H183 9885   6.868   0.070   1.324  0.1319 -0.0692 -0.3418
   22MOL   H184 9886   6.464   8.197   1.288 -0.5944 -0.5441  2.1807
   22MOL   H185 9887   6.394   0.066   1.455  0.6566  0.6797 -0.0006
   22MOL   O186 9888   6.900   8.068   1.068  0.4186  0.7126 -0.3168
   22MOL   C187 9889   6.902   7.931   1.120  0.2858 -0.0949  0.7520
   22MOL   C188 9890   6.915   7.826   1.002 -0.5800  0.1251  0.0490
   22MOL   O189 9891   6.996   7.717   1.046 -0.2592  0.1329 -0.1068
   22MOL   C190 9892   6.948   7.616   1.131 -0.0539  0.2520  0.5371
   22MOL   O191 9893   6.847   7.626   1.199  0.0769 -0.1753 -0.0239
   22MOL   C192 9894   7.046   7.496   1.134 -0.4285  0.3412  0.5884
   22MOL   C193 9895   7.037   7.399   1.230 -0.3906 -0.1204  0.2353
   22MOL   C194 9896   7.122   7.288   1.224 -0.5248  0.0568  0.3656
   22MOL   C195 9897   7.198   7.266   1.112  0.3642  0.0372  0.3807
   22MOL   C196 9898   7.280   7.137   1.118  0.4485 -0.6827 -0.6624
   22MOL   O197 9899   7.292   7.071   1.221  0.0886 -0.3310  0.3556
   22MOL   O198 9900   7.332   7.099   0.994 -0.2431  0.5327 -1.0001
   22MOL   C199 9901   7.208   7.363   1.012 -0.3380 -0.2759  0.1393
   22MOL   C200 9902   7.130   7.480   1.019  0.1867  0.1896 -0.2297
   22MOL   H201 9903   6.984   7.912   1.190 -0.0996 -0.6229  1.0653
   22MOL   H202 9904   6.811   7.914   1.178  1.3310 -0.3829  2.3328
   22MOL   H203 9905   6.977   7.876   0.927 -0.2674 -0.0972  0.1570
   22MOL   H204 9906   6.817   7.812   0.957  0.1489 -1.9817 -0.9380
   22MOL   H205 9907   6.965   7.404   1.311 -0.2964 -2.4773  0.5076
   22MOL   H206 9908   7.121   7.221   1.309  0.6250 -0.2839  0.1178
   22MOL   H207 9909   7.269   7.351   0.925 -0.9482 -2.2333 -0.0550
   22MOL   H208 9910   7.138   7.559   0.946 -0.1273  2.5260  2.1544
   22MOL   O209 9911   7.406   6.971   0.988  0.1590  0.1284 -0.0783
   22MOL   C210 9912   7.321   6.868   0.942  0.5465 -0.5357  0.2767
   22MOL   C211 9913   7.386   6.732   0.987  0.3840  0.6166 -0.7723
   22MOL   O212 9914   7.452   6.745   1.119 -0.4245  0.2996 -0.1874
   22MOL   C213 9915   7.378   6.772   1.226 -0.6262 -0.5410 -0.1392
   22MOL   O214 9916   7.256   6.769   1.231  0.0339 -1.0011 -0.1254
   22MOL   C215 9917   7.461   6.800   1.345 -0.3422 -0.2294  0.6928
   22MOL   C216 9918   7.393   6.835   1.461 -0.3127 -0.0310  0.1193
   22MOL   C217 9919   7.456   6.841   1.585  0.0030  0.1560  0.5012
   22MOL   C218 9920   7.593   6.811   1.596 -0.1084  0.6469  0.4549
   22MOL   C219 9921   7.648   6.801   1.736  0.1399  0.3574  0.6741
   22MOL   O220 9922   7.588   6.826   1.835  0.4597 -0.1177  0.1048
   22MOL   O221 9923   7.760   6.727   1.732 -0.0921 -0.2708 -0.0729
   22MOL   C222 9924   7.662   6.789   1.481  0.0504  0.2829 -0.1267
   22MOL   C223 9925   7.600   6.788   1.353 -0.2154 -0.5530  0.0954
   22MOL   H224 9926   7.225   6.879   0.993  1.8954  1.3908  2.5269
   22MOL   H225 9927   7.297   6.879   0.837  0.5389  0.1989  0.3491
   22MOL   H226 9928   7.472   6.717   0.923 -1.0170  2.7032 -3.2543
   22MOL   H227 9929   7.317   6.649   0.968  0.7406 -0.0463  0.8061
   22MOL   H228 9930   7.286   6.844   1.462 -0.3615  0.2201 -2.6173
   22MOL   H229 9931   7.399   6.863   1.673  0.9539  1.8607  0.7028
   22MOL   H230 9932   7.769   6.781   1.492  0.3984  2.4585 -1.5279
   22MOL   H231 9933   7.665   6.772   1.268 -0.8935  1.7666 -0.9153
   22MOL   O232 9934   7.795   6.670   1.868  0.3628  0.0936 -0.2494
   22MOL   C233 9935   7.754   6.534   1.876  0.8386  0.8983  0.1198
   22MOL   C234 9936   7.783   6.477   2.019 -0.6405 -0.5408 -0.1262
   22MOL   O235 9937   7.926   6.470   2.044  0.4694 -0.1654 -0.7280
   22MOL   C236 9938   7.995   6.551   2.130  0.7870 -0.4464 -0.4742
   22MOL   O237 9939   7.935   6.638   2.199 -0.3492 -0.5710 -0.7459
   22MOL   C238 9940   8.140   6.529   2.129 -0.5900  0.2784  0.8183
   22MOL   C239 9941   8.218   6.581   2.233 -0.3737 -0.0296 -0.2641
   22MOL   C240 9942   0.077   6.549   2.248 -1.0536 -0.3055  0.1224
   22MOL   C241 9943   0.138   6.462   2.157  0.5107 -0.1793 -0.1430
   22MOL   C242 9944   0.285   6.437   2.164 -0.0445 -0.1768  0.0422
   22MOL   O243 9945   0.343   6.363   2.085  0.5563  0.5702 -0.6388
   22MOL   O244 9946   0.348   6.495   2.271  0.3491 -0.5080 -0.1512
   22MOL   C245 9947   0.067   6.419   2.044  0.5457  0.2627  0.1330
   22MOL   C246 9948   8.204   6.442   2.036 -0.5498 -0.0626  0.4055
   22MOL   H247 9949   7.646   6.543   1.864  0.7409  0.3448  0.6102
   22MOL   H248 9950   7.787   6.468   1.796  0.5841  2.6041 -1.4286
   22MOL   H249 9951   7.747   6.374   2.024  2.0282 -1.6217 -1.6809
   22MOL   H250 9952   7.726   6.532   2.093  2.0871  0.8659  0.9935
   22MOL   H251 9953   8.166   6.642   2.305  1.3583  0.6471  0.4362
   22MOL   H252 9954   0.141   6.594   2.323 -2.3302 -2.3142  2.5150
   22MOL   H253 9955   0.122   6.377   1.962 -1.0558 -1.5445 -0.0376
   22MOL   H254 9956   8.148   6.415   1.948  0.0835  1.2187 -0.4103
   22MOL   O255 9957   0.491   6.454   2.285  0.1253  0.2179  0.0497
   22MOL   C256 9958   0.503   6.332   2.361  0.7231 -0.4001 -0.2257
   22MOL   C257 9959   0.467   6.375   2.505 -0.3487 -0.0451  0.1140
   22MOL   O258 9960   0.338   6.337   2.551 -0.5320 -0.2124 -0.2836
   22MOL   C259 9961   0.250   6.432   2.571 -0.9894 -0.1898 -0.3256
   22MOL   O260 9962   0.279   6.549   2.598  0.0302 -0.1842 -0.4146
   22MOL   C261 9963   0.117   6.380   2.593 -0.1963 -0.0370 -0.4018
   22MOL   C262 9964   0.092   6.239   2.617  0.5072 -0.2970  0.4351
   22MOL   C263 9965   8.242   6.192   2.654 -0.0157  0.3603 -0.3960
   22MOL   C264 9966   8.140   6.288   2.673  0.5795  0.2887  0.3134
   22MOL   C265 9967   8.001   6.246   2.709  0.3353 -0.0606  0.1760
   22MOL   O266 9968   7.912   6.323   2.738  0.0849  0.3890 -0.1397
   22MOL   O267 9969   7.981   6.113   2.689  0.4572  0.5541  0.6467
   22MOL   C268 9970   8.160   6.430   2.648 -0.3515  0.3671 -0.4018
   22MOL   C269 9971   0.010   6.476   2.603  0.4335 -0.2739 -0.3332
   22MOL   H270 9972   0.425   6.263   2.330  1.0481 -0.9570  0.1834
   22MOL   H271 9973   0.606   6.298   2.346 -0.0073 -0.8458 -5.1542
   22MOL   H272 9974   0.490   6.479   2.529 -2.9526  0.6665 -0.3867
   22MOL   H273 9975   0.537   6.312   2.560 -0.9540  1.4096  2.6180
   22MOL   H274 9976   0.179   6.175   2.610 -0.5109 -1.8487  1.7607
   22MOL   H275 9977   8.229   6.092   2.693  1.0904  0.0592 -0.7731
   22MOL   H276 9978   8.080   6.501   2.665 -0.7296 -0.0056 -0.6304
   22MOL   H277 9979   0.028   6.582   2.596 -1.5165 -0.0507 -2.3517
   22MOL   O278 9980   7.837   6.066   2.700 -0.2375  0.0467  0.1501
   22MOL   C279 9981   7.815   6.038   2.831 -0.3909 -0.5737  0.3001
   22MOL   C280 9982   7.680   5.975   2.857  0.9343  0.2909  0.9566
   22MOL   O281 9983   7.674   5.836   2.825  0.0908 -0.3922  0.0338
   22MOL   C282 9984   7.649   5.740   2.915 -0.2161 -0.1647  0.0503
   22MOL   O283 9985   7.630   5.764   3.030 -0.2336  0.4280  0.3897
   22MOL   C284 9986   7.660   5.604   2.861  0.3910  0.8510 -0.4206
   22MOL   C285 9987   7.699   5.591   2.728  0.4825  1.6162  1.1530
   22MOL   C286 9988   7.713   5.459   2.675  0.3288  0.1659 -0.5565
   22MOL   C287 9989   7.688   5.343   2.754 -0.4553 -0.2692  0.5046
   22MOL   C288 9990   7.720   5.209   2.701 -0.5875  0.2261  0.3018
   22MOL   O289 9991   7.786   5.123   2.753  0.1892 -0.4698 -0.1563
   22MOL   O290 9992   7.653   5.179   2.581 -0.3150 -0.3704  0.2509
   22MOL   C291 9993   7.647   5.359   2.888 -1.2638  0.3867  0.1832
   22MOL   C292 9994   7.631   5.492   2.942 -0.0746 -0.6665 -0.2160
   22MOL   H293 9995   7.893   5.966   2.859  0.4031  0.7982  1.7256
   22MOL   H294 9996   7.833   6.126   2.893  2.0416 -0.6624 -0.2056
   22MOL   H295 9997   7.608   6.022   2.789  0.6437 -0.7380  0.5486
   22MOL   H296 9998   7.657   5.991   2.963  3.0612 -1.5915  1.7373
   22MOL   H297 9999   7.700   5.677   2.663  2.2576  0.9032  0.1923
   22MOL   H29810000   7.747   5.441   2.574  1.6253 -0.7385  0.0208
   22MOL   H29910001   7.634   5.274   2.953  0.4124 -0.5442 -0.6682
   22MOL   H30010002   7.588   5.486   3.041 -1.1532 -0.4081 -0.6550
   22MOL   O30110003   7.719   5.071   2.494 -0.5443  0.1054  0.1005
   22MOL   C30210004   7.659   4.950   2.525  0.0726  0.9025  0.5323
   22MOL   C30310005   7.710   4.835   2.446 -0.2758 -0.1118 -0.2660
   22MOL   O30410006   7.686   4.711   2.514  0.3283 -0.3235  0.2420
   22MOL   C30510007   7.607   4.615   2.458  0.6627 -0.4313 -0.3287
   22MOL   O30610008   7.557   4.619   2.348 -0.0563  0.1175 -0.1591
   22MOL   C30710009   7.586   4.505   2.554 -0.8339 -0.1691  0.5069
   22MOL   C30810010   7.476   4.418   2.543  0.1472 -0.2559  0.1528
   22MOL   C30910011   7.436   4.321   2.637 -0.3068  0.1170 -1.1422
   22MOL   C31010012   7.520   4.305   2.747  0.0733  0.8973  0.3156
   22MOL   C31110013   7.484   4.206   2.851 -0.3804  0.2153 -0.0056
   22MOL   O31210014   7.544   4.188   2.957  0.1614 -0.0158 -0.4086
   22MOL   O31310015   7.370   4.142   2.822  0.4272 -0.4026  0.2111
   22MOL   C31410016   7.632   4.392   2.768  0.3422  0.7897 -0.0936
   22MOL   C31510017   7.667   4.489   2.668  0.3946 -0.1168 -0.0930
   22MOL   H31610018   7.682   4.926   2.629  0.9115 -3.1581 -0.4952
   22MOL   H31710019   7.552   4.948   2.505  0.2435  0.4837 -0.3705
   22MOL   H31810020   7.816   4.850   2.422  0.2119  1.0874  2.4401
   22MOL   H31910021   7.667   4.836   2.346  0.1032  1.4268 -0.4240
   22MOL   H32010022   7.412   4.427   2.457 -2.1415 -1.1964  1.6888
   22MOL   H32110023   7.353   4.253   2.625 -0.6399  0.1874  0.7346
   22MOL   H32210024   7.680   4.375   2.863  2.5742  0.4369 -1.2239
   22MOL   H32310025   7.754   4.551   2.685  0.7432  0.1377 -2.6148
   22MOL   O32410026   7.313   4.069   2.940 -0.5675  0.0511 -0.0270
   22MOL   C32510027   7.263   3.943   2.894 -0.2472  0.1503 -0.5798
   22MOL   C32610028   7.154   3.893   2.981  0.3424 -0.3167  0.0518
   22MOL   O32710029   7.079   4.000   3.026 -0.2449 -0.2757  0.7411
   22MOL   C32810030   6.947   4.006   3.009 -0.5247  0.2170 -0.3399
   22MOL   O32910031   6.881   3.909   2.984 -0.5061  0.5847  0.3592
   22MOL   C33010032   6.889   4.136   3.026 -0.2748 -0.3076 -0.1782
   22MOL   C33110033   6.981   4.245   3.039 -0.1525  0.3619 -0.3106
   22MOL   C33210034   6.930   4.371   3.082  0.1101 -0.4935  0.2363
   22MOL   C33310035   6.795   4.394   3.097 -0.5018 -0.1832  0.1624
   22MOL   C33410036   6.746   4.529   3.139  0.8571 -0.5722 -0.1442
   22MOL   O33510037   6.627   4.547   3.166  0.3052 -0.1776  0.1419
   22MOL   O33610038   6.838   4.633   3.117  0.0551 -0.0777 -0.6458
   22MOL   C33710039   6.698   4.290   3.076  0.3541 -0.1502 -0.7095
   22MOL   C33810040   6.748   4.157   3.037  0.3617  0.4379 -0.3049
   22MOL   H33910041   7.233   3.954   2.789  0.6367 -0.7851 -0.9497
   22MOL   H34010042   7.340   3.866   2.885 -0.5402 -0.3619  1.1970
   22MOL   H34110043   7.204   3.841   3.063  1.8336  0.3652 -0.3951
   22MOL   H34210044   7.099   3.824   2.917 -0.2500  0.5589 -0.4050
   22MOL   H34310045   7.087   4.237   3.020  0.2575  3.0966  0.4667
   22MOL   H34410046   7.000   4.446   3.117  1.1613 -1.0583 -0.6116
   22MOL   H34510047   6.593   4.307   3.092  0.1711  0.5838 -2.5841
   22MOL   H34610048   6.676   4.077   3.033  0.9000 -0.1178  1.1008
   22MOL   O34710049   6.790   4.770   3.156  0.3545 -0.4903  0.2261
   22MOL   C34810050   6.818   4.793   3.288 -0.1291 -0.7690  0.3585
   22MOL   C34910051   6.778   4.940   3.327 -0.3492 -0.4930 -0.7042
   22MOL   O35010052   6.876   5.036   3.285 -0.8769 -0.0515 -0.6158
   22MOL   C35110053   6.851   5.169   3.319  0.0373  0.8614 -0.0681
   22MOL   O35210054   6.747   5.207   3.374 -0.1033  0.4472  0.6041
   22MOL   C35310055   6.966   5.256   3.294  0.0612  0.1545  0.3224
   22MOL   C35410056   7.067   5.235   3.196 -0.3295  0.2101 -0.2015
   22MOL   C35510057   7.167   5.332   3.172 -0.5193  0.7223 -0.6016
   22MOL   C35610058   7.163   5.454   3.239 -0.1641  0.1425 -0.7669
   22MOL   C35710059   7.270   5.553   3.211 -0.1509 -0.8772  0.7064
   22MOL   O35810060   7.357   5.547   3.124  0.0348  0.7230 -0.1374
   22MOL   O35910061   7.265   5.665   3.281 -0.0936  0.2614  0.3886
   22MOL   C36010062   7.066   5.478   3.337 -0.1032  0.8740 -0.0595
   22MOL   C36110063   6.966   5.376   3.361  0.5280 -0.2411  0.0750
   22MOL   H36210064   6.756   4.724   3.345 -0.7920 -0.0319  0.5414
   22MOL   H36310065   6.920   4.770   3.318  0.6408  0.8817 -0.9274
   22MOL   H36410066   6.758   4.961   3.433 -0.3396 -2.7206 -0.2493
   22MOL   H36510067   6.684   4.974   3.282 -0.2419  1.2319  0.3199
   22MOL   H36610068   7.077   5.140   3.145 -1.4927  0.4907 -0.9769
   22MOL   H36710069   7.244   5.308   3.100 -0.9418 -0.3550 -0.7035
   22MOL   H36810070   7.062   5.570   3.393 -2.9173 -0.2762  1.6751
   22MOL   H36910071   6.891   5.389   3.438  1.7427 -0.2119  1.2705
   22MOL   O37010072   7.384   5.757   3.258  0.1775  0.4543  0.3514
   22MOL   C37110073   7.484   5.724   3.354 -0.5362 -0.1887 -0.4347
   22MOL   C37210074   7.576   5.846   3.381  0.3647 -0.1544  0.2297
   22MOL   O37310075   7.515   5.925   3.484  0.0257 -0.4072 -0.4130
   22MOL   C37410076   7.556   5.911   3.614 -0.2588  0.3483  0.0640
   22MOL   O37510077   7.612   5.815   3.663 -0.4572 -0.0203 -0.4055
   22MOL   C37610078   7.519   6.032   3.692 -0.0447 -0.6811  0.7621
   22MOL   C37710079   7.473   6.160   3.645  0.2159 -0.7172  0.2538
   22MOL   C37810080   7.456   6.271   3.731 -0.1479  0.4146  0.6208
   22MOL   C37910081   7.488   6.261   3.865 -0.0419 -0.1148  0.2230
   22MOL   C38010082   7.471   6.382   3.959 -0.1880  0.6465 -0.7207
   22MOL   O38110083   7.480   6.370   4.078  0.2366  0.3492 -0.2922
   22MOL   O38210084   7.431   6.496   3.901 -0.0355  0.1420  0.4013
   22MOL   C38310085   7.523   6.137   3.919 -0.3947 -0.1033 -0.8785
   22MOL   C38410086   7.535   6.026   3.839 -0.1323  0.2143 -0.5566
   22MOL   H38510087   7.433   5.699   3.447  1.2805 -0.9110  0.3982
   22MOL   H38610088   7.547   5.640   3.325 -1.2928 -0.6917 -0.6119
   22MOL   H38710089   7.591   5.888   3.281  1.9210  0.8045  0.8539
   22MOL   H38810090   7.667   5.796   3.413  1.5227  1.2579 -0.8015
   22MOL   H38910091   7.449   6.175   3.541  0.1961 -1.3212  0.1692
   22MOL   H39010092   7.420   6.365   3.693  1.1195  0.5955 -0.1626
   22MOL   H39110093   7.542   6.126   4.024  1.2539 -1.3459 -1.2918
   22MOL   H39210094   7.551   5.925   3.874 -2.2336  0.5400  1.4468
   22MOL   O39310095   7.435   6.615   3.997 -0.2430 -0.3189  0.4311
   22MOL   C39410096   7.301   6.634   4.052 -0.3493  0.4201  0.3062
   22MOL   C39510097   7.299   6.748   4.165 -0.4663 -0.8263 -0.3546
   22MOL   O39610098   7.305   6.873   4.093  0.2628 -0.3119 -0.3796
   22MOL   C39710099   7.257   6.988   4.141 -0.5362  0.1477 -0.6874
   22MOL   O39810100   7.181   6.988   4.235  0.1542 -0.2792  0.2246
   22MOL   C39910101   7.305   7.108   4.064  0.5882 -0.6357 -0.0747
   22MOL   C40010102   7.253   7.233   4.105  0.2185  0.0264 -0.6129
   22MOL   C40110103   7.285   7.353   4.037  0.9120 -0.4713 -0.2349
   22MOL   C40210104   7.382   7.357   3.938 -1.0568 -0.4668  0.5494
   22MOL   C40310105   7.419   7.487   3.859 -0.0573  0.2878  0.1136
   22MOL   O40410106   7.365   7.599   3.873 -0.5547 -0.5809  0.5395
   22MOL   O40510107   7.516   7.464   3.774  0.1943 -0.5302  0.2253
   22MOL   C40610108   7.444   7.232   3.899  0.8417 -0.0656 -0.0303
   22MOL   C40710109   7.398   7.110   3.958 -0.2845  0.2592  0.2560
   22MOL   H40810110   7.229   6.668   3.977 -0.3561 -1.0703 -0.3829
   22MOL   H40910111   7.271   6.537   4.092 -0.8304  0.0481 -0.9247
   22MOL   H41010112   7.387   6.744   4.230 -0.6981  0.5023  0.0642
   22MOL   H41110113   7.209   6.750   4.227 -0.3606  0.6420 -0.2238
   22MOL   H41210114   7.186   7.234   4.189  1.3852 -5.3642  0.6253
   22MOL   H41310115   7.243   7.445   4.076  0.6088 -0.6915 -0.0425
   22MOL   H41410116   7.507   7.228   3.812 -1.3464 -1.9155 -1.5922
   22MOL   H41510117   7.446   7.019   3.926 -0.7771  0.3953 -0.8821
   22MOL   O41610118   7.563   7.580   3.692 -0.1213  0.1295  0.6405
   22MOL   C41710119   7.698   7.614   3.722 -0.5594 -0.7482  0.0741
   22MOL   C41810120   7.791   7.511   3.659 -0.0043 -0.2040  0.2531
   22MOL   O41910121   7.774   7.381   3.713  0.3845  0.0107 -0.1398
   22MOL   C42010122   7.847   7.346   3.824 -0.0062  0.0731 -0.1126
   22MOL   O42110123   7.911   7.429   3.890 -0.6431  0.2835  0.0206
   22MOL   C42210124   7.844   7.198   3.852 -0.2053 -0.1617 -0.3091
   22MOL   C42310125   7.900   7.145   3.970 -0.2764  0.0348  0.9720
   22MOL   C42410126   7.877   7.012   4.000 -0.2583  0.2219  0.1921
   22MOL   C42510127   7.820   6.919   3.915 -0.5284  0.2706  0.1409
   22MOL   C42610128   7.801   6.778   3.934  0.1941 -0.2696 -0.1008
   22MOL   O42710129   7.716   6.709   3.876 -0.1320 -0.2347 -0.3971
   22MOL   O42810130   7.882   6.720   4.035 -0.1693  0.4050  0.4858
   22MOL   C42910131   7.758   6.973   3.799 -0.0539  0.6798 -0.2328
   22MOL   C43010132   7.780   7.109   3.762 -0.3837  0.2710  0.0759
   22MOL   H43110133   7.723   7.709   3.675 -0.9986 -0.4235  0.4922
   22MOL   H43210134   7.720   7.639   3.826  0.5299 -0.4729 -0.2202
   22MOL   H43310135   7.898   7.533   3.668 -0.2376  1.3767 -0.7284
   22MOL   H43410136   7.775   7.503   3.551  0.8024  2.6871 -0.1007
   22MOL   H43510137   7.967   7.199   4.035  0.8186 -0.3315  0.1452
   22MOL   H43610138   7.916   6.982   4.096  2.3586 -0.3487 -0.9779
   22MOL   H43710139   7.696   6.922   3.728 -0.6614  2.0288 -0.6833
   22MOL   H43810140   7.735   7.136   3.667 -2.4003 -0.7066  0.7151
   22MOL   O43910141   7.842   6.581   4.079  0.4428 -0.1689 -0.0046
   22MOL   C44010142   7.875   6.482   3.980 -0.3735 -0.5255  0.6489
   22MOL   C44110143   7.838   6.341   4.040 -0.2967 -0.3149  0.1543
   22MOL   O44210144   7.948   6.266   4.089 -0.1331  0.2613 -0.1731
   22MOL   C44310145   8.046   6.226   4.003  0.0767  0.2787  0.6274
   22MOL   O44410146   8.055   6.261   3.889  0.1228  0.0595  0.2411
   22MOL   C44510147   8.150   6.132   4.067  1.0149 -0.1122  0.6094
   22MOL   C44610148   8.144   6.092   4.201 -0.2446 -0.0546  0.1075
   22MOL   C44710149   8.241   6.007   4.253  0.4310 -0.1798 -0.6154
   22MOL   C44810150   0.080   5.979   4.184  0.3226 -0.3940  0.2968
   22MOL   C44910151   0.190   5.907   4.250 -0.9542 -0.2024  0.2026
   22MOL   O45010152   0.179   5.838   4.350  0.0686  0.1298  0.2320
   22MOL   O45110153   0.308   5.952   4.205  0.4575 -0.6340  0.5848
   22MOL   C45210154   0.079   5.998   4.044  0.0841 -0.0836 -0.4316
   22MOL   C45310155   8.253   6.079   3.983 -0.0069  0.3251 -0.0070
   22MOL   H45410156   7.803   6.487   3.899 -2.7246  1.5941  2.7697
   22MOL   H45510157   7.977   6.495   3.943  0.9910 -1.8711  3.6579
   22MOL   H45610158   7.776   6.284   3.970 -0.1161 -2.3303  1.5878
   22MOL   H45710159   7.773   6.362   4.125  0.2206 -0.7378  0.6543
   22MOL   H45810160   8.063   6.127   4.263 -1.2264 -1.6902 -0.2201
   22MOL   H45910161   8.242   5.979   4.358  0.8780  1.3731 -0.1919
   22MOL   H46010162   0.156   5.959   3.980  0.9713  1.0884 -0.0954
   22MOL   H46110163   8.266   6.090   3.876  1.4116 -0.6325  0.0512
   22MOL   H46210164   0.371   5.934   4.273  1.6528 -0.8857 -0.5495
   23MOL     O110165   7.456   2.793   6.353 -0.3560  0.3515 -0.2521
   23MOL     C210166   7.450   2.688   6.259  0.0142  0.2904 -0.8603
   23MOL     C310167   7.591   2.680   6.199 -0.0218 -0.2107 -0.1335
   23MOL     O410168   7.680   2.608   6.290 -0.3530  0.1390 -0.2108
   23MOL     C510169   7.799   2.662   6.303  0.3022 -0.0252  0.1494
   23MOL     O610170   7.836   2.771   6.258 -0.0613  0.8227 -0.0768
   23MOL     C710171   7.892   2.573   6.384  0.0222 -0.1281  0.5103
   23MOL     C810172   8.000   2.632   6.448 -0.2400  0.1157 -0.0419
   23MOL     C910173   8.092   2.554   6.519  0.3354  0.4283 -0.8802
   23MOL    C1010174   8.073   2.414   6.520 -0.3404  0.1056 -0.2708
   23MOL    C1110175   8.170   2.322   6.589  0.6229  0.5066  0.3719
   23MOL    O1210176   8.147   2.202   6.594  0.1029  0.2898 -0.7211
   23MOL    O1310177   0.005   2.381   6.639  0.6491 -0.0605 -0.2552
   23MOL    C1410178   7.965   2.349   6.459  0.3492 -0.3399  0.0998
   23MOL    C1510179   7.876   2.430   6.390  0.1571  0.7984 -0.4795
   23MOL    H1610180   7.412   2.599   6.310 -0.0781  0.6872 -0.2279
   23MOL    H1710181   7.370   2.718   6.192  0.5889 -0.1143 -1.7420
   23MOL    H1810182   7.625   2.777   6.163  0.4723  0.0513  1.0327
   23MOL    H1910183   7.590   2.614   6.112 -1.7730 -1.2332  0.6278
   23MOL    H2010184   8.010   2.739   6.440  0.1515  0.0039 -1.0636
   23MOL    H2110185   8.173   2.595   6.577  0.4707 -1.2180  0.1423
   23MOL    H2210186   7.957   2.241   6.452 -2.6180 -0.0903 -1.2061
   23MOL    H2310187   7.798   2.381   6.332 -0.2415  1.6179 -0.6422
   23MOL    H2410188   7.383   2.781   6.413 -0.0561 -1.0614 -0.1569
   23MOL    O2510189   0.105   2.284   6.697 -0.4986  0.4253  0.3536
   23MOL    C2610190   0.209   2.270   6.604 -0.1743 -0.4771 -0.1156
   23MOL    C2710191   0.186   2.152   6.504 -0.3152  0.2340  0.4809
   23MOL    O2810192   0.099   2.194   6.401 -0.0063 -0.4056 -0.1669
   23MOL    C2910193   0.049   2.110   6.306 -0.4717 -0.1093  0.5580
   23MOL    O3010194   0.077   1.989   6.302  0.0259 -0.1665  0.2693
   23MOL    C3110195   8.233   2.173   6.211 -0.0714  0.5256 -0.2798
   23MOL    C3210196   8.200   2.309   6.227 -0.1299 -0.6913  0.4866
   23MOL    C3310197   8.099   2.366   6.147 -0.7178 -0.5897 -0.0338
   23MOL    C3410198   8.035   2.295   6.045 -0.0861 -0.0926  0.2622
   23MOL    C3510199   7.924   2.360   5.972  0.0797 -0.9470 -0.3147
   23MOL    O3610200   7.891   2.315   5.866 -0.2346 -0.4643 -0.7516
   23MOL    O3710201   7.869   2.469   6.033  0.0119 -0.0421  0.1312
   23MOL    C3810202   8.081   2.166   6.017  0.3092  0.8687  0.4135
   23MOL    C3910203   8.173   2.103   6.102  0.3864 -0.6729  0.0278
   23MOL    H4010204   0.239   2.357   6.544 -2.0259 -0.4119 -0.9960
   23MOL    H4110205   0.293   2.240   6.667  2.9187  2.4506 -2.6196
   23MOL    H4210206   0.139   2.079   6.570 -0.2142  0.4645  0.8073
   23MOL    H4310207   0.277   2.105   6.467  0.0241  0.8986  0.4585
   23MOL    H4410208   8.251   2.362   6.306  0.5820 -2.7180  1.4175
   23MOL    H4510209   8.072   2.465   6.180 -2.0116 -1.3008  1.1114
   23MOL    H4610210   8.038   2.103   5.941 -1.1067  2.2282  0.0451
   23MOL    H4710211   8.203   2.000   6.088  0.7536 -0.6004  0.2736
   23MOL    O4810212   7.764   2.535   5.964  0.0034  0.3583 -0.2570
   23MOL    C4910213   7.816   2.631   5.871 -0.2663  0.6193 -0.3510
   23MOL    C5010214   7.863   2.768   5.937  0.7629  0.2314  0.0172
   23MOL    O5110215   7.983   2.760   6.014 -0.4355  0.5314 -0.4100
   23MOL    C5210216   8.106   2.721   5.961 -0.3286  0.8161  0.3921
   23MOL    O5310217   8.124   2.711   5.842  0.2680 -0.4035  0.9049
   23MOL    C5410218   8.210   2.689   6.063  0.8563 -0.0850 -0.4169
   23MOL    C5510219   0.050   2.618   6.027  0.1075 -0.5635 -0.3534
   23MOL    C5610220   0.145   2.575   6.124 -1.1089  0.0714  0.2936
   23MOL    C5710221   0.136   2.621   6.257 -0.5497  0.4891  0.0813
   23MOL    C5810222   0.240   2.588   6.361 -0.3323  0.2208 -0.2561
   23MOL    O5910223   0.229   2.619   6.477 -0.3249  0.0844  0.0624
   23MOL    O6010224   0.344   2.519   6.310 -0.4347 -0.3737  0.1532
   23MOL    C6110225   0.021   2.692   6.294 -0.2878 -0.1275  0.0411
   23MOL    C6210226   8.198   2.722   6.202 -0.0840 -0.2230 -0.4345
   23MOL    H6310227   7.895   2.584   5.814  0.2617  0.8054  0.2201
   23MOL    H6410228   7.734   2.642   5.800 -0.6758  2.6063  0.3959
   23MOL    H6510229   7.784   2.811   5.999  1.9385  1.6641  0.5297
   23MOL    H6610230   7.887   2.837   5.856  0.1103  2.8443  1.9981
   23MOL    H6710231   0.068   2.598   5.922 -1.4258  1.0992 -0.9635
   23MOL    H6810232   0.223   2.515   6.080 -0.0737  1.3847  0.3065
   23MOL    H6910233   0.016   2.719   6.398  1.5134 -0.7481  0.3136
   23MOL    H7010234   8.107   2.774   6.227 -1.3498 -2.5123 -0.1973
   23MOL    O7110235   0.454   2.490   6.404  0.7903 -0.5623  0.3043
   23MOL    C7210236   0.567   2.571   6.369  0.4736  0.5312  0.0746
   23MOL    C7310237   0.686   2.532   6.457  0.6653 -0.5029 -0.1964
   23MOL    O7410238   0.671   2.609   6.580  0.5790  0.8762  0.3018
   23MOL    C7510239   0.594   2.550   6.681 -0.1917 -0.7640  1.0441
   23MOL    O7610240   0.547   2.436   6.669 -0.1629  0.2211 -0.1520
   23MOL    C7710241   0.590   2.634   6.807 -0.9918 -0.3093  0.1330
   23MOL    C7810242   0.624   2.772   6.812  0.6159  0.0741  0.0494
   23MOL    C7910243   0.628   2.841   6.935  0.1963 -0.6176 -0.5515
   23MOL    C8010244   0.588   2.779   7.056  0.4630 -0.3354 -0.4943
   23MOL    C8110245   0.595   2.845   7.188 -0.3943  0.1591  0.2948
   23MOL    O8210246   0.580   2.781   7.289  0.3098  1.0964  0.3084
   23MOL    O8310247   0.623   2.978   7.182 -0.7769 -0.0739  0.0338
   23MOL    C8410248   0.554   2.643   7.049  0.0254 -0.2952  0.2363
   23MOL    C8510249   0.549   2.573   6.924  0.3137  0.8884 -0.6937
   23MOL    H8610250   0.605   2.547   6.270 -2.7690 -1.7609 -0.7283
   23MOL    H8710251   0.542   2.676   6.354 -0.6526  0.5572  2.0383
   23MOL    H8810252   0.779   2.564   6.411 -1.6004  3.8164 -2.0903
   23MOL    H8910253   0.698   2.424   6.465 -1.9934 -0.7807  0.4812
   23MOL    H9010254   0.657   2.819   6.720 -1.5039 -1.5889 -1.6283
   23MOL    H9110255   0.649   2.947   6.930  2.3732 -1.0887 -2.5231
   23MOL    H9210256   0.521   2.592   7.139 -1.2113  0.1266  0.0179
   23MOL    H9310257   0.514   2.470   6.922  0.8932  0.6798 -0.3260
   23MOL    O9410258   0.656   3.054   7.306  0.4650  0.2449  0.0018
   23MOL    C9510259   0.529   3.083   7.380 -0.4094  0.1433  0.5853
   23MOL    C9610260   0.554   3.199   7.468 -0.0278 -0.2467  0.4845
   23MOL    O9710261   0.438   3.225   7.544  0.7568 -0.3461  0.5002
   23MOL    C9810262   0.444   3.297   7.660  0.5802 -0.2424 -0.0328
   23MOL    O9910263   0.542   3.358   7.700 -0.3345 -0.1150  0.1811
   23MOL   C10010264   0.322   3.290   7.737 -0.2228 -0.0700 -0.2221
   23MOL   C10110265   0.297   3.393   7.830  0.1930  0.0397 -0.0347
   23MOL   C10210266   0.187   3.397   7.913 -0.0332 -0.5728  0.2589
   23MOL   C10310267   0.098   3.289   7.903  0.7832 -0.8398  0.2009
   23MOL   C10410268   8.255   3.276   7.987 -0.0312  0.9262 -0.2947
   23MOL   O10510269   8.143   3.255   7.938 -0.0930  1.1042 -0.6725
   23MOL   O10610270   0.010   3.275   8.119  0.2668 -0.0909  0.2143
   23MOL   C10710271   0.119   3.183   7.815 -0.5429 -0.0219 -0.5557
   23MOL   C10810272   0.234   3.179   7.730 -0.4822 -0.3199  0.2565
   23MOL   H10910273   0.446   3.105   7.312  1.4968  3.9330 -0.6575
   23MOL   H11010274   0.500   2.997   7.441 -0.5675  0.4583  0.9560
   23MOL   H11110275   0.574   3.285   7.405  0.3936 -0.5357  0.2196
   23MOL   H11210276   0.636   3.179   7.537  0.4545 -0.1328 -0.0470
   23MOL   H11310277   0.363   3.478   7.830  1.3360 -0.8065 -2.7574
   23MOL   H11410278   0.163   3.483   7.974  0.9979  1.1839 -1.7531
   23MOL   H11510279   0.056   3.095   7.825  0.7188 -0.7160  1.4262
   23MOL   H11610280   0.248   3.089   7.672 -0.8920 -0.8887  1.0217
   23MOL   O11710281   8.169   3.259   8.218 -0.8182 -0.1766  0.2632
   23MOL   C11810282   8.176   3.131   8.271  0.6762 -0.2302 -0.5048
   23MOL   C11910283   8.071   3.108   0.098  0.1467  0.4173 -0.3956
   23MOL   O12010284   8.063   2.974   0.135 -0.4171  0.2633 -0.4922
   23MOL   C12110285   7.986   2.888   0.057  1.1914  0.5461  0.2623
   23MOL   O12210286   7.923   2.921   8.232  0.5664 -0.2127 -0.3245
   23MOL   C12310287   7.976   2.742   0.102  0.3081  0.5573  0.5701
   23MOL   C12410288   7.893   2.658   0.026 -0.6433  0.3858 -0.4826
   23MOL   C12510289   7.866   2.530   0.070  0.1993  0.3492 -0.1551
   23MOL   C12610290   7.920   2.479   0.190 -0.2694  0.2668  0.6796
   23MOL   C12710291   7.884   2.339   0.233 -0.1379 -0.4472 -0.2960
   23MOL   O12810292   7.789   2.270   0.192  0.1732 -0.3114  0.0875
   23MOL   O12910293   7.978   2.295   0.315  0.3064 -0.1788 -0.7656
   23MOL   C13010294   8.004   2.568   0.265  0.8718 -0.5144  0.5394
   23MOL   C13110295   8.033   2.697   0.224 -0.3049 -0.2908 -0.3937
   23MOL   H13210296   8.159   3.068   8.183  1.1267  0.7791 -1.3138
   23MOL   H13310297   8.273   3.112   0.041  1.1366  0.9066 -0.9852
   23MOL   H13410298   7.975   3.143   0.060 -0.1864 -0.1228 -0.0578
   23MOL   H13510299   8.083   3.166   0.189  0.2156  0.0529 -0.1701
   23MOL   H13610300   7.861   2.683   8.201  0.5533 -1.5217 -1.3787
   23MOL   H13710301   7.790   2.476   0.015 -0.4093 -1.5131  2.4144
   23MOL   H13810302   8.043   2.541   0.362 -0.6780  0.4770  1.4537
   23MOL   H13910303   8.075   2.771   0.291 -0.8573 -1.6269  1.4756
   23MOL   O14010304   7.943   2.166   0.389 -0.0977 -0.5436  0.1072
   23MOL   C14110305   8.010   2.051   0.330  0.1057  0.1302  0.1826
   23MOL   C14210306   8.006   1.937   0.428 -0.0920 -0.0504  0.1984
   23MOL   O14310307   8.085   1.961   0.538 -0.4129 -0.1553 -0.3660
   23MOL   C14410308   8.032   2.014   0.653 -0.1233  0.7189  0.6899
   23MOL   O14510309   7.912   2.019   0.678 -0.0775  0.1759  0.6476
   23MOL   C14610310   8.138   2.056   0.745 -0.2629  0.0098  0.6069
   23MOL   C14710311   8.101   2.075   0.879 -0.2161  0.4665  0.1504
   23MOL   C14810312   8.198   2.112   0.971  0.1491 -0.2281 -0.2473
   23MOL   C14910313   0.062   2.127   0.938  0.1505  0.8096 -0.3633
   23MOL   C15010314   0.165   2.152   1.044  0.0223  0.3133 -0.2104
   23MOL   O15110315   0.131   2.176   1.159 -0.0525 -0.0231  0.4765
   23MOL   O15210316   0.291   2.134   1.005 -0.1718  0.2281 -0.0678
   23MOL   C15310317   0.096   2.117   0.800  0.3646  0.6547  0.1679
   23MOL   C15410318   8.272   2.079   0.704  0.4078  0.4526  0.7434
   23MOL   H15510319   7.959   2.032   0.236  1.2967 -2.5835  0.0397
   23MOL   H15610320   8.106   2.100   0.309 -0.4838  0.5421 -1.6821
   23MOL   H15710321   8.056   1.853   0.379 -1.0040 -0.1675 -0.5415
   23MOL   H15810322   7.908   1.901   0.460 -0.6737  0.2688 -1.1695
   23MOL   H15910323   7.994   2.069   0.893 -0.6249  1.9055 -1.9379
   23MOL   H16010324   8.170   2.116   1.075  1.7150 -0.1413  0.1916
   23MOL   H16110325   0.199   2.125   0.768  0.4350  2.1479  0.7555
   23MOL   H16210326   0.029   2.073   0.601 -1.7004 -0.5187  0.0991
   23MOL   O16310327   0.390   2.184   1.110  0.2134 -0.1022  0.2348
   23MOL   C16410328   0.479   2.080   1.133  0.4031 -0.2296 -0.0070
   23MOL   C16510329   0.597   2.136   1.203 -0.4444 -0.0502  0.6889
   23MOL   O16610330   0.669   2.227   1.117  0.1611 -0.2151 -0.0762
   23MOL   C16710331   0.779   2.293   1.163 -0.2518 -0.1142 -0.0393
   23MOL   O16810332   0.839   2.257   1.261  0.1856  0.0764 -0.2186
   23MOL   C16910333   0.826   2.412   1.087 -0.1955 -0.3963  0.0703
   23MOL   C17010334   0.950   2.475   1.126  0.3628 -0.2176 -0.0461
   23MOL   C17110335   0.991   2.593   1.064  0.5309 -0.4978  0.9323
   23MOL   C17210336   0.917   2.638   0.955  0.7257 -0.1854 -0.1053
   23MOL   C17310337   0.984   2.756   0.878 -0.0295  0.2024 -0.3624
   23MOL   O17410338   1.068   2.827   0.930 -0.1901  0.3338  0.2972
   23MOL   O17510339   0.933   2.771   0.748 -0.0170 -0.0215  0.3394
   23MOL   C17610340   0.804   2.572   0.907 -0.7131  0.1056  0.8964
   23MOL   C17710341   0.757   2.460   0.975  0.5995  0.5797 -1.0447
   23MOL   H17810342   0.417   2.006   1.183 -2.3502  3.0455  1.6076
   23MOL   H17910343   0.509   2.047   1.033  2.6824 -1.7306  1.1291
   23MOL   H18010344   0.669   2.060   1.234  0.1623  0.8153  1.4127
   23MOL   H18110345   0.576   2.182   1.299  1.9032  2.4892  0.0524
   23MOL   H18210346   1.007   2.438   1.210  0.4542 -1.7320 -0.7509
   23MOL   H18310347   1.074   2.647   1.106  0.5609  0.5229 -0.4113
   23MOL   H18410348   0.753   2.598   0.815 -1.2805 -0.5382  1.0216
   23MOL   H18510349   0.667   2.409   0.946 -1.1583  3.1906 -0.4007
   23MOL   O18610350   0.992   2.892   0.684  0.3387  0.8294  0.6284
   23MOL   C18710351   0.894   3.000   0.685 -0.2279  0.0957 -0.3077
   23MOL   C18810352   0.785   2.967   0.584 -0.4169  0.5013  0.2775
   23MOL   O18910353   0.711   3.079   0.545 -0.0966  0.9887 -0.1417
   23MOL   C19010354   0.580   3.088   0.579  0.6502 -0.7732  0.2354
   23MOL   O19110355   0.503   2.997   0.624  0.1094 -0.5004 -0.0985
   23MOL   C19210356   0.519   3.217   0.542  0.2259  0.0069  0.4230
   23MOL   C19310357   0.580   3.304   0.447  0.2176 -0.0159 -0.7219
   23MOL   C19410358   0.509   3.423   0.408 -0.5401  0.3740 -0.1802
   23MOL   C19510359   0.385   3.459   0.467 -0.9619  0.4748 -0.1195
   23MOL   C19610360   0.323   3.579   0.421  0.1594 -0.4489 -0.0434
   23MOL   O19710361   0.371   3.669   0.354  0.2805 -0.2549  0.1887
   23MOL   O19810362   0.187   3.582   0.443  0.0322  0.2396 -0.2491
   23MOL   C19910363   0.321   3.364   0.554 -0.2143  0.5853 -0.4669
   23MOL   C20010364   0.388   3.244   0.591 -0.0680 -0.1923  0.4701
   23MOL   H20110365   0.855   3.006   0.787 -0.1649 -1.0811 -0.2012
   23MOL   H20210366   0.950   3.087   0.653  0.7166 -0.8890 -1.3981
   23MOL   H20310367   0.730   2.875   0.604 -0.1972 -0.0343 -1.4651
   23MOL   H20410368   0.824   2.932   0.488  0.1863 -0.9531  1.0310
   23MOL   H20510369   0.674   3.272   0.406  0.0888 -4.0761  1.9140
   23MOL   H20610370   0.550   3.486   0.330 -2.4219  1.9294  0.0531
   23MOL   H20710371   0.222   3.391   0.589  0.2934  1.3372  0.3878
   23MOL   H20810372   0.341   3.175   0.659 -3.4648  0.1335 -1.4487
   23MOL   O20910373   0.117   3.711   0.409 -0.2022  0.0288  0.1603
   23MOL   C21010374   0.038   3.694   0.294 -0.3543 -0.4729  0.1726
   23MOL   C21110375   8.228   3.815   0.257 -0.2565 -0.7394  0.9232
   23MOL   O21210376   0.029   3.922   0.208 -0.4550 -0.0353 -0.3939
   23MOL   C21310377   0.003   4.046   0.227 -0.6262 -0.2342 -0.0473
   23MOL   O21410378   8.193   4.090   0.303  0.2455  0.1056  0.3740
   23MOL   C21510379   0.089   4.140   0.143 -0.4544  0.4303  0.2163
   23MOL   C21610380   0.041   4.270   0.126  0.1560 -0.3244 -0.6834
   23MOL   C21710381   0.107   4.359   0.051  0.1439 -0.0158 -0.0808
   23MOL   C21810382   0.230   4.325   8.260 -0.7460 -0.0789 -0.7282
   23MOL   C21910383   0.306   4.418   8.166  0.3703  0.1867 -0.5849
   23MOL   O22010384   0.411   4.391   8.101  0.3244 -0.3680  0.2500
   23MOL   O22110385   0.246   4.535   8.154  0.4353 -0.1235  0.2348
   23MOL   C22210386   0.280   4.193   0.006 -0.2321 -0.4745  0.3544
   23MOL   C22310387   0.218   4.106   0.091  0.0695 -0.6549  0.3064
   23MOL   H22410388   0.097   3.662   0.207  2.5967  1.5998  1.3100
   23MOL   H22510389   8.245   3.616   0.328 -0.2156  0.4522  2.6550
   23MOL   H22610390   8.178   3.854   0.345 -1.7271  2.8437 -1.3723
   23MOL   H22710391   8.145   3.779   0.196  0.6500 -1.3832  0.0597
   23MOL   H22810392   8.217   4.297   0.159  0.5204 -1.3249  1.3313
   23MOL   H22910393   0.062   4.456   0.040  1.0807  0.3638 -0.5735
   23MOL   H23010394   0.371   4.161   8.234 -1.9196 -1.9097 -2.0611
   23MOL   H23110395   0.259   4.012   0.126  2.2700  0.3022  0.3999
   23MOL   O23210396   0.320   4.632   8.064  0.1925  0.1695 -0.1981
   23MOL   C23310397   0.247   4.643   7.937  0.1767  0.4736 -0.5146
   23MOL   C23410398   0.309   4.770   7.870 -0.3137  0.1939 -0.1158
   23MOL   O23510399   0.224   4.819   7.771  0.4280  0.7233 -0.2040
   23MOL   C23610400   0.249   4.837   7.643  0.8292 -0.2221  0.0148
   23MOL   O23710401   0.358   4.837   7.593 -0.4179 -0.1461 -0.4241
   23MOL   C23810402   0.121   4.850   7.563 -0.1878 -0.0912 -0.3534
   23MOL   C23910403   8.270   4.844   7.621 -0.0580  0.1786  0.2984
   23MOL   C24010404   8.161   4.861   7.539  0.4138 -0.1667 -0.4546
   23MOL   C24110405   8.173   4.895   7.406  0.3927  0.2895 -0.0883
   23MOL   C24210406   8.049   4.938   7.328  0.3872  0.7415 -0.3030
   23MOL   O24310407   8.051   4.942   7.205  0.9241 -0.4857  0.0302
   23MOL   O24410408   7.941   4.961   7.410 -0.4892 -0.0274 -0.6000
   23MOL   C24510409   0.022   4.892   7.342  0.1003  0.3725 -0.0120
   23MOL   C24610410   0.136   4.868   7.426  0.0853  0.6671  0.4324
   23MOL   H24710411   0.262   4.550   7.883  1.3370  0.0704  0.4767
   23MOL   H24810412   0.141   4.657   7.958  0.0549 -1.0957 -0.0686
   23MOL   H24910413   0.406   4.739   7.829  0.0945  0.2021  0.8277
   23MOL   H25010414   0.336   4.850   7.938  0.5059 -0.0163 -0.1796
   23MOL   H25110415   8.257   4.827   7.726  0.2822 -2.0773  0.0007
   23MOL   H25210416   8.063   4.872   7.581 -0.0289 -0.1805 -1.4580
   23MOL   H25310417   0.029   4.919   7.238 -1.8389 -2.1310 -0.8552
   23MOL   H25410418   0.233   4.876   7.378  1.1333 -1.4581  2.0671
   23MOL   O25510419   7.816   4.986   7.330  0.0853  0.2656  0.0688
   23MOL   C25610420   7.718   4.912   7.393  0.3181  0.1918  0.1063
   23MOL   C25710421   7.684   4.971   7.532 -0.0716 -0.1178  1.0656
   23MOL   O25810422   7.781   4.925   7.626 -0.0931  0.4016  0.7323
   23MOL   C25910423   7.749   4.810   7.700 -0.3064  0.2082 -0.0536
   23MOL   O26010424   7.653   4.733   7.676  0.2223  0.0704  0.0581
   23MOL   C26110425   7.856   4.777   7.797 -0.6510  0.0862  0.8651
   23MOL   C26210426   7.871   4.649   7.855  0.1556  0.4175  0.1700
   23MOL   C26310427   7.977   4.620   7.948  0.7009 -0.3418 -0.3180
   23MOL   C26410428   8.068   4.717   7.988 -0.0512  0.0013  0.6968
   23MOL   C26510429   8.158   4.680   8.100 -0.6940 -0.2261  0.3585
   23MOL   O26610430   8.181   4.570   8.147 -0.3006 -0.2621  0.2488
   23MOL   O26710431   8.232   4.787   8.149 -0.0941  0.3356 -0.2458
   23MOL   C26810432   8.058   4.849   7.926  0.0675  0.1375 -0.0590
   23MOL   C26910433   7.952   4.879   7.830  0.1966  0.2592  0.5149
   23MOL   H27010434   7.626   4.922   7.335 -0.7795 -1.7717  1.4366
   23MOL   H27110435   7.742   4.806   7.399  0.6959  0.1586 -1.5604
   23MOL   H27210436   7.577   4.961   7.548  0.1399 -0.5536  2.2780
   23MOL   H27310437   7.689   5.080   7.526 -0.0132 -0.2050 -1.0351
   23MOL   H27410438   7.804   4.568   7.831 -1.4477  1.6444  0.3382
   23MOL   H27510439   7.982   4.525   7.999 -1.2302 -0.4028 -0.2091
   23MOL   H27610440   8.133   4.925   7.942  1.9233 -1.7964  0.6426
   23MOL   H27710441   7.951   4.982   7.797  0.4376  0.1503  0.1730
   23MOL   O27810442   0.048   4.765   8.269  0.0530 -0.0983 -0.0057
   23MOL   C27910443   8.258   4.810   0.112 -0.3750  0.0889 -0.6379
   23MOL   C28010444   0.079   4.828   0.230 -0.1831  0.5523  0.2170
   23MOL   O28110445   0.111   4.702   0.297  0.1471  0.5053 -0.4156
   23MOL   C28210446   0.213   4.627   0.254  0.7488  0.1799 -0.0859
   23MOL   O28310447   0.287   4.672   0.164 -0.2210  0.3140 -0.1273
   23MOL   C28410448   0.230   4.498   0.323  0.0017  0.2488  0.0798
   23MOL   C28510449   0.138   4.449   0.416  0.0441  0.5854  0.1814
   23MOL   C28610450   0.154   4.327   0.486 -0.1129  0.2928  0.5746
   23MOL   C28710451   0.269   4.251   0.465 -0.8913  0.1331  0.1423
   23MOL   C28810452   0.294   4.134   0.549 -0.7890  0.4341  0.2618
   23MOL   O28910453   0.394   4.065   0.533  0.2209 -0.0257  0.0292
   23MOL   O29010454   0.198   4.108   0.642  0.2477  0.0086 -0.1277
   23MOL   C29110455   0.365   4.287   0.361  0.2583 -0.7253 -0.5062
   23MOL   C29210456   0.351   4.420   0.302  0.8808  0.3694 -0.3279
   23MOL   H29310457   8.217   4.909   0.094  2.4834  1.9663  2.5267
   23MOL   H29410458   8.176   4.747   0.147 -1.0142  1.4106  0.3065
   23MOL   H29510459   0.034   4.896   0.303  1.8103  2.1792 -0.0470
   23MOL   H29610460   0.166   4.882   0.194 -0.6084  0.8635 -0.3481
   23MOL   H29710461   0.050   4.510   0.435 -0.0066  0.7461 -0.5388
   23MOL   H29810462   0.079   4.304   0.559  1.1292 -0.3985  1.6477
   23MOL   H29910463   0.449   4.224   0.336  0.6466 -0.3153 -0.2277
   23MOL   H30010464   0.416   4.456   0.224  0.9535 -0.0571 -0.4694
   23MOL   O30110465   0.227   3.989   0.734  0.0048 -0.1956 -0.0660
   23MOL   C30210466   0.170   3.868   0.683 -0.3696  0.8297 -0.1723
   23MOL   C30310467   0.159   3.756   0.784  0.6148 -0.0483  0.0632
   23MOL   O30410468   0.283   3.690   0.794  0.1405  0.3655  0.1563
   23MOL   C30510469   0.350   3.687   0.911 -0.3237 -0.9364  0.0673
   23MOL   O30610470   0.313   3.740   1.016  0.0266 -0.3224 -0.4828
   23MOL   C30710471   0.482   3.615   0.908 -0.2709  0.2318  0.4181
   23MOL   C30810472   0.525   3.546   0.801 -0.1390 -0.8183  0.9502
   23MOL   C30910473   0.645   3.469   0.807 -0.1128 -0.4464 -0.3281
   23MOL   C31010474   0.720   3.473   0.921 -0.6136  0.6237  0.3511
   23MOL   C31110475   0.840   3.385   0.933  0.0649  0.3923 -0.2363
   23MOL   O31210476   0.885   3.314   0.843 -0.0446 -0.1966 -0.2560
   23MOL   O31310477   0.889   3.382   1.054 -0.1096  0.0451  0.2723
   23MOL   C31410478   0.684   3.557   1.031 -0.3076 -0.2658  0.7142
   23MOL   C31510479   0.567   3.631   1.019  0.1422  0.3915 -0.0684
   23MOL   H31610480   0.078   3.882   0.627  0.8604  0.4443 -2.3291
   23MOL   H31710481   0.233   3.833   0.601  1.7961  1.3065  1.2474
   23MOL   H31810482   0.094   3.674   0.754  3.1253 -2.5544  1.1597
   23MOL   H31910483   0.115   3.804   0.871 -0.6134 -0.2049 -0.4591
   23MOL   H32010484   0.469   3.531   0.710  2.2461 -0.1023 -0.6845
   23MOL   H32110485   0.663   3.402   0.724 -1.0084 -0.3111 -0.6333
   23MOL   H32210486   0.747   3.567   1.118 -1.9887  1.3303  1.7730
   23MOL   H32310487   0.535   3.704   1.092 -0.7150  0.3382 -0.3912
   23MOL   O32410488   1.000   3.281   1.077 -0.1443 -0.3382  0.5010
   23MOL   C32510489   0.943   3.171   1.143  0.7738  0.2513  0.1361
   23MOL   C32610490   1.036   3.047   1.155  0.6389  0.1173  0.3526
   23MOL   O32710491   0.958   2.940   1.201  0.3048 -0.3534  0.2797
   23MOL   C32810492   0.986   2.879   1.313 -0.7294 -0.0176 -0.3711
   23MOL   O32910493   1.087   2.901   1.377  0.0805  0.3738 -0.3112
   23MOL   C33010494   0.891   2.771   1.348 -0.4387 -0.0022  0.5870
   23MOL   C33110495   0.757   2.781   1.300 -0.2764 -0.4601  0.0399
   23MOL   C33210496   0.664   2.678   1.330 -0.2576  0.3485  1.1713
   23MOL   C33310497   0.697   2.570   1.410 -0.3986  0.3714  0.3080
   23MOL   C33410498   0.591   2.475   1.457 -0.2669  0.2504 -0.0538
   23MOL   O33510499   0.590   2.418   1.564  0.4871  0.1488  0.2341
   23MOL   O33610500   0.508   2.451   1.364  0.3808 -0.5254 -0.1500
   23MOL   C33710501   0.832   2.565   1.462 -0.5262 -0.1147 -0.2365
   23MOL   C33810502   0.933   2.655   1.424  0.7861  0.4270 -0.7393
   23MOL   H33910503   0.905   3.219   1.233  0.6936  2.9904 -1.3014
   23MOL   H34010504   0.855   3.142   1.085 -0.1581 -2.0952  2.5956
   23MOL   H34110505   1.122   3.067   1.219  0.1679 -1.1131  1.3925
   23MOL   H34210506   1.077   3.017   1.059 -0.5541 -1.7028  0.3799
   23MOL   H34310507   0.732   2.864   1.237  1.4898  0.2431  0.2655
   23MOL   H34410508   0.565   2.700   1.293  0.3750  0.1181 -0.7036
   23MOL   H34510509   0.861   2.484   1.527 -0.9190 -1.7047 -1.9881
   23MOL   H34610510   1.028   2.651   1.476 -0.0057 -0.3158  0.6699
   23MOL   O34710511   0.422   2.334   1.399  0.4391  0.1232  0.2417
   23MOL   C34810512   0.288   2.382   1.412  0.3552  0.4119 -0.0507
   23MOL   C34910513   0.247   2.472   1.288 -0.0407  0.1753 -0.9450
   23MOL   O35010514   0.108   2.459   1.259  0.2499 -0.3331 -0.4904
   23MOL   C35110515   0.020   2.547   1.310  0.2876  0.5408 -0.3572
   23MOL   O35210516   0.054   2.647   1.374  0.4934 -0.9560  0.0868
   23MOL   C35310517   8.158   2.501   1.279  0.1169 -0.3288 -0.2991
   23MOL   C35410518   8.126   2.378   1.224  0.2289  0.0126  0.7569
   23MOL   C35510519   7.991   2.340   1.209 -0.9911  0.1372 -0.4001
   23MOL   C35610520   7.884   2.434   1.239  0.5924 -0.2571 -0.5087
   23MOL   C35710521   7.749   2.394   1.197 -0.0828  0.0234 -0.2421
   23MOL   O35810522   7.714   2.296   1.132 -0.5167  0.0364  0.1279
   23MOL   O35910523   7.657   2.473   1.233  0.0529  0.1398 -0.4550
   23MOL   C36010524   7.918   2.557   1.297  0.1123  0.7904  0.5462
   23MOL   C36110525   8.051   2.589   1.322 -0.1382  0.1296 -0.6522
   23MOL   H36210526   0.217   2.299   1.411  0.2839  0.4391  1.5829
   23MOL   H36310527   0.270   2.429   1.508  1.6968  1.1874 -0.1728
   23MOL   H36410528   0.297   2.423   1.204 -0.2759 -0.4345 -0.7352
   23MOL   H36510529   0.274   2.577   1.288 -1.4219  0.5364  0.2613
   23MOL   H36610530   8.204   2.307   1.199 -2.1596 -2.3395 -0.1868
   23MOL   H36710531   7.970   2.252   1.150 -1.3639  0.2541 -0.4445
   23MOL   H36810532   7.839   2.624   1.326 -1.5074 -0.8973  0.1620
   23MOL   H36910533   8.079   2.686   1.360  2.1828 -0.2201 -1.3756
   23MOL   O37010534   7.520   2.440   1.169  0.2084  0.2981 -0.2617
   23MOL   C37110535   7.452   2.354   1.267  0.4622  0.1117  0.4867
   23MOL   C37210536   7.303   2.330   1.236  0.4715  0.0466 -0.1706
   23MOL   O37310537   7.223   2.435   1.287  0.2480  0.6161 -0.7153
   23MOL   C37410538   7.091   2.436   1.273  0.2137 -0.1934  0.1708
   23MOL   O37510539   7.029   2.344   1.227 -0.1042 -0.2986  0.3259
   23MOL   C37610540   7.030   2.567   1.314 -0.6095  0.0924 -0.3154
   23MOL   C37710541   7.108   2.663   1.385  0.1185 -0.2305 -0.1781
   23MOL   C37810542   7.054   2.787   1.422  0.3701 -0.0437 -0.5306
   23MOL   C37910543   6.919   2.820   1.392  0.4112 -0.4870 -0.7676
   23MOL   C38010544   6.850   2.955   1.431  0.0645  0.1852  0.7228
   23MOL   O38110545   6.738   2.998   1.396  0.0386 -0.0527  0.2606
   23MOL   O38210546   6.939   3.035   1.486  0.4752 -0.0187 -0.1346
   23MOL   C38310547   6.843   2.728   1.324 -0.2765 -0.1237 -0.5412
   23MOL   C38410548   6.902   2.607   1.283  0.7317  0.2773 -0.0868
   23MOL   H38510549   7.504   2.259   1.267  2.6508  1.2616 -0.1149
   23MOL   H38610550   7.457   2.387   1.370 -1.9265 -0.1118  0.6992
   23MOL   H38710551   7.265   2.238   1.281  0.4214 -0.0804 -0.4764
   23MOL   H38810552   7.291   2.320   1.128 -2.0670  1.4171 -0.0552
   23MOL   H38910553   7.215   2.655   1.394  0.5038  1.2572 -2.8442
   23MOL   H39010554   7.109   2.868   1.469 -1.0597  0.1895  0.7706
   23MOL   H39110555   6.747   2.760   1.285  0.6043 -0.5790 -3.1961
   23MOL   H39210556   6.841   2.537   1.227  1.5726  0.5770 -1.3822
   23MOL   O39310557   6.900   3.184   1.484 -0.3551 -0.3137 -0.6008
   23MOL   C39410558   6.835   3.208   1.610 -0.3222 -0.1303  0.2830
   23MOL   C39510559   6.870   3.351   1.657  1.1082  0.3766  0.4551
   23MOL   O39610560   6.834   3.454   1.562  0.0088 -0.3896 -0.0394
   23MOL   C39710561   6.713   3.499   1.570  0.4063  1.0975 -0.4541
   23MOL   O39810562   6.630   3.468   1.650 -0.1106 -0.4176 -1.2912
   23MOL   C39910563   6.686   3.581   1.452 -0.6375 -0.0158  0.5561
   23MOL   C40010564   6.551   3.600   1.409 -0.0279 -0.5913  0.1053
   23MOL   C40110565   6.525   3.667   1.284  0.1853 -0.3790 -0.0173
   23MOL   C40210566   6.629   3.727   1.208 -0.1071  0.9555  0.0181
   23MOL   C40310567   6.592   3.778   1.074  0.3080  0.0192 -0.1434
   23MOL   O40410568   6.484   3.818   1.035  0.2998  0.5854 -0.3791
   23MOL   O40510569   6.705   3.798   1.000 -0.1556 -0.0527  0.5374
   23MOL   C40610570   6.763   3.707   1.256  0.3958 -0.2413 -0.2301
   23MOL   C40710571   6.791   3.642   1.375 -0.1288  0.0248 -0.4644
   23MOL   H40810572   6.727   3.213   1.596  0.0890 -0.3960 -3.5448
   23MOL   H40910573   6.851   3.125   1.679  0.5816  0.8678  1.2951
   23MOL   H41010574   6.977   3.356   1.676  0.9398  0.3333  1.4404
   23MOL   H41110575   6.812   3.370   1.748  0.6574  1.1492  0.0139
   23MOL   H41210576   6.476   3.553   1.470 -2.7467  0.2020 -2.5255
   23MOL   H41310577   6.424   3.667   1.244  0.8721 -1.0126 -1.8067
   23MOL   H41410578   6.842   3.753   1.199 -0.6980  1.9247 -0.0716
   23MOL   H41510579   6.894   3.636   1.406 -0.2950 -0.1777  0.0465
   23MOL   O41610580   6.687   3.916   0.907  0.0584 -0.5959  0.1911
   23MOL   C41710581   6.761   4.019   0.976  0.4160  0.3414  0.9758
   23MOL   C41810582   6.737   4.160   0.908 -0.4475  0.4734  0.1614
   23MOL   O41910583   6.621   4.219   0.965  0.0283 -0.2293  0.8879
   23MOL   C42010584   6.618   4.353   1.012  0.1927  0.1525  0.6778
   23MOL   O42110585   6.702   4.440   0.993  0.1773  0.1844  0.2892
   23MOL   C42210586   6.489   4.381   1.091 -0.2799  0.0729  0.7559
   23MOL   C42310587   6.464   4.514   1.128  0.0657 -0.7685  0.0547
   23MOL   C42410588   6.350   4.542   1.205  0.4886 -0.4356 -0.7273
   23MOL   C42510589   6.260   4.438   1.231  0.0455  0.0353 -0.4748
   23MOL   C42610590   6.126   4.474   1.292 -0.4826 -0.4137  0.0574
   23MOL   O42710591   6.081   4.581   1.327  0.4461  0.3667 -0.3489
   23MOL   O42810592   6.061   4.360   1.315  0.0104  0.1918  0.5666
   23MOL   C42910593   6.284   4.309   1.192  0.0809 -0.4325 -0.1857
   23MOL   C43010594   6.401   4.275   1.127  0.4639 -0.4828  0.2354
   23MOL   H43110595   6.751   4.024   1.084 -0.4285 -0.3136  0.9389
   23MOL   H43210596   6.867   4.001   0.960  0.6501  0.3324  2.4917
   23MOL   H43310597   6.723   4.150   0.801 -0.7988  0.6387  0.1931
   23MOL   H43410598   6.826   4.222   0.915  0.2853 -0.5606  0.1391
   23MOL   H43510599   6.524   4.601   1.106 -0.2860 -1.0863 -2.2061
   23MOL   H43610600   6.329   4.643   1.238 -0.4807 -0.4502 -1.2645
   23MOL   H43710601   6.224   4.237   1.244 -1.2497 -0.1922 -1.3493
   23MOL   H43810602   6.424   4.170   1.111 -0.9040 -0.9157  1.0124
   23MOL   O43910603   5.925   4.385   1.388  1.0500  0.4629  0.3679
   23MOL   C44010604   5.933   4.349   1.525  0.1355 -0.5786 -0.5264
   23MOL   C44110605   5.809   4.391   1.600  0.0230  0.2925 -0.7933
   23MOL   O44210606   5.826   4.325   1.726 -0.7931  0.3099  0.1237
   23MOL   C44310607   5.785   4.393   1.838 -0.2635 -0.1032 -0.2438
   23MOL   O44410608   5.740   4.511   1.851  0.3491 -0.7644 -0.1823
   23MOL   C44510609   5.808   4.305   1.953  0.4979  0.1691 -0.1526
   23MOL   C44610610   5.865   4.356   2.070 -0.4485  0.1896  0.5615
   23MOL   C44710611   5.891   4.277   2.179 -0.4186 -0.1980  0.1938
   23MOL   C44810612   5.875   4.135   2.165  0.2087  0.6153 -0.1320
   23MOL   C44910613   5.917   4.048   2.281 -0.3874  0.3606  0.1259
   23MOL   O45010614   5.995   4.082   2.369 -0.8223 -0.4804  0.2597
   23MOL   O45110615   5.849   3.928   2.296  0.0209 -0.2400  0.0081
   23MOL   C45210616   5.825   4.087   2.042  0.2021  1.3672 -0.1291
   23MOL   C45310617   5.777   4.170   1.941  0.8105 -0.0328 -0.2570
   23MOL   H45410618   5.954   4.242   1.527  2.0597 -0.2508 -2.2309
   23MOL   H45510619   6.022   4.400   1.561 -2.0879  1.6412  2.0713
   23MOL   H45610620   5.723   4.356   1.545  1.0952 -0.7794 -1.8151
   23MOL   H45710621   5.824   4.498   1.613 -2.5503  0.3957  1.6902
   23MOL   H45810622   5.884   4.462   2.082  0.4620  0.3134 -1.6783
   23MOL   H45910623   5.924   4.319   2.273  1.6346 -2.2288  0.4382
   23MOL   H46010624   5.810   3.981   2.032  1.2155  1.1771  0.2615
   23MOL   H46110625   5.735   4.135   1.848  0.1605  2.3920 -0.9148
   23MOL   H46210626   5.881   3.891   2.376  0.7594 -0.9740 -0.6144
   24MOL     O110627   1.997   3.548   6.113  0.1163  0.2940  0.4137
   24MOL     C210628   1.876   3.624   6.103  0.5506 -0.2971  0.4893
   24MOL     C310629   1.881   3.766   6.157  0.5132 -0.4582 -0.3437
   24MOL     O410630   1.962   3.841   6.059  0.3285  0.1612 -0.5143
   24MOL     C510631   1.909   3.903   5.951 -0.9344 -0.2035 -1.1636
   24MOL     O610632   1.796   3.889   5.905 -0.0137  0.5651  0.1170
   24MOL     C710633   2.009   3.989   5.878 -0.7401 -0.5682 -0.4444
   24MOL     C810634   2.146   3.990   5.910  0.1299  0.1698 -0.7176
   24MOL     C910635   2.232   4.071   5.835 -0.3206 -0.1778 -0.0931
   24MOL    C1010636   2.196   4.139   5.714 -0.3745 -0.6163 -0.3048
   24MOL    C1110637   2.302   4.196   5.625 -0.1754  0.4073 -0.3952
   24MOL    O1210638   2.422   4.172   5.644  0.3607  0.5223 -0.4143
   24MOL    O1310639   2.259   4.275   5.525 -0.1409 -0.3417 -0.6129
   24MOL    C1410640   2.060   4.132   5.679  0.3821 -0.6452  0.6049
   24MOL    C1510641   1.968   4.054   5.758 -0.1145 -0.1317 -0.4933
   24MOL    H1610642   1.856   3.619   5.996 -2.4549 -0.6259  1.0353
   24MOL    H1710643   1.798   3.568   6.154  0.9040 -3.8355 -2.5757
   24MOL    H1810644   1.914   3.776   6.261 -1.1727 -0.5166  0.2017
   24MOL    H1910645   1.782   3.809   6.171 -0.1982 -2.3631  0.7009
   24MOL    H2010646   2.183   3.935   5.995 -0.9269  0.3761 -0.1132
   24MOL    H2110647   2.338   4.071   5.853 -0.4458  4.7183  1.4323
   24MOL    H2210648   2.023   4.185   5.592  1.4851 -1.5789 -0.4584
   24MOL    H2310649   1.865   4.054   5.727 -1.5194 -0.2497  3.7751
   24MOL    H2410650   2.012   3.529   6.204  0.0670  0.0968  0.3804
   24MOL    O2510651   2.359   4.286   5.415 -0.2428 -0.1394  0.6623
   24MOL    C2610652   2.408   4.417   5.403  0.3274  0.6248  0.2876
   24MOL    C2710653   2.530   4.443   5.491 -0.1211 -0.5042 -0.3272
   24MOL    O2810654   2.495   4.480   5.625  0.4691 -0.2231 -0.1457
   24MOL    C2910655   2.576   4.454   5.724 -0.1838  0.3689 -0.4941
   24MOL    O3010656   2.690   4.404   5.715  0.1206 -0.5138  0.5642
   24MOL    C3110657   2.509   4.462   5.858  0.9974 -0.0318  0.0225
   24MOL    C3210658   2.582   4.483   5.974  0.2708  0.6288 -0.6505
   24MOL    C3310659   2.529   4.505   6.105  0.1083 -0.1555 -0.4267
   24MOL    C3410660   2.391   4.515   6.110  0.7879  0.0753 -0.0094
   24MOL    C3510661   2.319   4.549   6.238  0.3441  1.0677  0.0791
   24MOL    O3610662   2.213   4.607   6.238 -0.1192  0.3277  0.0054
   24MOL    O3710663   2.379   4.500   6.345 -0.7028 -0.0911  0.0307
   24MOL    C3810664   2.307   4.505   5.998  0.1056  0.4628  0.6817
   24MOL    C3910665   2.368   4.471   5.871 -0.1703 -0.1458 -0.2060
   24MOL    H4010666   2.425   4.434   5.297 -1.0202  0.4278  0.0318
   24MOL    H4110667   2.330   4.491   5.424 -0.9939 -0.1378 -1.8667
   24MOL    H4210668   2.581   4.532   5.453 -1.6100  0.9695  1.0744
   24MOL    H4310669   2.606   4.365   5.484 -0.8385 -1.2865  0.5564
   24MOL    H4410670   2.689   4.464   5.981 -0.0582 -1.8482 -1.7080
   24MOL    H4510671   2.589   4.500   6.194 -1.6520 -0.9626  0.7417
   24MOL    H4610672   2.200   4.510   6.008 -0.0951 -1.6088 -0.2412
   24MOL    H4710673   2.306   4.440   5.788 -1.5944  3.6321 -0.6509
   24MOL    O4810674   2.322   4.545   6.477 -0.2403  0.2763  0.1012
   24MOL    C4910675   2.225   4.444   6.516 -0.1241  0.4442  0.4274
   24MOL    C5010676   2.104   4.510   6.560  0.0943 -0.0965  0.4372
   24MOL    O5110677   2.009   4.549   6.456  0.2511  0.4276 -0.0417
   24MOL    C5210678   1.965   4.687   6.453  0.2156  0.4007  0.9013
   24MOL    O5310679   1.969   4.761   6.547 -0.2699  0.4069 -0.8082
   24MOL    C5410680   1.901   4.722   6.322 -0.4678  0.2610  0.2664
   24MOL    C5510681   1.881   4.633   6.212  0.5188  0.1078 -0.3549
   24MOL    C5610682   1.841   4.675   6.087  1.0036  0.1746  0.1434
   24MOL    C5710683   1.808   4.809   6.069 -0.0201 -0.6156 -0.0458
   24MOL    C5810684   1.788   4.869   5.933  0.3320 -0.2159 -0.2251
   24MOL    O5910685   1.734   4.978   5.918  0.0917 -0.0248 -0.1584
   24MOL    O6010686   1.809   4.785   5.832 -0.1343  0.2157  0.0931
   24MOL    C6110687   1.810   4.896   6.180  0.0479 -0.1175 -0.1819
   24MOL    C6210688   1.861   4.860   6.305 -0.1998  0.9461  0.1865
   24MOL    H6310689   2.200   4.379   6.433 -0.3748  1.7406 -0.5338
   24MOL    H6410690   2.266   4.380   6.594  0.2073 -1.4757 -1.2702
   24MOL    H6510691   2.126   4.599   6.619 -0.4426 -0.4380  1.1683
   24MOL    H6610692   2.056   4.448   6.637  1.6366 -0.6399  0.9730
   24MOL    H6710693   1.902   4.527   6.221  1.3835  0.1329 -1.9280
   24MOL    H6810694   1.833   4.599   6.011 -1.0492 -0.8087  1.3179
   24MOL    H6910695   1.785   4.999   6.159  0.4968  0.0830  0.2604
   24MOL    H7010696   1.857   4.929   6.387 -3.5275 -0.9681  1.7252
   24MOL    O7110697   1.758   4.843   5.699 -0.2713  0.5094  0.1298
   24MOL    C7210698   1.869   4.899   5.629 -0.1693  0.3175  0.0567
   24MOL    C7310699   1.804   4.975   5.508 -0.2506 -0.3407 -0.7805
   24MOL    O7410700   1.761   4.880   5.404  0.4906 -0.1737 -0.2063
   24MOL    C7510701   1.838   4.850   5.293 -0.7240 -0.6135  0.2843
   24MOL    O7610702   1.938   4.906   5.259  0.0297  0.1819 -0.1274
   24MOL    C7710703   1.815   4.711   5.243  0.7560 -0.3265  0.2713
   24MOL    C7810704   1.895   4.668   5.133  0.5380 -0.1377 -0.1692
   24MOL    C7910705   1.897   4.536   5.087 -0.3591  0.1337 -0.1010
   24MOL    C8010706   1.818   4.443   5.159  0.2138  0.1750  0.3019
   24MOL    C8110707   1.826   4.298   5.122 -0.8795 -0.2327 -0.0476
   24MOL    O8210708   1.863   4.254   5.012 -0.2158 -0.2489  0.1564
   24MOL    O8310709   1.824   4.219   5.226  0.5761 -0.4587 -0.2846
   24MOL    C8410710   1.729   4.482   5.261  0.4370  0.3040  0.3831
   24MOL    C8510711   1.731   4.617   5.307 -0.0515 -0.5341 -0.2997
   24MOL    H8610712   1.934   4.955   5.697 -0.6517  2.1658 -0.9756
   24MOL    H8710713   1.935   4.824   5.585 -1.3301 -1.0243  0.5981
   24MOL    H8810714   1.869   5.057   5.476 -1.7709  1.6889  1.1814
   24MOL    H8910715   1.710   5.014   5.547 -0.4791 -1.3787 -0.2808
   24MOL    H9010716   1.953   4.738   5.074 -0.6967  0.0142 -1.2260
   24MOL    H9110717   1.949   4.509   4.997 -0.7481 -0.1976 -0.2293
   24MOL    H9210718   1.677   4.405   5.315  0.0351  1.5880  1.8529
   24MOL    H9310719   1.677   4.655   5.393  0.1273  1.6978 -1.1245
   24MOL    O9410720   1.854   4.079   5.196 -0.3285 -0.0034 -0.1941
   24MOL    C9510721   1.983   4.053   5.254 -0.4526 -0.2330  0.0030
   24MOL    C9610722   2.020   3.908   5.232  0.0572 -0.2842 -0.1669
   24MOL    O9710723   2.088   3.866   5.346 -0.1372  0.3396  0.5947
   24MOL    C9810724   2.024   3.776   5.428 -0.3997 -0.8913  0.1751
   24MOL    O9910725   1.919   3.724   5.396 -0.5370 -0.3153  0.6059
   24MOL   C10010726   2.097   3.755   5.549 -0.4273 -0.1363  0.4247
   24MOL   C10110727   2.035   3.698   5.660  0.2399  0.0831 -0.1275
   24MOL   C10210728   2.105   3.657   5.776 -0.4531 -0.6595 -0.2471
   24MOL   C10310729   2.237   3.698   5.799 -0.1840  0.3483  0.9611
   24MOL   C10410730   2.313   3.663   5.920 -0.4430 -0.0449 -0.5085
   24MOL   O10510731   2.411   3.728   5.960  0.2263 -0.1465 -0.5167
   24MOL   O10610732   2.265   3.548   5.983 -0.7990  0.3130  0.0112
   24MOL   C10710733   2.299   3.765   5.692  0.1367 -0.0864  0.4513
   24MOL   C10810734   2.230   3.797   5.566  0.0525  1.0214  0.5000
   24MOL   H10910735   2.054   4.125   5.214  0.1897 -1.5315 -1.2548
   24MOL   H11010736   1.969   4.068   5.361 -2.8966  0.1107 -0.3388
   24MOL   H11110737   2.092   3.905   5.150  0.5131  2.7578  0.0974
   24MOL   H11210738   1.942   3.841   5.193  1.7554 -3.0086  1.0273
   24MOL   H11310739   1.929   3.680   5.650  0.7578 -1.3239 -3.8812
   24MOL   H11410740   2.046   3.620   5.859  0.3660 -0.2676  0.5175
   24MOL   H11510741   2.401   3.798   5.700 -0.8203  2.7308  1.6745
   24MOL   H11610742   2.278   3.841   5.480 -0.4419 -3.2569 -2.1037
   24MOL   O11710743   2.354   3.479   6.080  0.1745 -0.0357 -0.3553
   24MOL   C11810744   2.433   3.385   6.008  0.1290 -0.9102 -0.5112
   24MOL   C11910745   2.354   3.259   5.991 -0.9825 -0.3784  0.0719
   24MOL   O12010746   2.243   3.268   5.900 -0.3850  0.2481  0.6261
   24MOL   C12110747   2.258   3.294   5.772  0.2421 -0.4894 -0.2768
   24MOL   O12210748   2.368   3.296   5.719  0.4098 -0.3079  0.3013
   24MOL   C12310749   2.128   3.320   5.704 -0.6027 -0.2608 -0.1493
   24MOL   C12410750   2.113   3.326   5.562  0.5990 -0.2576  0.5590
   24MOL   C12510751   1.991   3.350   5.497 -0.8618 -0.4588 -0.3906
   24MOL   C12610752   1.880   3.384   5.575  0.4573  0.0289 -1.1778
   24MOL   C12710753   1.752   3.422   5.502 -0.0953 -0.0045 -0.0716
   24MOL   O12810754   1.648   3.437   5.565 -0.1299  0.0050 -0.1535
   24MOL   O12910755   1.760   3.449   5.370  0.4675 -0.0869 -0.8635
   24MOL   C13010756   1.889   3.369   5.717 -0.5553 -0.9277 -0.1717
   24MOL   C13110757   2.013   3.335   5.779  0.2706 -0.5243 -0.6394
   24MOL   H13210758   2.472   3.419   5.913 -3.9287 -0.2239 -2.0261
   24MOL   H13310759   2.526   3.369   6.062  0.2397 -1.5277 -0.8715
   24MOL   H13410760   2.317   3.221   6.086  0.6833  0.9894  1.2995
   24MOL   H13510761   2.429   3.185   5.961 -0.0392  0.1456  1.0920
   24MOL   H13610762   2.207   3.326   5.508  1.1056 -0.3094  1.4207
   24MOL   H13710763   1.978   3.359   5.391 -0.7294  1.8856 -0.2314
   24MOL   H13810764   1.806   3.406   5.775 -0.2122 -1.5761  0.7421
   24MOL   H13910765   2.012   3.331   5.887  0.2814 -3.8548 -0.6995
   24MOL   O14010766   1.631   3.498   5.308 -0.0962 -0.1309 -0.1178
   24MOL   C14110767   1.579   3.390   5.230  0.0738 -0.3505  0.1294
   24MOL   C14210768   1.428   3.413   5.201 -1.0668 -0.5819 -0.4253
   24MOL   O14310769   1.364   3.397   5.325  0.4983  0.5218 -0.0492
   24MOL   C14410770   1.229   3.403   5.322  0.4466 -0.1574  0.2714
   24MOL   O14510771   1.171   3.429   5.216  0.5220 -0.2612 -0.2083
   24MOL   C14610772   1.152   3.369   5.451 -0.2678  0.3825 -1.0960
   24MOL   C14710773   1.014   3.344   5.454  0.2713 -0.3082  0.5407
   24MOL   C14810774   0.945   3.307   5.571 -0.6568  0.4115 -0.8832
   24MOL   C14910775   1.016   3.298   5.694  0.2550  0.0271  0.4894
   24MOL   C15010776   0.954   3.249   5.821  0.6016  0.0296  0.7703
   24MOL   O15110777   1.006   3.234   5.926 -0.0754  0.3017 -0.2506
   24MOL   O15210778   0.824   3.204   5.806 -0.2326  0.8795 -0.3205
   24MOL   C15310779   1.158   3.314   5.693 -0.1068  0.1988 -0.0772
   24MOL   C15410780   1.225   3.347   5.573 -0.6001 -0.5377 -0.0401
   24MOL   H15510781   1.632   3.377   5.136  0.2176  0.5397  0.0839
   24MOL   H15610782   1.593   3.295   5.281 -2.5279  0.5404  2.6394
   24MOL   H15710783   1.400   3.342   5.123 -1.4484  0.8392 -1.6119
   24MOL   H15810784   1.409   3.517   5.176 -0.6035 -0.6024 -0.8877
   24MOL   H15910785   0.954   3.363   5.366  0.7051  1.9020  0.6917
   24MOL   H16010786   0.843   3.272   5.562 -0.6269 -0.0269  0.3811
   24MOL   H16110787   1.224   3.294   5.775  0.4136  0.6729 -0.3812
   24MOL   H16210788   1.332   3.363   5.566 -0.5244 -1.4060 -1.0565
   24MOL   O16310789   0.771   3.139   5.918 -0.5965  1.0255 -0.2979
   24MOL   C16410790   0.779   3.003   5.895  0.4531  0.2297 -0.8589
   24MOL   C16510791   0.910   2.930   5.914 -0.1745 -0.3731  0.0850
   24MOL   O16610792   0.978   2.930   5.791  0.1247 -0.3537 -0.4121
   24MOL   C16710793   1.087   2.845   5.784 -0.2856 -0.3925  1.0575
   24MOL   O16810794   1.113   2.763   5.873 -0.4434 -0.8943 -0.1240
   24MOL   C16910795   1.172   2.872   5.667 -0.1839 -0.5036  0.1813
   24MOL   C17010796   1.151   2.982   5.583  0.1626  0.6157  0.4411
   24MOL   C17110797   1.226   2.996   5.470  0.6778 -0.0499  0.5832
   24MOL   C17210798   1.330   2.909   5.433  0.7157  0.4159  0.4187
   24MOL   C17310799   1.401   2.935   5.310  0.4026  0.6312 -0.4490
   24MOL   O17410800   1.383   3.043   5.252 -0.8103 -0.3358 -0.4409
   24MOL   O17510801   1.478   2.836   5.264  0.7868  0.6266  0.1599
   24MOL   C17610802   1.353   2.797   5.519  0.6131 -0.2636  0.3055
   24MOL   C17710803   1.270   2.775   5.632 -0.1698 -0.7630 -0.7694
   24MOL   H17810804   0.714   2.970   5.976 -0.0726  2.2452 -0.4194
   24MOL   H17910805   0.734   2.991   5.797 -1.7045 -4.5534  0.5354
   24MOL   H18010806   0.886   2.828   5.941  0.9701 -0.7896 -0.4571
   24MOL   H18110807   0.966   2.969   5.999 -0.3279 -2.8298  1.3422
   24MOL   H18210808   1.064   3.045   5.592  0.0863  0.8835 -1.8662
   24MOL   H18310809   1.197   3.075   5.402  1.5653 -0.0018  0.2447
   24MOL   H18410810   1.428   2.721   5.504  0.7847 -0.6710  3.1095
   24MOL   H18510811   1.283   2.680   5.682 -1.0135  0.2098  1.3328
   24MOL   O18610812   1.569   2.880   5.161 -0.2968  0.1328  0.5265
   24MOL   C18710813   1.503   2.850   5.039 -0.1404 -0.0013  0.4813
   24MOL   C18810814   1.597   2.874   4.916  0.2120  0.5071 -0.2241
   24MOL   O18910815   1.641   3.012   4.914  0.2158 -0.0496  0.4526
   24MOL   C19010816   1.626   3.083   4.808 -0.4017  0.0416 -0.0040
   24MOL   O19110817   1.590   3.038   4.702  0.1286  0.4284 -0.4972
   24MOL   C19210818   1.674   3.223   4.836 -0.6733 -0.4315 -0.5305
   24MOL   C19310819   1.798   3.240   4.907  0.4477  0.0356 -0.3109
   24MOL   C19410820   1.834   3.366   4.943  0.1934  0.3027  0.5625
   24MOL   C19510821   1.770   3.477   4.886 -0.0748  0.3457 -0.1293
   24MOL   C19610822   1.844   3.603   4.902 -0.2635 -0.1479  0.9828
   24MOL   O19710823   1.950   3.618   4.963 -0.2303 -0.6433 -0.4448
   24MOL   O19810824   1.783   3.706   4.844  0.6185 -0.2681  0.5999
   24MOL   C19910825   1.653   3.465   4.809  0.9816  0.3210  0.2464
   24MOL   C20010826   1.603   3.338   4.785  0.4439  0.3850 -0.0352
   24MOL   H20110827   1.465   2.748   5.040  0.4965 -0.2713 -0.8536
   24MOL   H20210828   1.413   2.911   5.028  2.4229  4.2976  2.1725
   24MOL   H20310829   1.557   2.847   4.818 -5.3831  2.8094  1.2629
   24MOL   H20410830   1.686   2.818   4.947 -1.3480 -0.9357  1.7675
   24MOL   H20510831   1.860   3.165   4.956 -0.4259 -0.4256  0.0936
   24MOL   H20610832   1.933   3.375   4.987  0.3516  1.1150  0.0350
   24MOL   H20710833   1.599   3.546   4.764  0.9700 -0.4064 -1.0662
   24MOL   H20810834   1.505   3.330   4.741 -0.8554  1.2937  2.5759
   24MOL   O20910835   1.855   3.834   4.850  0.3690  0.0607 -0.6650
   24MOL   C21010836   1.776   3.919   4.937 -0.4599  0.3579  0.5379
   24MOL   C21110837   1.623   3.907   4.929  0.3809 -0.9525 -0.3557
   24MOL   O21210838   1.562   4.002   5.016 -0.2623 -0.2799  0.1864
   24MOL   C21310839   1.529   4.122   4.972 -0.3408 -1.1197  0.2790
   24MOL   O21410840   1.532   4.149   4.852 -0.2309 -0.0239  0.3611
   24MOL   C21510841   1.479   4.220   5.077 -0.0879 -0.0919 -0.1645
   24MOL   C21610842   1.453   4.175   5.203 -0.1373  0.0629  0.2494
   24MOL   C21710843   1.408   4.259   5.307 -0.2507  0.5526  0.5877
   24MOL   C21810844   1.385   4.398   5.282 -0.0571 -0.7865 -0.4224
   24MOL   C21910845   1.342   4.488   5.395 -0.5552 -0.1489 -0.1853
   24MOL   O22010846   1.310   4.603   5.376 -0.2143 -0.8467  0.3126
   24MOL   O22110847   1.354   4.438   5.516 -0.0104  0.3891  0.2371
   24MOL   C22210848   1.415   4.442   5.154  0.0910 -0.2023 -0.0464
   24MOL   C22310849   1.459   4.360   5.051 -0.7424  0.1753  0.3604
   24MOL   H22410850   1.808   3.919   5.041 -1.3675 -0.3305  0.8271
   24MOL   H22510851   1.813   4.019   4.912  1.4309  0.0934  2.1934
   24MOL   H22610852   1.595   3.805   4.955 -0.0049 -1.1352 -1.4679
   24MOL   H22710853   1.578   3.925   4.832 -1.1499 -1.1826  0.2894
   24MOL   H22810854   1.465   4.069   5.218  0.7494  0.4741  2.7943
   24MOL   H22910855   1.383   4.216   5.403 -0.0756  0.2599  0.5004
   24MOL   H23010856   1.407   4.547   5.130  1.8176  0.4754  2.2215
   24MOL   H23110857   1.488   4.407   4.959 -0.1645  0.6287  0.7685
   24MOL   O23210858   1.302   4.525   5.628  0.3239  0.0887 -0.5961
   24MOL   C23310859   1.178   4.473   5.661  0.5561 -0.0214  0.0885
   24MOL   C23410860   1.114   4.560   5.777 -0.4217 -0.8255  0.2832
   24MOL   O23510861   1.158   4.510   5.903  0.3469 -0.4325 -0.1330
   24MOL   C23610862   1.068   4.455   5.990  0.0578  0.4224  0.2725
   24MOL   O23710863   0.946   4.459   5.971  0.1143  0.0906  0.0739
   24MOL   C23810864   1.134   4.388   6.103 -0.3314  0.8454  0.5162
   24MOL   C23910865   1.049   4.341   6.201 -0.0466  0.1744 -0.8511
   24MOL   C24010866   1.097   4.269   6.309 -0.5105 -0.2039 -0.0409
   24MOL   C24110867   1.239   4.250   6.326  0.6003 -0.6078  0.1005
   24MOL   C24210868   1.297   4.182   6.445 -0.1530 -0.4850 -0.3317
   24MOL   O24310869   1.415   4.162   6.467  0.4888 -0.2851  0.1028
   24MOL   O24410870   1.196   4.129   6.531 -0.1074  0.1034  0.1264
   24MOL   C24510871   1.328   4.306   6.226 -0.2594 -0.0050 -0.0556
   24MOL   C24610872   1.278   4.375   6.116  0.6503  1.3142  0.2154
   24MOL   H24710873   1.106   4.474   5.580 -1.9308 -0.6707  2.2481
   24MOL   H24810874   1.184   4.370   5.697 -2.9704 -0.2565  0.1614
   24MOL   H24910875   1.005   4.565   5.778 -0.4150 -0.5807  1.8000
   24MOL   H25010876   1.158   4.660   5.771  0.1086 -1.0914 -0.2466
   24MOL   H25110877   0.941   4.345   6.190 -0.2741  0.4212  1.2490
   24MOL   H25210878   1.027   4.232   6.383 -3.7072  1.1316 -2.2545
   24MOL   H25310879   1.436   4.298   6.236 -0.1721  0.8047 -0.2996
   24MOL   H25410880   1.335   4.422   6.037 -0.3783  2.9499  0.4441
   24MOL   O25510881   1.256   4.063   6.656 -0.2798  0.0552  0.3629
   24MOL   C25610882   1.226   4.144   6.765  0.4724 -0.9308 -0.4102
   24MOL   C25710883   1.094   4.097   6.836 -0.4408 -0.4065  0.3744
   24MOL   O25810884   1.122   3.985   6.924  0.3154  0.8240 -0.1333
   24MOL   C25910885   1.119   3.990   7.060  0.3009  0.6619 -0.3256
   24MOL   O26010886   1.087   4.094   7.128  0.2559 -0.2710 -0.2666
   24MOL   C26110887   1.149   3.864   7.126 -0.6648 -0.1320 -0.3406
   24MOL   C26210888   1.223   3.763   7.059  0.2468 -0.0501 -0.1665
   24MOL   C26310889   1.278   3.651   7.129  0.3175 -0.8057 -0.1566
   24MOL   C26410890   1.256   3.640   7.263 -0.0496  0.7492 -0.0313
   24MOL   C26510891   1.335   3.543   7.347 -0.0286  0.1543  0.0169
   24MOL   O26610892   1.457   3.529   7.327 -0.1618 -0.0591  0.0192
   24MOL   O26710893   1.265   3.481   7.440  0.2079 -0.6497  0.1911
   24MOL   C26810894   1.176   3.739   7.330 -0.1742  0.0395 -0.0748
   24MOL   C26910895   1.134   3.853   7.265  0.1046  0.2100  0.2231
   24MOL   H27010896   1.309   4.149   6.835 -2.3904 -0.1243  3.0868
   24MOL   H27110897   1.199   4.244   6.731  0.8662  0.0219  1.9628
   24MOL   H27210898   1.019   4.060   6.767 -2.4183  1.4121  1.4604
   24MOL   H27310899   1.057   4.185   6.890 -1.6664  1.4587 -3.3507
   24MOL   H27410900   1.245   3.778   6.954 -0.3865  0.1545 -0.2722
   24MOL   H27510901   1.338   3.577   7.079 -1.2303 -0.6736 -2.2568
   24MOL   H27610902   1.158   3.728   7.435 -0.8507  0.2071 -0.1723
   24MOL   H27710903   1.090   3.931   7.326 -0.1955  1.7383 -1.8725
   24MOL   O27810904   1.344   3.426   7.553  0.1886  0.2141  0.2312
   24MOL   C27910905   1.339   3.520   7.664  0.7198 -0.1068  0.2637
   24MOL   C28010906   1.207   3.548   7.736 -0.3507  0.6901  0.1286
   24MOL   O28110907   1.210   3.662   7.818  0.0502  0.0860 -0.2319
   24MOL   C28210908   1.167   3.785   7.776 -0.5310 -0.0127  0.4057
   24MOL   O28310909   1.104   3.810   7.674  0.1040  0.3436  0.0277
   24MOL   C28410910   1.196   3.896   7.874 -0.1914 -0.3318 -0.4068
   24MOL   C28510911   1.238   3.858   8.005  1.0116 -0.7975  0.6939
   24MOL   C28610912   1.286   3.956   8.095  0.6229  0.1772 -0.3822
   24MOL   C28710913   1.284   4.101   8.056  1.3187 -0.2021 -0.4834
   24MOL   C28810914   1.338   4.208   8.140  0.0339 -0.0741 -0.6588
   24MOL   O28910915   1.342   4.325   8.107  0.2178 -0.6033  0.3325
   24MOL   O29010916   1.399   4.158   8.251  0.1041 -0.1104 -0.0666
   24MOL   C29110917   1.231   4.135   7.930  0.1234  0.1486  0.5450
   24MOL   C29210918   1.196   4.029   7.842 -0.1936 -0.1980  0.1115
   24MOL   H29310919   1.415   3.493   7.738  1.3517 -2.2978 -1.1486
   24MOL   H29410920   1.378   3.613   7.622  0.0035  0.5408  1.0085
   24MOL   H29510921   1.183   3.467   7.804  1.4612  0.8533  1.0107
   24MOL   H29610922   1.130   3.555   7.660  1.0550 -1.7414 -1.5663
   24MOL   H29710923   1.247   3.754   8.031  1.7270 -0.3589  2.2446
   24MOL   H29810924   1.336   3.922   8.184  2.5809 -0.4142 -1.6555
   24MOL   H29910925   1.244   4.238   7.899  0.9261  0.4757  1.9062
   24MOL   H30010926   1.179   4.058   7.739  0.1512  1.2128  0.4421
   24MOL   O30110927   1.450   4.265   0.076 -0.3306 -0.1056 -0.0228
   24MOL   C30210928   1.594   4.284   0.060 -0.1333 -0.3453  0.7094
   24MOL   C30310929   1.643   4.417   0.128  0.9534  0.2937 -0.2174
   24MOL   O30410930   1.648   4.399   0.264  0.1328 -0.2978  0.1263
   24MOL   C30510931   1.548   4.432   0.348  0.5274  0.0108  0.7878
   24MOL   O30610932   1.436   4.479   0.318  0.1831  0.2022 -0.2020
   24MOL   C30710933   1.592   4.408   0.487  0.1246 -0.8103  0.4358
   24MOL   C30810934   1.507   4.455   0.593 -0.3098  0.7256  0.2255
   24MOL   C30910935   1.524   4.430   0.730 -0.2284 -0.0176  0.1768
   24MOL   C31010936   1.647   4.367   0.767  0.8036  0.4707  0.1770
   24MOL   C31110937   1.674   4.332   0.909  0.8214 -0.4073 -0.0535
   24MOL   O31210938   1.590   4.367   0.997 -0.1170 -0.3356  0.4610
   24MOL   O31310939   1.791   4.270   0.941 -0.6678  0.2489 -0.1806
   24MOL   C31410940   1.742   4.329   0.666 -0.0957  0.2773  0.2042
   24MOL   C31510941   1.710   4.349   0.529 -0.3293 -0.3518 -0.3604
   24MOL   H31610942   1.655   4.203   0.101 -1.5856 -0.5641  2.5264
   24MOL   H31710943   1.624   4.299   8.232  1.8003  1.3353  1.4903
   24MOL   H31810944   1.576   4.502   0.115  1.3639  0.5250 -0.8294
   24MOL   H31910945   1.746   4.436   0.101  0.4162  0.9111 -1.8870
   24MOL   H32010946   1.424   4.515   0.557 -0.4187 -0.8079 -2.1763
   24MOL   H32110947   1.455   4.470   0.803  2.4087  3.2466  1.0216
   24MOL   H32210948   1.836   4.280   0.686 -1.9912 -3.4189  0.5894
   24MOL   H32310949   1.777   4.299   0.460 -2.0892  0.7660 -2.9688
   24MOL   O32410950   1.812   4.248   1.095 -0.1256 -0.2793 -0.4309
   24MOL   C32510951   1.937   4.300   1.131 -0.4162  0.5331  0.0681
   24MOL   C32610952   1.935   4.450   1.123  0.3017 -0.0317 -0.2093
   24MOL   O32710953   1.943   4.501   0.994  0.0484 -0.4963 -0.1509
   24MOL   C32810954   2.076   4.534   0.958 -0.0690  0.3422 -0.7427
   24MOL   O32910955   2.172   4.484   1.017  0.5320 -0.2397 -0.1973
   24MOL   C33010956   2.079   4.636   0.848  0.5889  0.5309 -0.3587
   24MOL   C33110957   1.978   4.665   0.750  0.0900 -0.0445  0.2233
   24MOL   C33210958   2.001   4.758   0.650  0.4425  0.1659 -0.4633
   24MOL   C33310959   2.126   4.831   0.645 -0.2504 -0.1770  0.5477
   24MOL   C33410960   2.149   4.944   0.548 -0.4258 -0.4797  0.4455
   24MOL   O33510961   2.258   5.005   0.535  0.3819  0.5824  0.4818
   24MOL   O33610962   2.037   4.975   0.481 -0.1916  0.0225 -0.2900
   24MOL   C33710963   2.221   4.809   0.743  0.3554  0.1899  0.1170
   24MOL   C33810964   2.199   4.716   0.850  0.8309 -0.0046  0.5002
   24MOL   H33910965   1.949   4.278   1.237  1.0655  0.0071 -0.1980
   24MOL   H34010966   2.026   4.262   1.082 -1.8939 -0.4928 -1.9054
   24MOL   H34110967   2.007   4.494   1.191 -0.6015  0.8102  0.2189
   24MOL   H34210968   1.840   4.482   1.165  0.3405  1.8255 -1.4416
   24MOL   H34310969   1.889   4.604   0.743  1.6439 -2.4064  0.6327
   24MOL   H34410970   1.930   4.774   0.570 -1.4656  1.3906  1.4286
   24MOL   H34510971   2.305   4.875   0.757  0.9270 -0.8458  1.7776
   24MOL   H34610972   2.274   4.703   0.926 -0.1296  1.4635  1.7291
   24MOL   O34710973   2.052   5.100   0.404  0.2225 -0.0238  0.0644
   24MOL   C34810974   1.962   5.198   0.448  0.0444 -0.2499  0.0170
   24MOL   C34910975   2.030   5.264   0.577  0.1392  0.3922  0.0901
   24MOL   O35010976   1.996   5.190   0.701  0.1371 -0.9270  0.1482
   24MOL   C35110977   2.048   5.229   0.813 -0.2725  0.2614 -0.6013
   24MOL   O35210978   2.117   5.326   0.821  0.0031  0.4925 -0.1321
   24MOL   C35310979   2.027   5.136   0.935 -0.4385 -0.4585  0.4685
   24MOL   C35410980   1.987   5.004   0.921  0.2405  0.8204 -0.1721
   24MOL   C35510981   1.988   4.919   1.040 -0.2259 -0.8112  0.8379
   24MOL   C35610982   2.019   4.973   1.170 -0.7800  0.4139  0.1725
   24MOL   C35710983   1.997   4.890   1.286  0.0399 -0.1841 -0.1647
   24MOL   O35810984   2.010   4.936   1.401  0.3413  0.2585 -0.9731
   24MOL   O35910985   1.960   4.768   1.260 -0.5698 -0.3013  0.1100
   24MOL   C36010986   2.063   5.103   1.179 -0.4795 -0.5902 -0.5772
   24MOL   C36110987   2.068   5.182   1.063 -0.6415  0.2370  0.3239
   24MOL   H36210988   1.941   5.272   0.371  1.4110 -1.3818 -1.5070
   24MOL   H36310989   1.866   5.156   0.475 -0.2577  1.3003  1.4276
   24MOL   H36410990   1.983   5.362   0.581  0.5069  0.4706  3.0498
   24MOL   H36510991   2.138   5.270   0.561  0.8416 -1.3232  3.8369
   24MOL   H36610992   1.955   4.958   0.829 -0.5749  0.7759  0.1266
   24MOL   H36710993   1.952   4.819   1.021 -1.2660 -0.2597 -0.1192
   24MOL   H36810994   2.098   5.149   1.270 -0.1151 -1.4374 -0.2830
   24MOL   H36910995   2.109   5.281   1.079  0.2068  0.2716 -1.8480
   24MOL   O37010996   1.947   4.689   1.388  0.3997 -0.4194  0.2352
   24MOL   C37110997   1.812   4.691   1.425 -0.8425 -0.9977  0.4500
   24MOL   C37210998   1.801   4.630   1.567  0.5382 -0.0745  0.8101
   24MOL   O37310999   1.716   4.516   1.577  0.1158  0.9858 -0.4645
   24MOL   C37411000   1.764   4.396   1.542  0.0170  0.8651 -0.2608
   24MOL   O37511001   1.881   4.373   1.505 -0.0523  0.0127 -0.3692
   24MOL   C37611002   1.653   4.297   1.547  0.1500  0.1340 -0.4823
   24MOL   C37711003   1.681   4.158   1.550 -0.5039  0.0597  0.0443
   24MOL   C37811004   1.581   4.063   1.569  0.1283 -0.5232  0.0757
   24MOL   C37911005   1.445   4.097   1.561  0.5484 -0.1504  0.2413
   24MOL   C38011006   1.326   4.000   1.577 -0.4455  0.9596  0.3153
   24MOL   O38111007   1.207   4.036   1.559  0.0012 -0.2418 -0.4439
   24MOL   O38211008   1.365   3.876   1.607 -0.2244  0.9469 -0.8896
   24MOL   C38311009   1.411   4.236   1.542  0.3556 -0.3471  0.0184
   24MOL   C38411010   1.518   4.329   1.542 -0.0486  0.1997  0.0123
   24MOL   H38511011   1.761   4.788   1.422 -1.4598 -1.3430 -0.2755
   24MOL   H38611012   1.756   4.634   1.351 -1.1664 -1.0298  0.7204
   24MOL   H38711013   1.758   4.700   1.639 -1.9841  0.0696 -0.7586
   24MOL   H38811014   1.898   4.617   1.614  2.1300  1.7055 -1.8440
   24MOL   H38911015   1.785   4.127   1.541 -0.4617 -0.5747  2.2374
   24MOL   H39011016   1.617   3.962   1.580  2.9943  0.5390  0.7422
   24MOL   H39111017   1.313   4.279   1.554  0.6398 -0.0266  1.2285
   24MOL   H39211018   1.490   4.434   1.542  0.0325  0.2212 -0.1697
   24MOL   O39311019   1.251   3.771   1.616  0.0320  0.0090 -0.6191
   24MOL   C39411020   1.247   3.702   1.497  0.3883  0.0985  0.5945
   24MOL   C39511021   1.362   3.595   1.501  0.3387  0.6031  0.0200
   24MOL   O39611022   1.398   3.556   1.372  0.3329  0.0728 -0.3160
   24MOL   C39711023   1.466   3.636   1.298 -0.4809 -0.0556 -0.1761
   24MOL   O39811024   1.515   3.741   1.338  0.2751 -0.2694  0.0790
   24MOL   C39911025   1.480   3.587   1.153 -0.0805  0.5555 -0.8135
   24MOL   C40011026   1.412   3.475   1.106  0.1803 -0.1541  0.1221
   24MOL   C40111027   1.434   3.427   0.976 -0.3731  0.2840 -0.7729
   24MOL   C40211028   1.535   3.478   0.898 -0.4454  0.0869 -0.3953
   24MOL   C40311029   1.544   3.426   0.758  0.4091  0.3632 -0.4499
   24MOL   O40411030   1.527   3.310   0.735 -0.4594  0.2903  0.1007
   24MOL   O40511031   1.592   3.521   0.674 -0.4008 -0.6402 -0.0273
   24MOL   C40611032   1.600   3.598   0.942  0.0679 -0.3746 -0.0915
   24MOL   C40711033   1.570   3.655   1.073 -0.2142 -0.8647  0.5325
   24MOL   H40811034   1.150   3.652   1.502 -0.5005  1.7612  0.0526
   24MOL   H40911035   1.252   3.764   1.408  1.3785  0.3868  0.8409
   24MOL   H41011036   1.338   3.501   1.551 -0.6362  0.5125 -0.5981
   24MOL   H41111037   1.446   3.641   1.554  1.8932 -1.4382 -0.6299
   24MOL   H41211038   1.329   3.433   1.162 -1.3002  0.0485 -1.8629
   24MOL   H41311039   1.367   3.354   0.934  0.3086 -1.3454  0.9260
   24MOL   H41411040   1.676   3.653   0.888 -0.0885  1.8367  1.8044
   24MOL   H41511041   1.633   3.732   1.112  0.5472 -1.0178 -0.3858
   24MOL   O41611042   1.623   3.466   0.539  0.3953 -0.1025  0.0171
   24MOL   C41711043   1.502   3.480   0.466  0.3973  0.8702  0.1466
   24MOL   C41811044   1.504   3.368   0.354  0.0059  0.1829 -0.1045
   24MOL   O41911045   1.592   3.407   0.248  0.3649  0.0103  0.1367
   24MOL   C42011046   1.698   3.331   0.221 -0.6321 -0.3347  0.4932
   24MOL   O42111047   1.737   3.234   0.295  0.2955 -0.4999  0.4651
   24MOL   C42211048   1.770   3.373   0.099 -0.4060  0.5109  0.4712
   24MOL   C42311049   1.774   3.510   0.056  0.5217  1.0322  0.3706
   24MOL   C42411050   1.840   3.550   8.216 -0.0544  0.2169  0.3534
   24MOL   C42511051   1.904   3.452   8.136  0.6304  0.3887  0.4761
   24MOL   C42611052   1.978   3.495   8.014 -0.4402  0.1272  0.2713
   24MOL   O42711053   2.004   3.422   7.918 -0.2101  0.1970  0.1133
   24MOL   O42811054   2.003   3.628   7.999 -0.3606 -0.1815 -0.1398
   24MOL   C42911055   1.909   3.321   8.184 -1.1210  0.6099  0.3145
   24MOL   C43011056   1.843   3.281   0.027  0.2684 -0.0346 -0.2847
   24MOL   H43111057   1.407   3.477   0.520 -0.9725 -0.6395 -2.2290
   24MOL   H43211058   1.495   3.574   0.411 -2.9406  1.0726  0.7915
   24MOL   H43311059   1.401   3.359   0.320 -0.1041 -0.9114  0.4856
   24MOL   H43411060   1.535   3.280   0.411  2.7282  1.3333  0.2700
   24MOL   H43511061   1.705   3.582   0.097 -2.2421 -2.3893  1.9735
   24MOL   H43611062   1.832   3.652   8.183 -1.8539  0.7790  2.3884
   24MOL   H43711063   1.965   3.244   8.134  1.5351  1.8882  1.2309
   24MOL   H43811064   1.844   3.179   0.063  0.2757 -0.0329 -0.2796
   24MOL   O43911065   2.023   3.674   7.865 -0.8409  0.2053 -0.0915
   24MOL   C44011066   1.932   3.765   7.830 -0.4452  0.4553  0.6250
   24MOL   C44111067   1.784   3.719   7.835  0.3195  0.1840 -0.3915
   24MOL   O44211068   1.722   3.731   7.965 -0.1368 -0.0459 -0.8124
   24MOL   C44311069   1.610   3.672   7.995  0.2305  0.0259  0.2145
   24MOL   O44411070   1.545   3.609   7.907 -0.0460  0.4119  0.0598
   24MOL   C44511071   1.555   3.719   8.126 -0.1190  0.4007 -0.1085
   24MOL   C44611072   1.612   3.834   8.194 -0.7105  0.4997 -0.0865
   24MOL   C44711073   1.559   3.870   0.046 -0.0744  1.0090  0.2981
   24MOL   C44811074   1.453   3.794   0.102 -0.3174 -0.0028  0.2178
   24MOL   C44911075   1.382   3.838   0.226  0.2072  0.3066  0.5493
   24MOL   O45011076   1.312   3.756   0.293 -0.0595 -0.0540 -0.4295
   24MOL   O45111077   1.386   3.966   0.263 -0.1949  0.1389 -0.3918
   24MOL   C45211078   1.417   3.667   0.045  0.4097 -0.6649 -0.4743
   24MOL   C45311079   1.469   3.628   8.198  0.4621 -0.6278 -0.2293
   24MOL   H45411080   1.944   3.849   7.898 -1.7514  1.2165 -0.0739
   24MOL   H45511081   1.962   3.789   7.728  0.4089 -0.2982  0.6944
   24MOL   H45611082   1.771   3.624   7.783  0.9140 -1.0489  1.6497
   24MOL   H45711083   1.726   3.782   7.768 -2.1089 -0.6986  0.8252
   24MOL   H45811084   1.692   3.895   8.152 -0.8584  0.4555 -0.4405
   24MOL   H45911085   1.597   3.948   0.111 -2.4426  1.0561  1.7025
   24MOL   H46011086   1.352   3.595   0.093 -1.7293  1.8261  0.5153
   24MOL   H46111087   1.433   3.534   8.160  0.0713  0.3237 -2.2627
   24MOL   H46211088   1.322   3.970   0.332  0.3125 -1.1003  0.1776
   25MOL     O111089   3.328   0.445   2.369  0.2836 -0.1150  0.4127
   25MOL     C211090   3.256   0.477   2.257 -0.3943  0.5770 -0.7242
   25MOL     C311091   3.102   0.454   2.277  0.0092 -0.4039  0.1881
   25MOL     O411092   3.069   0.327   2.235 -0.1853  0.2109  0.0257
   25MOL     C511093   2.960   0.265   2.268  0.4125 -0.2430 -1.0516
   25MOL     O611094   2.867   0.325   2.318 -0.2060 -0.2014  0.2510
   25MOL     C711095   2.953   0.120   2.225 -0.6428  0.0107  1.0116
   25MOL     C811096   3.057   0.066   2.144  0.4390  0.2070 -0.2485
   25MOL     C911097   3.056   8.207   2.096 -0.5177 -0.2214  0.2387
   25MOL    C1011098   2.943   8.130   2.110  0.4334 -0.0501 -0.3478
   25MOL    C1111099   2.940   8.001   2.046 -0.2808  0.4509 -0.4380
   25MOL    O1211100   3.036   7.948   1.985  1.4210 -0.3625 -0.1291
   25MOL    O1311101   2.810   7.939   2.062 -0.3106 -0.1060 -0.0765
   25MOL    C1411102   2.832   8.185   2.181  0.1787  0.4892 -0.0046
   25MOL    C1511103   2.836   0.041   2.238 -0.4026 -0.3379  0.7122
   25MOL    H1611104   3.270   0.585   2.256  2.7914  0.2297  0.8848
   25MOL    H1711105   3.300   0.438   2.165 -0.1597  1.2926 -0.9152
   25MOL    H1811106   3.035   0.528   2.234  1.4256  0.0015 -1.3700
   25MOL    H1911107   3.082   0.452   2.384 -0.2775 -0.6243  0.1325
   25MOL    H2011108   3.146   0.126   2.128  0.6950  0.5932  2.5171
   25MOL    H2111109   3.138   8.174   2.034  0.1251 -0.4681  1.2163
   25MOL    H2211110   2.738   8.134   2.188 -0.1189  0.5696 -2.7607
   25MOL    H2311111   2.745   0.086   2.275 -1.1460  0.0065 -1.5013
   25MOL    H2411112   3.421   0.429   2.356  0.1138 -0.7776 -0.0088
   25MOL    O2511113   2.803   7.815   1.975 -0.1126 -0.1744  0.1000
   25MOL    C2611114   2.793   7.701   2.064 -0.0415 -0.4929 -0.4329
   25MOL    C2711115   2.657   7.689   2.133  0.4301  0.1263  0.1934
   25MOL    O2811116   2.634   7.783   2.226  0.2441  0.1493  0.0496
   25MOL    C2911117   2.691   7.785   2.354  0.4373 -0.3834 -0.3200
   25MOL    O3011118   2.778   7.709   2.395  0.4505 -0.3590  0.0616
   25MOL    C3111119   2.644   7.907   2.427  0.2844  0.0204 -0.1267
   25MOL    C3211120   2.546   7.991   2.371  0.0050  0.0809  0.4460
   25MOL    C3311121   2.501   8.105   2.432  0.8861  0.1016 -0.3824
   25MOL    C3411122   2.550   8.138   2.560  0.1767 -0.2922  0.0166
   25MOL    C3511123   2.509   8.259   2.630 -0.9800  0.0728  0.7421
   25MOL    O3611124   2.412   0.054   2.598 -0.2666  0.1664  0.2946
   25MOL    O3711125   2.596   0.009   2.731 -0.4164 -0.5293 -0.6413
   25MOL    C3811126   2.638   8.046   2.622  0.7127 -0.0592  0.0246
   25MOL    C3911127   2.693   7.936   2.555  0.2063  0.1375  0.3022
   25MOL    H4011128   2.821   7.619   1.998 -1.5698  0.6923 -2.6126
   25MOL    H4111129   2.865   7.712   2.145 -0.8178  0.1605  0.1698
   25MOL    H4211130   2.631   7.589   2.167  0.2566  0.7430  1.8847
   25MOL    H4311131   2.587   7.704   2.050  1.4771  0.8495 -0.5855
   25MOL    H4411132   2.507   7.969   2.272 -0.0985  1.1228  0.2435
   25MOL    H4511133   2.425   8.170   2.390  1.3174  0.6087 -0.3751
   25MOL    H4611134   2.687   8.068   2.716 -0.0014 -2.5623  1.0208
   25MOL    H4711135   2.769   7.874   2.601 -0.5091  0.2708  1.6962
   25MOL    O4811136   2.580   0.141   2.790  0.5135  0.3278  0.1624
   25MOL    C4911137   2.699   0.206   2.789 -0.5769 -0.4345  0.3998
   25MOL    C5011138   2.744   0.239   2.644  0.1159  0.3026 -0.4131
   25MOL    O5111139   2.835   0.140   2.615  0.4996  0.3326  0.6269
   25MOL    C5211140   2.972   0.170   2.633 -0.6049 -0.0142  0.7283
   25MOL    O5311141   3.012   0.263   2.705 -0.0428  0.1516  0.1819
   25MOL    C5411142   3.069   0.079   2.570 -0.0123 -0.0321  0.2708
   25MOL    C5511143   3.028   8.232   2.507 -0.0592  0.5385 -0.6186
   25MOL    C5611144   3.135   8.147   2.464 -0.5863  0.7031  0.5348
   25MOL    C5711145   3.270   8.179   2.457 -0.3081  0.3158  0.1587
   25MOL    C5811146   3.371   8.111   2.382 -0.5971 -0.2704 -0.6787
   25MOL    O5911147   3.492   8.136   2.382  0.1057  0.8210 -0.5346
   25MOL    O6011148   3.318   8.019   2.302  0.2032 -0.0583 -0.4505
   25MOL    C6111149   3.307   0.021   2.516  0.0044 -0.0702 -0.4793
   25MOL    C6211150   3.212   0.111   2.573  0.1976  0.0193 -0.3125
   25MOL    H6311151   2.677   0.297   2.845 -0.4243 -1.0244  1.4375
   25MOL    H6411152   2.783   0.160   2.840 -0.5519  0.7112  1.4176
   25MOL    H6511153   2.803   0.330   2.641 -0.7666  0.8609 -1.0073
   25MOL    H6611154   2.667   0.254   2.569 -0.9649 -1.1149  0.3840
   25MOL    H6711155   2.922   8.216   2.498  0.1538 -0.0771 -2.3266
   25MOL    H6811156   3.091   8.059   2.419  1.4228  1.0384 -2.1710
   25MOL    H6911157   3.414   0.037   2.515  0.0153 -0.0174  0.8120
   25MOL    H7011158   3.252   0.203   2.615 -0.1872 -0.4035  1.0124
   25MOL    O7111159   3.414   7.964   2.206 -0.5095 -0.2353  0.5227
   25MOL    C7211160   3.384   8.020   2.078 -0.5523  0.8278 -0.2709
   25MOL    C7311161   3.498   8.025   1.972  0.8235  0.3075 -0.6113
   25MOL    O7411162   3.503   7.907   1.894 -0.4341 -0.3388  0.5877
   25MOL    C7511163   3.412   7.878   1.799 -0.8142 -0.5116 -0.2461
   25MOL    O7611164   3.306   7.940   1.789  0.3540 -0.1526  0.3943
   25MOL    C7711165   3.451   7.761   1.716 -0.6323  0.6981  0.2242
   25MOL    C7811166   3.571   7.695   1.742 -0.4574 -0.7874  0.3661
   25MOL    C7911167   3.614   7.582   1.675  0.0190 -0.2747 -0.2323
   25MOL    C8011168   3.537   7.537   1.564  0.3363 -0.5025 -0.1911
   25MOL    C8111169   3.572   7.412   1.488  0.3743 -0.2668 -0.4270
   25MOL    O8211170   3.500   7.365   1.400  0.4424  0.7017 -0.4922
   25MOL    O8311171   3.686   7.343   1.530  0.4514 -0.2272  0.3670
   25MOL    C8411172   3.412   7.602   1.537  0.5281 -0.0164 -0.0775
   25MOL    C8511173   3.375   7.713   1.613  0.0784  0.7559 -0.0474
   25MOL    H8611174   3.296   7.970   2.037  0.5186 -0.9001 -0.5337
   25MOL    H8711175   3.361   8.126   2.089 -0.6922  0.6829  0.9209
   25MOL    H8811176   3.588   8.050   2.028 -0.4890  1.2359  1.1408
   25MOL    H8911177   3.503   8.110   1.905 -1.8872  1.6918  0.8366
   25MOL    H9011178   3.632   7.744   1.816 -1.1497  0.9939 -0.2112
   25MOL    H9111179   3.707   7.541   1.712  0.7158  0.3396 -1.2843
   25MOL    H9211180   3.347   7.575   1.456 -0.6206  0.0076  0.8280
   25MOL    H9311181   3.282   7.763   1.590 -1.7045 -2.2898  0.2391
   25MOL    O9411182   3.698   7.205   1.471  0.0682 -0.3696  0.6385
   25MOL    C9511183   3.683   7.116   1.576  0.2187 -0.2614 -0.0652
   25MOL    C9611184   3.545   7.099   1.634  0.1094  0.1040  0.0180
   25MOL    O9711185   3.534   7.182   1.746  0.0334  0.6288 -0.1125
   25MOL    C9811186   3.467   7.145   1.855  0.1178  0.6804 -0.9474
   25MOL    O9911187   3.406   7.036   1.864  0.0372  0.0339 -0.0747
   25MOL   C10011188   3.481   7.246   1.964 -0.0385  0.1802 -0.5500
   25MOL   C10111189   3.582   7.343   1.964 -0.2414 -0.7524  0.2387
   25MOL   C10211190   3.601   7.426   2.078  0.6132  0.0396 -0.0694
   25MOL   C10311191   3.519   7.412   2.190  0.6659  0.2606  0.5776
   25MOL   C10411192   3.537   7.499   2.306 -0.1241  0.2686  0.2590
   25MOL   O10511193   3.489   7.479   2.414  0.2458 -0.0335 -0.5634
   25MOL   O10611194   3.607   7.618   2.275 -0.0460  0.6133  0.1099
   25MOL   C10711195   3.414   7.320   2.191  0.1208 -0.9404  0.3774
   25MOL   C10811196   3.394   7.234   2.077 -0.1334  0.2130 -0.4192
   25MOL   H10911197   3.701   7.023   1.522  0.3639 -0.2242 -0.0794
   25MOL   H11011198   3.771   7.122   1.640  0.0505  0.0909  0.1332
   25MOL   H11111199   3.527   6.997   1.668 -1.3890  1.0296  2.0932
   25MOL   H11211200   3.468   7.124   1.562 -0.8025 -1.0349  0.5923
   25MOL   H11311201   3.662   7.352   1.892 -1.1074  0.4293 -0.5855
   25MOL   H11411202   3.686   7.493   2.079  1.5736 -1.1144 -2.1156
   25MOL   H11511203   3.347   7.310   2.276 -1.4361 -0.6811 -0.7907
   25MOL   H11611204   3.312   7.163   2.075 -1.0521  1.2389  0.2604
   25MOL   O11711205   3.638   7.690   2.402  0.8257 -0.4533 -0.6316
   25MOL   C11811206   3.575   7.814   2.408  0.0058  0.1399  0.3338
   25MOL   C11911207   3.623   7.881   2.533  0.8639  0.5568 -0.2612
   25MOL   O12011208   3.746   7.944   2.504  0.1234 -0.1313 -0.3895
   25MOL   C12111209   3.782   8.053   2.579 -0.5576  0.5035  0.4840
   25MOL   O12211210   3.709   8.097   2.667  0.0951 -0.3561 -0.0857
   25MOL   C12311211   3.906   8.124   2.529  0.3156 -0.2440 -0.1822
   25MOL   C12411212   3.942   8.247   2.588 -0.6273 -0.3228 -0.1081
   25MOL   C12511213   4.048   0.051   2.535  0.6743  0.6689 -1.0169
   25MOL   C12611214   4.120   0.006   2.421  0.3327 -0.1218  0.3811
   25MOL   C12711215   4.239   0.079   2.364  0.2578 -0.7036  0.4300
   25MOL   O12811216   4.287   0.176   2.424 -0.3500  0.4492 -0.2665
   25MOL   O12911217   4.287   0.031   2.250  0.5345  0.7488  0.5104
   25MOL   C13011218   4.092   8.151   2.374 -0.2997 -0.9199 -0.7008
   25MOL   C13111219   3.984   8.073   2.419  0.5596  0.5687 -0.3058
   25MOL   H13211220   3.587   7.860   2.310 -0.9048  0.8780  0.5649
   25MOL   H13311221   3.467   7.801   2.415  0.0137 -1.5082 -2.2493
   25MOL   H13411222   3.621   7.814   2.619  0.9842 -0.7331 -1.2466
   25MOL   H13511223   3.553   7.961   2.558 -0.2517  0.5050 -3.0458
   25MOL   H13611224   3.880   0.005   2.670  0.4456  0.6755  0.3043
   25MOL   H13711225   4.065   0.148   2.578  0.3490  0.8577 -1.3161
   25MOL   H13811226   4.152   8.118   2.291  1.4472  1.5888 -0.4647
   25MOL   H13911227   3.965   7.983   2.364  0.4535  1.3918 -1.6275
   25MOL   O14011228   4.419   0.080   2.215 -0.4668 -0.0609  0.3444
   25MOL   C14111229   4.524   0.005   2.264  0.3517 -0.0289 -0.0831
   25MOL   C14211230   4.643   8.273   2.170  0.6097  0.1525  0.4074
   25MOL   O14311231   4.646   8.142   2.113  0.0517 -0.6294  0.0486
   25MOL   C14411232   4.729   8.054   2.156 -0.2224  0.3219 -0.2441
   25MOL   O14511233   4.824   8.079   2.233  0.0765  0.2017  0.2895
   25MOL   C14611234   4.716   7.915   2.095  0.8154  0.0803  0.2781
   25MOL   C14711235   4.812   7.817   2.123 -0.4238  0.6388 -0.6755
   25MOL   C14811236   4.788   7.690   2.066  0.1294 -0.4004  0.2863
   25MOL   C14911237   4.688   7.668   1.972  0.4973 -0.3572 -0.4109
   25MOL   C15011238   4.671   7.543   1.895 -0.7694 -0.1263 -0.2388
   25MOL   O15111239   4.565   7.520   1.833  0.4321  0.1918  0.3457
   25MOL   O15211240   4.780   7.462   1.904  0.7086 -0.3224  0.2293
   25MOL   C15311241   4.601   7.772   1.935  0.0498  0.1163  0.0027
   25MOL   C15411242   4.616   7.892   2.000  0.6771 -0.7192 -0.2571
   25MOL   H15511243   4.558   0.057   2.354 -0.6497  2.0150 -0.8458
   25MOL   H15611244   4.492   8.179   2.290  1.2788  0.2413  2.2803
   25MOL   H15711245   4.738   0.024   2.217  0.9473 -0.5454  0.1134
   25MOL   H15811246   4.630   0.073   2.092 -0.3891  1.0704  1.4394
   25MOL   H15911247   4.898   7.839   2.185  0.0459  0.8276 -1.3906
   25MOL   H16011248   4.849   7.605   2.094  0.3651 -0.5695 -0.7174
   25MOL   H16111249   4.521   7.775   1.862 -0.4379  0.9551  0.5679
   25MOL   H16211250   4.553   7.971   1.960  3.0167  0.6937 -1.2629
   25MOL   O16311251   4.762   7.339   1.830 -0.4938 -0.6621 -0.3863
   25MOL   C16411252   4.695   7.232   1.904  0.1815  0.8996  0.0943
   25MOL   C16511253   4.774   7.181   2.024  0.1506  0.2480 -0.2163
   25MOL   O16611254   4.691   7.121   2.121 -0.8032  0.2537 -0.0121
   25MOL   C16711255   4.665   6.991   2.118  0.1625  0.3471  0.7037
   25MOL   O16811256   4.719   6.911   2.039 -0.4624 -0.6427 -0.0686
   25MOL   C16911257   4.558   6.954   2.217 -0.3781  0.9165  0.0036
   25MOL   C17011258   4.564   6.824   2.278 -0.7302  0.4275 -0.2884
   25MOL   C17111259   4.464   6.777   2.368 -0.3238 -0.0158  0.1284
   25MOL   C17211260   4.365   6.866   2.414 -0.9165  0.3768 -0.1901
   25MOL   C17311261   4.255   6.821   2.508 -0.3769 -0.5764  0.0047
   25MOL   O17411262   4.176   6.909   2.561  0.4956 -0.8598 -0.2362
   25MOL   O17511263   4.242   6.693   2.527 -0.1149 -0.4789  0.2589
   25MOL   C17611264   4.373   7.003   2.370 -0.3933  0.2276 -0.3256
   25MOL   C17711265   4.462   7.044   2.269 -0.0816 -0.4529  0.1844
   25MOL   H17811266   4.600   7.279   1.929 -0.1510  0.0565  0.4581
   25MOL   H17911267   4.683   7.144   1.840 -1.0171 -1.1094  2.9704
   25MOL   H18011268   4.843   7.257   2.063 -1.6527  1.8268 -0.0271
   25MOL   H18111269   4.838   7.110   1.972 -0.2796  0.8874 -1.6529
   25MOL   H18211270   4.643   6.758   2.244 -2.8246 -1.3636 -1.8119
   25MOL   H18311271   4.459   6.671   2.384 -1.0063 -0.6383 -3.7684
   25MOL   H18411272   4.303   7.082   2.392 -1.8395 -0.5433 -2.0274
   25MOL   H18511273   4.434   7.140   2.227  1.7924  0.4166  0.8765
   25MOL   O18611274   4.130   6.654   2.616 -0.7013 -0.3727 -0.0770
   25MOL   C18711275   4.001   6.647   2.547 -0.1728 -0.0728  0.7562
   25MOL   C18811276   4.004   6.543   2.434 -0.3631 -0.5496  0.2058
   25MOL   O18911277   4.073   6.591   2.324 -0.7956  0.0064  0.8389
   25MOL   C19011278   4.028   6.697   2.248  0.7179  0.5640  0.3438
   25MOL   O19111279   3.914   6.748   2.260 -0.6078  0.3413 -0.5603
   25MOL   C19211280   4.130   6.753   2.163  0.3181 -0.0490 -0.4786
   25MOL   C19311281   4.117   6.889   2.128  0.1407 -0.4673  0.2816
   25MOL   C19411282   4.214   6.940   2.036 -0.3259 -0.4533 -0.2146
   25MOL   C19511283   4.323   6.857   1.990  0.0400  0.7322  0.9511
   25MOL   C19611284   4.409   6.903   1.882 -0.9418 -0.0114 -0.0864
   25MOL   O19711285   4.403   7.022   1.837 -0.1045  0.4319 -0.4477
   25MOL   O19811286   4.486   6.809   1.821  0.1862  0.1471  0.3812
   25MOL   C19911287   4.338   6.727   2.044  0.4582 -0.3534 -0.1597
   25MOL   C20011288   4.237   6.674   2.121  0.8527 -0.6167 -0.1569
   25MOL   H20111289   3.928   6.618   2.622  1.7403 -1.9305  1.9462
   25MOL   H20211290   3.971   6.745   2.510 -0.0041  0.1145  1.1171
   25MOL   H20311291   3.900   6.525   2.405 -0.8361 -1.0726  2.1309
   25MOL   H20411292   4.047   6.446   2.459  0.1542 -0.7368 -1.3487
   25MOL   H20511293   4.031   6.948   2.156  0.7544  0.1021  0.9791
   25MOL   H20611294   4.208   7.045   2.010 -0.5127 -0.8169 -1.6690
   25MOL   H20711295   4.422   6.665   2.016 -0.4428 -2.3125  1.3655
   25MOL   H20811296   4.236   6.569   2.149 -3.2689 -0.3026  1.0952
   25MOL   O20911297   4.575   6.858   1.713 -0.6260  0.0593  0.9168
   25MOL   C21011298   4.508   6.834   1.590  0.1596 -0.2202  0.4704
   25MOL   C21111299   4.611   6.870   1.483 -0.0201 -0.0638  0.3706
   25MOL   O21211300   4.668   7.002   1.483 -0.1846  0.0416 -0.1817
   25MOL   C21311301   4.602   7.101   1.428  0.4930 -0.8335  0.0483
   25MOL   O21411302   4.486   7.100   1.388  0.0876  0.7949 -0.1420
   25MOL   C21511303   4.674   7.224   1.438  0.4131 -0.3806  0.1960
   25MOL   C21611304   4.813   7.232   1.465  0.1239  0.8379  0.1384
   25MOL   C21711305   4.876   7.358   1.474  0.2903 -0.1681 -0.1677
   25MOL   C21811306   4.815   7.474   1.445 -0.9257 -0.8593 -0.6844
   25MOL   C21911307   4.886   7.605   1.444  0.1433  0.0208  1.1269
   25MOL   O22011308   5.013   7.608   1.431  0.2922  0.2044 -0.1646
   25MOL   O22111309   4.810   7.714   1.466 -0.8501  0.2566  0.1434
   25MOL   C22211310   4.675   7.464   1.415 -0.6148  0.0595  0.1373
   25MOL   C22311311   4.605   7.342   1.409 -0.0407  0.0934 -1.2523
   25MOL   H22411312   4.480   6.729   1.596  0.6489 -0.5472 -2.1425
   25MOL   H22511313   4.417   6.890   1.575  0.1731 -0.5332 -0.8867
   25MOL   H22611314   4.563   6.853   1.387  1.7332  0.5899 -0.6404
   25MOL   H22711315   4.688   6.792   1.486 -0.9455 -0.9180  2.9340
   25MOL   H22811316   4.868   7.143   1.493  0.4068  0.5900 -1.1705
   25MOL   H22911317   4.982   7.369   1.493  0.2820 -0.6491  0.1657
   25MOL   H23011318   4.610   7.547   1.393  0.0660  0.7141  0.5731
   25MOL   H23111319   4.499   7.358   1.392 -0.4655 -1.6059 -0.3007
   25MOL   O23211320   4.883   7.843   1.478  0.5379  0.3566  0.9233
   25MOL   C23311321   4.872   7.891   1.610 -0.2486 -0.3201 -0.1334
   25MOL   C23411322   4.999   7.901   1.692 -0.1405 -0.3101 -0.3325
   25MOL   O23511323   5.029   7.767   1.731  0.5849 -0.5894 -0.7385
   25MOL   C23611324   5.072   7.736   1.850  0.2861 -0.1540  0.2886
   25MOL   O23711325   5.109   7.814   1.933 -0.4979 -0.3367 -0.2423
   25MOL   C23811326   5.084   7.582   1.870 -0.1784  0.2972 -0.5694
   25MOL   C23911327   5.074   7.490   1.767  0.2931 -0.1310 -0.1617
   25MOL   C24011328   5.076   7.349   1.794 -0.2351 -0.2976 -0.4516
   25MOL   C24111329   5.102   7.304   1.925  0.2564 -1.3118  0.6158
   25MOL   C24211330   5.121   7.153   1.938 -0.2088  0.0268 -0.1448
   25MOL   O24311331   5.093   7.069   1.852  0.0636  0.1296 -0.3029
   25MOL   O24411332   5.163   7.116   2.056  0.0400 -0.5940 -0.0356
   25MOL   C24511333   5.116   7.395   2.032  0.1559  0.2907 -0.2941
   25MOL   C24611334   5.092   7.530   2.005 -0.2773 -0.0038 -0.0769
   25MOL   H24711335   4.838   7.994   1.598  0.9575 -0.1450 -2.2958
   25MOL   H24811336   4.798   7.836   1.669 -1.7201  1.3235 -0.4083
   25MOL   H24911337   4.970   7.955   1.782 -0.0905 -1.4252  0.3646
   25MOL   H25011338   5.080   7.945   1.634 -0.5176 -1.1783 -1.5277
   25MOL   H25111339   5.056   7.526   1.667 -1.1284  1.1375  0.5318
   25MOL   H25211340   5.062   7.272   1.720  0.5109  0.4639 -1.3979
   25MOL   H25311341   5.140   7.354   2.129  0.1047 -0.6318 -0.6684
   25MOL   H25411342   5.091   7.601   2.086  1.3918  0.2796 -0.2917
   25MOL   O25511343   5.167   6.968   2.070 -0.5238  0.0149 -0.2451
   25MOL   C25611344   5.057   6.936   2.155  0.1115 -0.0838 -0.3511
   25MOL   C25711345   5.032   6.787   2.198  0.0664 -0.1095  0.1358
   25MOL   O25811346   4.931   6.780   2.305  0.0678 -0.2278  0.1042
   25MOL   C25911347   4.909   6.661   2.356 -0.4033  0.0118  0.3520
   25MOL   O26011348   4.956   6.555   2.309  0.0209 -0.1663  0.7873
   25MOL   C26111349   4.801   6.653   2.467  0.0592 -0.7481  0.3206
   25MOL   C26211350   4.732   6.531   2.489  0.1265  0.2222 -0.0285
   25MOL   C26311351   4.637   6.518   2.592 -0.3068  0.1348  0.3402
   25MOL   C26411352   4.616   6.626   2.681  0.1763 -0.9005  0.3276
   25MOL   C26511353   4.521   6.632   2.791 -0.3873  0.1166  0.1605
   25MOL   O26611354   4.528   6.697   2.894 -0.3150 -0.0646  0.4453
   25MOL   O26711355   4.424   6.549   2.781 -0.6083  0.5389 -0.2484
   25MOL   C26811356   4.700   6.742   2.667  0.7744  0.0366 -0.7354
   25MOL   C26911357   4.784   6.757   2.560 -0.0025  0.3667 -0.2934
   25MOL   H27011358   5.069   6.990   2.249 -1.4188 -0.3380  0.0076
   25MOL   H27111359   4.960   6.969   2.118  0.2346  1.6989  0.8725
   25MOL   H27211360   5.125   6.741   2.232  0.4183  1.2936  1.1536
   25MOL   H27311361   4.995   6.738   2.108 -2.7944  0.0075  1.1958
   25MOL   H27411362   4.741   6.453   2.414  0.8176 -0.5010  0.7978
   25MOL   H27511363   4.589   6.421   2.603 -1.6474  0.4304 -2.4264
   25MOL   H27611364   4.693   6.820   2.741  1.2346  1.2432 -1.9399
   25MOL   H27711365   4.836   6.850   2.548  1.3485 -0.5160 -1.4348
   25MOL   O27811366   4.344   6.525   2.907 -0.0084 -0.1623  0.0661
   25MOL   C27911367   4.230   6.613   2.913  0.2340 -0.1082  0.1652
   25MOL   C28011368   4.163   6.586   3.050  0.5681 -0.3901 -0.1753
   25MOL   O28111369   4.081   6.690   3.093 -0.4814  0.1194  0.1677
   25MOL   C28211370   3.947   6.694   3.060 -0.2966  0.0591 -0.9983
   25MOL   O28311371   3.892   6.627   2.972  0.1102  0.1343  0.1122
   25MOL   C28411372   3.878   6.801   3.138 -0.0770  0.5588 -0.1422
   25MOL   C28511373   3.741   6.835   3.120 -0.1298  0.3152 -0.5841
   25MOL   C28611374   3.686   6.944   3.188 -0.2226 -0.5726  0.0467
   25MOL   C28711375   3.764   7.013   3.280  0.7367  0.0238 -0.8561
   25MOL   C28811376   3.707   7.136   3.353 -0.1865  0.8304 -0.2506
   25MOL   O28911377   3.717   7.158   3.476 -0.1608  0.6344  0.5245
   25MOL   O29011378   3.645   7.220   3.266  0.5338  0.1859 -0.3841
   25MOL   C29111379   3.898   6.988   3.301  0.1899 -0.2091  0.5854
   25MOL   C29211380   3.950   6.881   3.234  0.1863  0.1510  0.8227
   25MOL   H29311381   4.250   6.719   2.900  1.7964 -0.2846  0.9843
   25MOL   H29411382   4.162   6.588   2.831 -0.4403 -0.1586  0.7286
   25MOL   H29511383   4.242   6.577   3.125  0.3762  2.1718  0.3975
   25MOL   H29611384   4.101   6.497   3.049 -0.8949  0.6171 -0.6664
   25MOL   H29711385   3.683   6.778   3.049  0.0013 -0.3433 -0.1720
   25MOL   H29811386   3.587   6.982   3.169 -0.0281  1.5147  2.9462
   25MOL   H29911387   3.966   7.043   3.365  0.3056 -0.9924  1.1490
   25MOL   H30011388   4.056   6.867   3.248  0.2406 -0.1030  0.1875
   25MOL   O30111389   3.573   7.329   3.341 -0.0830  0.0650 -0.1425
   25MOL   C30211390   3.646   7.446   3.339  0.3507 -0.4587  0.6457
   25MOL   C30311391   3.571   7.544   3.238 -0.5609 -0.2020 -0.1280
   25MOL   O30411392   3.633   7.543   3.111  0.1034 -0.3483  0.5030
   25MOL   C30511393   3.744   7.611   3.078  0.1080 -0.1312  0.9694
   25MOL   O30611394   3.796   7.695   3.149 -0.1209 -0.1536  0.7675
   25MOL   C30711395   3.779   7.602   2.935 -0.6308  0.2584  0.3950
   25MOL   C30811396   3.718   7.513   2.843 -0.2377 -0.2085 -0.6027
   25MOL   C30911397   3.752   7.505   2.706  0.1591 -0.3437  0.6297
   25MOL   C31011398   3.860   7.582   2.658 -0.1125  0.1915  0.4275
   25MOL   C31111399   3.909   7.571   2.515  0.2858 -0.1031  0.5833
   25MOL   O31211400   3.958   7.667   2.458  0.1059 -0.7313 -0.3631
   25MOL   O31311401   3.890   7.440   2.461 -0.1521 -0.3404  0.1825
   25MOL   C31411402   3.932   7.664   2.749 -0.2817  0.7193 -0.5443
   25MOL   C31511403   3.888   7.674   2.887  0.3149  0.0276  0.5281
   25MOL   H31611404   3.638   7.475   3.444  2.2439 -0.9422  0.9349
   25MOL   H31711405   3.750   7.433   3.309  0.0970  0.9401 -0.9647
   25MOL   H31811406   3.590   7.640   3.285  1.5932  0.3488 -2.0146
   25MOL   H31911407   3.465   7.524   3.225 -0.6062  1.0043 -1.7671
   25MOL   H32011408   3.631   7.460   2.879  1.9510 -3.3461  0.1741
   25MOL   H32111409   3.685   7.448   2.643 -2.4141  0.4036  2.6090
   25MOL   H32211410   4.028   7.699   2.716  0.1724  1.0900  1.1101
   25MOL   H32311411   3.943   7.740   2.952  2.9201 -2.4760  0.9526
   25MOL   O32411412   3.901   7.328   2.565  0.5385 -0.2698  0.4187
   25MOL   C32511413   4.015   7.253   2.542 -0.0429 -0.4823 -0.3160
   25MOL   C32611414   4.095   7.228   2.676 -0.1457  0.1688 -0.4823
   25MOL   O32711415   4.152   7.349   2.727 -0.0684  0.2983  0.3805
   25MOL   C32811416   4.282   7.373   2.691 -0.0639  0.1931 -0.0288
   25MOL   O32911417   4.350   7.314   2.602  0.6913  0.7341  0.0090
   25MOL   C33011418   4.339   7.482   2.768  0.0567 -0.3048 -1.0796
   25MOL   C33111419   4.258   7.577   2.843  0.0005  0.0375 -0.0718
   25MOL   C33211420   4.320   7.683   2.909 -0.1238  0.4165  0.4772
   25MOL   C33311421   4.463   7.693   2.922 -0.2617  0.3072  0.3974
   25MOL   C33411422   4.512   7.796   3.007  0.3264 -0.9043 -1.0575
   25MOL   O33511423   4.448   7.880   3.067 -0.3531 -0.1949 -0.2193
   25MOL   O33611424   4.648   7.801   2.998  0.0845  0.0220  0.0710
   25MOL   C33711425   4.535   7.600   2.843  0.3375 -0.1453  0.1865
   25MOL   C33811426   4.477   7.495   2.773 -0.1653  0.1552 -0.2640
   25MOL   H33911427   3.978   7.156   2.510 -0.2234 -0.7063  0.5619
   25MOL   H34011428   4.070   7.306   2.464  0.5725 -1.2399 -0.4034
   25MOL   H34111429   4.182   7.164   2.665  0.9846  1.8420 -1.6001
   25MOL   H34211430   4.023   7.193   2.749 -0.6554  0.2528 -0.9385
   25MOL   H34311431   4.152   7.568   2.859  0.0825  0.6862  0.8843
   25MOL   H34411432   4.257   7.745   2.971  0.3617  1.5450 -0.1427
   25MOL   H34511433   4.643   7.606   2.841  0.3540 -0.1447  0.8240
   25MOL   H34611434   4.545   7.425   2.727 -0.0904 -0.5739  0.9296
   25MOL   O34711435   4.709   7.901   3.093 -0.9671  0.2048 -0.2137
   25MOL   C34811436   4.746   8.022   3.027  0.7226  0.1451  0.7157
   25MOL   C34911437   4.682   8.140   3.107 -0.4651 -0.0566 -0.5147
   25MOL   O35011438   4.703   8.269   3.060 -0.8665 -0.1735  0.3916
   25MOL   C35111439   4.814   0.059   3.092  0.3681  0.0261  0.4677
   25MOL   O35211440   4.907   0.017   3.159 -0.7653  0.3078 -0.0442
   25MOL   C35311441   4.817   0.194   3.040  0.1251 -0.5604  0.6776
   25MOL   C35411442   4.935   0.263   3.014  0.4799  0.1336 -0.1391
   25MOL   C35511443   4.928   0.400   2.971 -0.2711 -0.4114  0.3704
   25MOL   C35611444   4.802   0.463   2.961 -0.3928  0.3353 -0.0002
   25MOL   C35711445   4.781   0.599   2.913  0.3449  0.2045 -0.0025
   25MOL   O35811446   4.868   0.650   2.848  0.2212 -0.0641  0.5344
   25MOL   O35911447   4.662   0.651   2.928  0.6479  0.7518 -0.4628
   25MOL   C36011448   4.686   0.392   2.990  0.7150  0.0814 -0.1864
   25MOL   C36111449   4.693   0.258   3.032  0.0292  0.5271  0.2184
   25MOL   H36211450   4.853   8.041   3.033  0.5723  1.2187  0.1571
   25MOL   H36311451   4.712   8.015   2.924 -1.0986  1.0002  1.2425
   25MOL   H36411452   4.719   8.120   3.208  1.1024  0.3369 -0.9958
   25MOL   H36511453   4.574   8.125   3.111 -0.2330 -1.2694  1.6072
   25MOL   H36611454   5.029   0.213   3.033  1.0285  0.9725 -0.6166
   25MOL   H36711455   5.020   0.451   2.947 -0.0044 -0.8860  0.3752
   25MOL   H36811456   4.587   0.434   2.980 -0.1021 -1.8770 -0.6090
   25MOL   H36911457   4.597   0.218   3.058 -0.3538  1.0781 -0.3330
   25MOL   O37011458   4.640   0.777   2.849 -0.4446 -0.2631  0.0454
   25MOL   C37111459   4.638   0.888   2.931 -0.3703  0.4499  0.4309
   25MOL   C37211460   4.601   1.009   2.848 -0.2070 -0.0521 -0.2267
   25MOL   O37311461   4.721   1.043   2.775  0.6357 -0.4151 -0.0684
   25MOL   C37411462   4.704   1.149   2.692 -0.6836  0.2510  0.1294
   25MOL   O37511463   4.598   1.218   2.691  0.2169  0.3468  0.3835
   25MOL   C37611464   4.817   1.167   2.595 -0.3411  0.3998  0.3551
   25MOL   C37711465   4.850   1.293   2.542  0.1812 -0.0553  0.0460
   25MOL   C37811466   4.948   1.312   2.452 -0.7983 -0.0152 -0.7666
   25MOL   C37911467   5.036   1.206   2.422  0.5191 -0.6437  0.1059
   25MOL   C38011468   5.141   1.224   2.307  0.1745  0.5019 -0.3738
   25MOL   O38111469   5.214   1.131   2.267 -0.2334 -0.3790  0.4249
   25MOL   O38211470   5.136   1.336   2.247 -0.5535 -0.6601 -0.1747
   25MOL   C38311471   5.010   1.078   2.482 -0.8469  0.2892 -0.0158
   25MOL   C38411472   4.904   1.059   2.571 -0.0648 -0.3118  0.0377
   25MOL   H38511473   4.561   0.870   3.007 -0.8633  1.0778  0.0871
   25MOL   H38611474   4.730   0.904   2.987 -0.7648  0.4901  1.0704
   25MOL   H38711475   4.578   1.097   2.908 -0.3912 -0.9088  0.9612
   25MOL   H38811476   4.522   0.991   2.776 -0.7529  2.2714 -0.2287
   25MOL   H38911477   4.783   1.366   2.585 -0.0315 -0.7295  0.8782
   25MOL   H39011478   4.966   1.413   2.416 -0.2845  0.3780  0.5487
   25MOL   H39111479   5.083   1.001   2.462 -0.6047 -0.0263  1.9948
   25MOL   H39211480   4.888   0.956   2.600 -0.4804 -0.7838 -1.8035
   25MOL   O39311481   5.232   1.344   2.132  0.1663  0.4375 -0.1931
   25MOL   C39411482   5.147   1.373   2.023 -0.1091  0.0822  0.1599
   25MOL   C39511483   5.078   1.242   1.967  0.2822  0.1350  0.7872
   25MOL   O39611484   4.942   1.236   2.004 -0.0102 -0.1038  0.2125
   25MOL   C39711485   4.876   1.119   1.984  0.5305  0.0765  0.7032
   25MOL   O39811486   4.918   1.024   1.916  0.0508 -0.6434  0.3831
   25MOL   C39911487   4.749   1.117   2.050  0.3242  0.1454 -0.3048
   25MOL   C40011488   4.650   1.022   2.016  0.9009 -0.3500 -0.2824
   25MOL   C40111489   4.532   1.013   2.091 -0.5242 -0.5288 -0.1677
   25MOL   C40211490   4.515   1.084   2.215 -0.3014 -0.1012  0.8774
   25MOL   C40311491   4.391   1.060   2.289  0.1615 -0.2615 -0.6218
   25MOL   O40411492   4.306   0.975   2.258 -0.4613  0.6797  0.1808
   25MOL   O40511493   4.386   1.131   2.397 -0.0341 -0.5386  0.5807
   25MOL   C40611494   4.608   1.179   2.249 -0.2656  0.1725 -0.0984
   25MOL   C40711495   4.729   1.186   2.175 -0.2093  0.2803  0.3214
   25MOL   H40811496   5.080   1.456   2.045  0.4991  0.5478  0.2799
   25MOL   H40911497   5.214   1.422   1.952  0.5322 -1.0405 -0.0231
   25MOL   H41011498   5.126   1.149   1.995  0.2035 -0.1094  0.1245
   25MOL   H41111499   5.087   1.258   1.859  1.3121 -2.2470  0.4957
   25MOL   H41211500   4.656   0.973   1.920  1.6702  1.0614 -0.9639
   25MOL   H41311501   4.446   0.956   2.060 -0.9075  0.1288 -0.3347
   25MOL   H41411502   4.595   1.256   2.324 -0.1225 -0.0322  0.1387
   25MOL   H41511503   4.807   1.257   2.198  0.6274 -0.6526  0.4054
   25MOL   O41611504   4.268   1.112   2.490 -0.2148 -0.6131  0.4410
   25MOL   C41711505   4.319   1.025   2.592 -0.1820  0.8927  0.1328
   25MOL   C41811506   4.198   1.000   2.687 -0.0866  0.0301 -0.1962
   25MOL   O41911507   4.206   0.879   2.746 -0.1191  0.1705 -0.2187
   25MOL   C42011508   4.104   0.827   2.809  0.3299 -0.0363 -0.2718
   25MOL   O42111509   3.992   0.873   2.814 -0.2005 -0.5375 -0.4630
   25MOL   C42211510   4.148   0.707   2.887 -0.0526 -0.6092  0.4768
   25MOL   C42311511   4.283   0.686   2.918 -0.1880 -0.2501  0.2040
   25MOL   C42411512   4.317   0.576   2.994  0.9648  0.6212 -0.1197
   25MOL   C42511513   4.222   0.494   3.045 -0.2483 -0.7703  0.2187
   25MOL   C42611514   4.264   0.378   3.129  0.0365  0.3089  0.4353
   25MOL   O42711515   4.378   0.330   3.131 -0.6235  0.0823 -0.1352
   25MOL   O42811516   4.158   0.331   3.212  0.4681 -0.5026 -0.1683
   25MOL   C42911517   4.090   0.522   3.028 -0.0593  0.1226 -0.1000
   25MOL   C43011518   4.048   0.623   2.937 -0.5942 -0.1729  0.0202
   25MOL   H43111519   4.356   0.930   2.553 -2.1705  0.8655 -1.8222
   25MOL   H43211520   4.396   1.082   2.642 -0.4015  2.6046 -1.4107
   25MOL   H43311521   4.103   1.003   2.634  0.4401 -1.1431 -1.2252
   25MOL   H43411522   4.207   1.075   2.765 -0.2423  1.1469 -1.2365
   25MOL   H43511523   4.361   0.749   2.878  0.5675 -1.4259 -0.2100
   25MOL   H43611524   4.418   0.547   3.018  1.0430 -1.2509 -2.5772
   25MOL   H43711525   4.005   0.463   3.058 -1.8453  2.0652 -1.1424
   25MOL   H43811526   3.944   0.648   2.924 -0.1848  1.2260 -0.6436
   25MOL   O43911527   4.183   0.188   3.272  0.4607 -0.0016  0.2981
   25MOL   C44011528   4.170   0.197   3.414 -0.4080 -0.2263 -0.2577
   25MOL   C44111529   4.296   0.230   3.494  0.1133  1.3251  0.1858
   25MOL   O44211530   4.266   0.335   3.579 -0.0657 -0.2008 -0.4095
   25MOL   C44311531   4.356   0.429   3.595 -0.2401 -0.8183  0.3098
   25MOL   O44411532   4.476   0.424   3.560 -0.1826  0.2227  0.0348
   25MOL   C44511533   4.310   0.529   3.689 -0.0233  1.0059  0.2321
   25MOL   C44611534   4.175   0.558   3.705  0.7106 -0.8195  0.5145
   25MOL   C44711535   4.131   0.668   3.784 -1.1337 -0.6563  0.0052
   25MOL   C44811536   4.232   0.739   3.858 -0.6034 -0.1659  0.6956
   25MOL   C44911537   4.200   0.847   3.958  0.0512 -0.2980  0.2487
   25MOL   O45011538   4.083   0.881   3.975 -0.3280  0.0214  0.1347
   25MOL   O45111539   4.298   0.904   4.028  1.0293  0.0241  0.0131
   25MOL   C45211540   4.368   0.706   3.845 -0.4121  0.2502  0.2605
   25MOL   C45311541   4.406   0.608   3.750  0.0380  0.0861 -0.9485
   25MOL   H45411542   4.089   0.261   3.450 -1.5521 -0.9658 -1.4667
   25MOL   H45511543   4.138   0.096   3.439 -2.0920 -0.2252 -2.2806
   25MOL   H45611544   4.387   0.245   3.437  1.6029 -1.4934  1.6887
   25MOL   H45711545   4.321   0.147   3.560 -0.2403  1.7092  0.8120
   25MOL   H45811546   4.103   0.498   3.651  0.3285 -0.3106  0.4608
   25MOL   H45911547   4.027   0.692   3.799 -0.4526  2.7882 -0.4033
   25MOL   H46011548   4.452   0.756   3.890 -0.3279  1.1016 -0.8473
   25MOL   H46111549   4.509   0.594   3.722  0.0400 -0.4699 -0.6768
   25MOL   H46211550   4.273   0.992   4.055  2.2693  0.4137 -0.0610
   26MOL     O111551   4.964   2.860   2.514  0.3641  0.6681 -0.6214
   26MOL     C211552   4.910   2.733   2.526 -0.4321 -0.4740  0.0302
   26MOL     C311553   4.865   2.708   2.668  0.3795 -0.0678 -0.6449
   26MOL     O411554   4.975   2.625   2.723 -0.0111 -0.1469 -0.4994
   26MOL     C511555   4.950   2.560   2.839  0.1436  0.3332 -0.1471
   26MOL     O611556   4.837   2.546   2.889  0.0949  0.7029 -0.0891
   26MOL     C711557   5.076   2.507   2.901 -0.2930  0.2677 -1.0671
   26MOL     C811558   5.076   2.435   3.023 -0.6113  0.8690 -0.6995
   26MOL     C911559   5.179   2.354   3.075 -0.4132  0.0088 -1.0283
   26MOL    C1011560   5.306   2.352   3.009  0.4925  0.7478 -0.5695
   26MOL    C1111561   5.411   2.268   3.065 -0.0096  0.0735 -0.1110
   26MOL    O1211562   5.418   2.227   3.178  0.2605  0.2035 -0.0817
   26MOL    O1311563   5.498   2.233   2.972  0.3976  0.0550 -0.0617
   26MOL    C1411564   5.315   2.427   2.887  0.0121  0.2401 -0.3664
   26MOL    C1511565   5.202   2.504   2.836 -0.1536  0.3679 -0.0790
   26MOL    H1611566   4.818   2.722   2.468 -1.1846 -1.5033  1.4023
   26MOL    H1711567   4.984   2.657   2.506  1.4765  1.8536 -2.1325
   26MOL    H1811568   4.770   2.656   2.682  0.5620  0.1771  1.6436
   26MOL    H1911569   4.857   2.806   2.714 -1.0773 -0.4493 -0.0556
   26MOL    H2011570   4.983   2.427   3.077 -0.0041  0.4494  0.3052
   26MOL    H2111571   5.175   2.289   3.161  1.6141  0.1872 -0.7704
   26MOL    H2211572   5.411   2.433   2.839  0.6327  0.8188  0.9066
   26MOL    H2311573   5.227   2.550   2.741  1.0393  1.0755  0.5694
   26MOL    H2411574   5.057   2.859   2.531  0.5376 -0.9707 -1.5748
   26MOL    O2511575   5.615   2.146   3.022 -0.0320  0.6427  0.4213
   26MOL    C2611576   5.728   2.220   3.008  0.6681  0.1499  0.1834
   26MOL    C2711577   5.860   2.139   2.990 -0.4484  0.3405  0.4446
   26MOL    O2811578   5.949   2.204   2.900  0.4703  0.4900  0.5360
   26MOL    C2911579   6.067   2.151   2.864 -0.2799 -0.0016  0.4698
   26MOL    O3011580   6.099   2.040   2.907  0.1913  0.3552 -0.1155
   26MOL    C3111581   6.141   2.227   2.758 -0.1565 -0.9250  0.0987
   26MOL    C3211582   6.072   2.336   2.693 -0.0528 -0.1585 -0.5774
   26MOL    C3311583   6.145   2.413   2.601  0.5260  0.2635 -0.1207
   26MOL    C3411584   6.278   2.369   2.566 -0.7516 -0.1210  0.3994
   26MOL    C3511585   6.346   2.456   2.468 -0.5694  0.0387 -0.0120
   26MOL    O3611586   6.295   2.532   2.385  0.3483  0.0039  0.2158
   26MOL    O3711587   6.485   2.442   2.478 -0.2018 -0.5272 -0.3233
   26MOL    C3811588   6.345   2.258   2.630  0.5260 -0.8206 -0.0194
   26MOL    C3911589   6.271   2.187   2.718  0.4539 -0.4637 -0.0599
   26MOL    H4011590   5.719   2.279   2.916 -0.3515 -0.5221 -0.1627
   26MOL    H4111591   5.729   2.299   3.083  3.5138 -0.4865  0.8632
   26MOL    H4211592   5.849   2.034   2.966 -1.0836  0.4416  0.2781
   26MOL    H4311593   5.908   2.142   3.087  0.6607 -3.0407  0.0462
   26MOL    H4411594   5.972   2.363   2.721  0.8070  1.6642  0.8538
   26MOL    H4511595   6.100   2.490   2.540 -0.3970  0.7842  1.1680
   26MOL    H4611596   6.448   2.227   2.617 -0.1380 -1.7532 -3.7020
   26MOL    H4711597   6.316   2.105   2.772  2.4716 -0.0638 -1.1121
   26MOL    O4811598   6.562   2.536   2.385 -0.0443  0.6183  0.1719
   26MOL    C4911599   6.611   2.459   2.278 -0.0384  0.0019  0.5069
   26MOL    C5011600   6.650   2.537   2.160 -1.2692 -0.1227 -0.4485
   26MOL    O5111601   6.776   2.591   2.179 -0.1846 -0.0204 -0.1082
   26MOL    C5211602   6.792   2.720   2.218 -0.1439 -0.1463  0.1287
   26MOL    O5311603   6.706   2.798   2.262 -0.7688 -0.7100  0.4483
   26MOL    C5411604   6.935   2.763   2.203 -0.5848 -0.4488 -0.5807
   26MOL    C5511605   6.968   2.895   2.239  0.1143 -0.4783  0.6239
   26MOL    C5611606   7.096   2.949   2.199  0.4291 -0.5141 -0.8309
   26MOL    C5711607   7.191   2.866   2.141  0.4039 -0.4357 -0.2208
   26MOL    C5811608   7.332   2.924   2.116 -0.1520  0.1800  0.0121
   26MOL    O5911609   7.366   3.041   2.100  0.1737  0.0077 -0.1446
   26MOL    O6011610   7.419   2.826   2.112 -0.4506 -0.2043  0.7741
   26MOL    C6111611   7.159   2.731   2.114  0.0775 -0.1478  0.1564
   26MOL    C6211612   7.029   2.685   2.140  0.4563 -0.7062  0.5934
   26MOL    H6311613   6.698   2.402   2.310 -0.4063  0.5125  2.4882
   26MOL    H6411614   6.538   2.383   2.253 -0.3004  0.7332 -1.0318
   26MOL    H6511615   6.586   2.616   2.122 -2.7292 -0.6683  0.8355
   26MOL    H6611616   6.649   2.463   2.080 -4.2464 -2.9500  2.0434
   26MOL    H6711617   6.887   2.961   2.266 -0.8288 -1.5492  0.4601
   26MOL    H6811618   7.123   3.049   2.229 -2.4486  0.0815 -0.0823
   26MOL    H6911619   7.233   2.662   2.074 -0.8202 -1.3927  0.6017
   26MOL    H7011620   7.005   2.582   2.120  2.2932 -0.6559 -2.1878
   26MOL    O7111621   7.562   2.873   2.090 -0.5031  0.0047  0.4097
   26MOL    C7211622   7.633   2.866   2.208 -0.2862  0.6530 -0.5165
   26MOL    C7311623   7.749   2.965   2.194  0.2524  0.5517 -0.0001
   26MOL    O7411624   7.814   2.970   2.316  0.6224  0.2506  0.3903
   26MOL    C7511625   7.777   3.061   2.415 -0.1323  0.4937 -0.0055
   26MOL    O7611626   7.683   3.139   2.411  0.3503 -0.0670  0.0609
   26MOL    C7711627   7.875   3.062   2.526 -0.2290 -0.2602  0.2726
   26MOL    C7811628   7.993   2.983   2.534 -0.3516  0.4456 -0.7447
   26MOL    C7911629   8.085   2.995   2.633  0.2973 -0.3777  0.1399
   26MOL    C8011630   8.068   3.094   2.733  0.8315  0.4678 -0.1367
   26MOL    C8111631   8.181   3.115   2.833  0.0333  0.1674 -0.5172
   26MOL    O8211632   0.007   3.048   2.844  0.3418 -0.0169 -0.6619
   26MOL    O8311633   8.149   3.222   2.916  0.4592 -0.4404  0.2083
   26MOL    C8411634   7.950   3.173   2.732  0.0109 -0.4326  0.6087
   26MOL    C8511635   7.852   3.157   2.626  0.1348  0.1234  0.0559
   26MOL    H8611636   7.584   2.891   2.302 -0.2048  1.4186 -0.6744
   26MOL    H8711637   7.666   2.762   2.206 -1.4337  0.2899 -1.3916
   26MOL    H8811638   7.707   3.061   2.164  1.4727  1.2138  0.3861
   26MOL    H8911639   7.828   2.941   2.122  0.0793 -0.0944  0.0245
   26MOL    H9011640   8.020   2.910   2.460 -0.6587 -1.1194  0.6707
   26MOL    H9111641   8.173   2.933   2.627  0.9045  0.5385 -0.5831
   26MOL    H9211642   7.938   3.251   2.805  0.7587  0.1812  0.0797
   26MOL    H9311643   7.761   3.214   2.616 -0.0611 -0.0313  0.9256
   26MOL    O9411644   8.258   3.264   3.010 -0.2353 -0.2044  0.1170
   26MOL    C9511645   8.245   3.194   3.125  0.8745 -0.0325 -0.6388
   26MOL    C9611646   8.144   3.264   3.221 -0.2301 -0.2190 -0.0759
   26MOL    O9711647   8.012   3.261   3.162 -0.2583  0.0203 -0.1734
   26MOL    C9811648   7.906   3.280   3.240 -0.1948 -0.0509  0.6261
   26MOL    O9911649   7.918   3.289   3.363  0.0977 -0.1848  0.2443
   26MOL   C10011650   7.782   3.312   3.173 -0.1573  0.4281 -0.6192
   26MOL   C10111651   7.662   3.309   3.245 -0.3652  0.1042  0.3375
   26MOL   C10211652   7.544   3.350   3.182  0.3796  0.5477 -0.0620
   26MOL   C10311653   7.543   3.350   3.041  0.1659 -0.6637  0.7895
   26MOL   C10411654   7.410   3.372   2.979  0.0973 -0.4709  0.1575
   26MOL   O10511655   7.301   3.353   3.037  0.0384  0.2087  0.0717
   26MOL   O10611656   7.412   3.409   2.852  0.3707 -0.2339 -0.4789
   26MOL   C10711657   7.656   3.338   2.966 -0.2243 -0.0118 -0.2956
   26MOL   C10811658   7.781   3.327   3.030  0.1455  0.2370  0.2270
   26MOL   H10911659   8.234   3.086   3.112 -2.0843  0.0279  1.0402
   26MOL   H11011660   0.066   3.184   3.174  0.8143  1.6515 -0.1510
   26MOL   H11111661   8.185   3.361   3.249  0.1566 -0.4705  0.2249
   26MOL   H11211662   8.154   3.223   3.321 -0.1861 -1.4786 -0.5897
   26MOL   H11311663   7.648   3.293   3.351  1.4533  2.0566  0.9037
   26MOL   H11411664   7.458   3.379   3.240  0.7911  1.5409  0.0686
   26MOL   H11511665   7.654   3.341   2.858  2.4661  1.3457 -0.3521
   26MOL   H11611666   7.871   3.328   2.971 -0.1243 -0.8842 -0.2155
   26MOL   O11711667   7.272   3.415   2.786 -0.3277 -0.0563 -0.2346
   26MOL   C11811668   7.227   3.547   2.775 -0.0661 -0.1427 -0.7226
   26MOL   C11911669   7.084   3.540   2.717 -0.6701 -0.1566 -0.4751
   26MOL   O12011670   7.083   3.517   2.575  0.4896 -0.2194  0.4697
   26MOL   C12111671   7.072   3.617   2.482 -0.1455  0.2992 -0.4512
   26MOL   O12211672   7.048   3.736   2.505 -0.2251 -0.2778 -0.2878
   26MOL   C12311673   7.091   3.567   2.343  0.1197 -0.1614 -0.3595
   26MOL   C12411674   7.139   3.435   2.317 -0.1625  0.0504  1.0392
   26MOL   C12511675   7.167   3.396   2.185 -0.0978 -0.6405  0.3427
   26MOL   C12611676   7.130   3.475   2.077 -0.1257 -0.0717  0.7183
   26MOL   C12711677   7.157   3.421   1.940  0.4893  0.2888  0.1087
   26MOL   O12811678   7.122   3.481   1.838 -0.6066  0.4123 -0.1913
   26MOL   O12911679   7.211   3.297   1.941  0.2935 -0.0241  0.5597
   26MOL   C13011680   7.060   3.595   2.104  0.1844  0.3035 -0.1191
   26MOL   C13111681   7.060   3.647   2.236  0.4515 -0.5044  0.1165
   26MOL   H13211682   7.227   3.596   2.872 -0.1122  0.8595 -1.2248
   26MOL   H13311683   7.292   3.612   2.717  1.7585 -0.3572  1.0391
   26MOL   H13411684   7.034   3.631   2.750  0.4734  0.2528  0.1721
   26MOL   H13511685   7.029   3.452   2.750 -1.3141 -0.5099 -2.3925
   26MOL   H13611686   7.162   3.375   2.404 -0.4745 -0.0292  1.0689
   26MOL   H13711687   7.225   3.306   2.167  0.8051  0.1857 -0.9317
   26MOL   H13811688   7.005   3.643   2.024  0.1769  3.5659  1.7475
   26MOL   H13911689   7.021   3.746   2.256  1.6846 -0.0551  0.3804
   26MOL   O14011690   7.210   3.218   1.809 -0.1093  0.1307 -0.1009
   26MOL   C14111691   7.337   3.228   1.750 -0.1179  0.1027 -0.0967
   26MOL   C14211692   7.337   3.157   1.610 -0.3498 -0.3033  0.1520
   26MOL   O14311693   7.386   3.022   1.620 -0.4269 -0.3066  0.1425
   26MOL   C14411694   7.313   2.922   1.663  0.4411 -0.4246 -0.5372
   26MOL   O14511695   7.193   2.927   1.701 -0.0931  0.2481 -0.6062
   26MOL   C14611696   7.397   2.801   1.655 -0.1406  0.4982  0.3573
   26MOL   C14711697   7.464   2.765   1.537 -0.4396 -0.7190  0.2581
   26MOL   C14811698   7.542   2.650   1.525 -0.2246  0.3124  0.8105
   26MOL   C14911699   7.544   2.559   1.634 -0.0710  0.2868  0.1748
   26MOL   C15011700   7.622   2.429   1.629 -0.7083 -0.2257  0.1390
   26MOL   O15111701   7.616   2.332   1.711  0.1387  0.2070 -0.4266
   26MOL   O15211702   7.702   2.421   1.518  0.3342 -0.0142  0.3403
   26MOL   C15311703   7.466   2.586   1.753 -0.6846 -0.1928  0.4322
   26MOL   C15411704   7.394   2.706   1.762 -0.3534  0.1708  0.8781
   26MOL   H15511705   7.370   3.332   1.746 -0.6956  0.2936 -0.0035
   26MOL   H15611706   7.402   3.178   1.821  0.8506  0.4730 -0.7152
   26MOL   H15711707   7.401   3.214   1.543  0.2438  0.4953  1.3739
   26MOL   H15811708   7.238   3.170   1.565 -0.2473  0.1553  0.0562
   26MOL   H15911709   7.456   2.821   1.444 -0.6878 -0.1401  0.6274
   26MOL   H16011710   7.601   2.624   1.439  0.0044 -1.7211  1.5463
   26MOL   H16111711   7.465   2.508   1.828 -0.2468  0.5965  1.2554
   26MOL   H16211712   7.330   2.728   1.846  0.6301  2.3464  1.0801
   26MOL   O16311713   7.797   2.304   1.506 -0.2906 -0.6388 -0.3787
   26MOL   C16411714   7.918   2.347   1.561 -0.4830  0.3769  0.5920
   26MOL   C16511715   7.959   2.282   1.694 -0.8675 -0.1213 -0.2732
   26MOL   O16611716   8.095   2.333   1.723  0.5902 -0.1465 -0.0080
   26MOL   C16711717   8.197   2.249   1.710 -0.0486  0.1904  0.7203
   26MOL   O16811718   8.190   2.130   1.676 -0.0734  0.1606 -0.7583
   26MOL   C16911719   0.043   2.320   1.741  0.9293  0.2120 -0.0078
   26MOL   C17011720   0.163   2.243   1.739 -0.5550 -0.1669  0.3459
   26MOL   C17111721   0.286   2.304   1.778  0.4508  0.2115  0.2158
   26MOL   C17211722   0.290   2.440   1.817  0.6779  0.0424  0.1005
   26MOL   C17311723   0.414   2.508   1.867 -0.0526  0.0459  0.3792
   26MOL   O17411724   0.407   2.622   1.919  0.7570  0.5106 -0.4172
   26MOL   O17511725   0.531   2.433   1.864 -0.0988  0.3212  0.2121
   26MOL   C17611726   0.171   2.510   1.824  0.1788 -0.6031  0.1791
   26MOL   C17711727   0.045   2.453   1.789  0.3945  0.8338 -0.3094
   26MOL   H17811728   7.999   2.315   1.496 -1.4520 -1.2909  0.1575
   26MOL   H17911729   7.913   2.455   1.570  0.3982  0.6240 -1.5977
   26MOL   H18011730   7.951   2.174   1.682 -0.6613 -0.2347  0.5923
   26MOL   H18111731   7.891   2.299   1.777 -0.7117 -1.1596  0.0713
   26MOL   H18211732   0.168   2.145   1.695  3.7037 -0.6176  1.6415
   26MOL   H18311733   0.380   2.252   1.786  0.0825 -0.4513  0.1983
   26MOL   H18411734   0.172   2.612   1.858  1.1536 -0.4484 -0.3146
   26MOL   H18511735   8.234   2.513   1.812 -1.1936 -1.4444 -0.1893
   26MOL   O18611736   0.648   2.489   1.942  0.0667 -0.2869 -0.1883
   26MOL   C18711737   0.719   2.556   1.835 -0.7878  0.3069 -0.5635
   26MOL   C18811738   0.825   2.643   1.896 -0.2995 -0.0556 -0.6526
   26MOL   O18911739   0.770   2.750   1.969  0.1968 -0.3259 -0.5547
   26MOL   C19011740   0.838   2.860   1.987 -0.1103  0.0334 -0.3362
   26MOL   O19111741   0.940   2.886   1.921  0.7822  0.4408  0.1155
   26MOL   C19211742   0.770   2.954   2.087 -0.6863 -0.1481  0.7979
   26MOL   C19311743   0.815   3.091   2.102  0.3574  0.8121  0.2996
   26MOL   C19411744   0.744   3.179   2.193  0.1966  0.6152 -0.3011
   26MOL   C19511745   0.631   3.135   2.269 -0.0640 -0.0986  0.8114
   26MOL   C19611746   0.567   3.227   2.371  0.0286  0.4146  0.7683
   26MOL   O19711747   0.598   3.345   2.397 -0.0949  0.3279  0.4830
   26MOL   O19811748   0.453   3.172   2.425 -0.3021  0.3804 -0.3431
   26MOL   C19911749   0.586   3.009   2.239 -0.4875  0.3966 -1.1368
   26MOL   C20011750   0.649   2.920   2.149  0.0884 -0.5146  0.6294
   26MOL   H20111751   0.758   2.483   1.764  1.2350  2.3825 -1.6194
   26MOL   H20211752   0.652   2.617   1.775 -0.6126  1.0908  0.0269
   26MOL   H20311753   0.872   2.680   1.805 -0.3547  2.6814  0.4133
   26MOL   H20411754   0.907   2.591   1.946  1.7089  0.9725 -2.8155
   26MOL   H20511755   0.899   3.129   2.045  1.0058 -0.1661  0.5861
   26MOL   H20611756   0.781   3.280   2.201  2.8179 -0.2828 -0.5282
   26MOL   H20711757   0.493   2.965   2.271 -0.8358  0.2944 -2.2654
   26MOL   H20811758   0.602   2.825   2.131  0.6987 -0.6790 -0.1398
   26MOL   O20911759   0.374   3.263   2.520  1.0174 -0.6724  0.1610
   26MOL   C21011760   0.379   3.211   2.647 -0.0701  0.4997  0.0578
   26MOL   C21111761   0.313   3.295   2.759  0.2239 -1.1004  0.8968
   26MOL   O21211762   0.315   3.202   2.870  0.0819  0.5422 -0.5530
   26MOL   C21311763   0.389   3.233   2.974 -0.1346  0.1023 -0.4050
   26MOL   O21411764   0.464   3.328   2.977 -0.2411 -0.1007 -0.1650
   26MOL   C21511765   0.360   3.143   3.093  0.5270 -1.1510 -0.4509
   26MOL   C21611766   0.439   3.155   3.210  0.5263 -0.0063 -0.5018
   26MOL   C21711767   0.414   3.065   3.315  0.0108 -0.5043 -0.1455
   26MOL   C21811768   0.303   2.979   3.315  1.0643  0.1246 -0.9153
   26MOL   C21911769   0.260   2.891   3.431 -0.6379 -0.4226 -0.2673
   26MOL   O22011770   0.150   2.850   3.460 -0.4243 -0.4703  0.5010
   26MOL   O22111771   0.377   2.875   3.507 -0.1987  0.0850  0.0802
   26MOL   C22211772   0.226   2.967   3.195 -0.2277 -1.0035  0.6183
   26MOL   C22311773   0.263   3.042   3.082 -0.2578 -0.2809  0.3471
   26MOL   H22411774   0.337   3.111   2.639  0.1566  0.3159  1.1121
   26MOL   H22511775   0.486   3.203   2.667 -0.1442  0.0928  0.2961
   26MOL   H22611776   0.215   3.329   2.724  1.0372 -1.1046 -1.5063
   26MOL   H22711777   0.371   3.386   2.771  0.7376 -1.2041 -0.6574
   26MOL   H22811778   0.504   3.240   3.227  2.4470 -1.2236 -1.5171
   26MOL   H22911779   0.470   3.057   3.407 -0.4236 -0.0825  0.1594
   26MOL   H23011780   0.141   2.903   3.178 -0.4971 -0.1074 -1.5376
   26MOL   H23111781   0.216   3.031   2.986 -0.0094 -0.7258  0.2736
   26MOL   O23211782   0.351   2.811   3.640  0.3482  0.5944  0.4493
   26MOL   C23311783   0.386   2.894   3.749 -0.3388  0.1053  0.5707
   26MOL   C23411784   0.544   2.886   3.762  0.7019 -0.1278 -0.1662
   26MOL   O23511785   0.591   3.002   3.698 -0.2730 -0.0394  0.3036
   26MOL   C23611786   0.724   3.030   3.711  0.2206  0.4046  0.6141
   26MOL   O23711787   0.796   2.956   3.770 -0.6352  1.0238  0.0027
   26MOL   C23811788   0.763   3.166   3.664  0.0757 -0.4241 -0.9333
   26MOL   C23911789   0.879   3.233   3.706  0.3061  1.1019 -0.6164
   26MOL   C24011790   0.910   3.363   3.664  0.4322 -1.0926  0.0318
   26MOL   C24111791   0.824   3.430   3.574  0.0698 -0.1879 -0.3943
   26MOL   C24211792   0.860   3.568   3.537  0.7368  0.3642 -0.5838
   26MOL   O24311793   0.980   3.603   3.530 -0.1686  0.3501  0.1538
   26MOL   O24411794   0.762   3.648   3.488  0.0091  0.0861 -0.0289
   26MOL   C24511795   0.706   3.365   3.529  0.3754  0.2272 -0.6537
   26MOL   C24611796   0.675   3.239   3.577 -0.0089 -0.2898  0.4508
   26MOL   H24711797   0.355   2.993   3.718 -2.6767 -1.0968 -1.0401
   26MOL   H24811798   0.333   2.858   3.837 -0.5808 -1.5235 -0.2177
   26MOL   H24911799   0.575   2.790   3.722 -1.1508 -0.6323 -0.4632
   26MOL   H25011800   0.573   2.888   3.867  0.0588 -1.6845  0.0542
   26MOL   H25111801   0.943   3.188   3.780 -0.3216 -2.4256 -2.1484
   26MOL   H25211802   0.998   3.413   3.701  0.6825 -1.2319 -0.3702
   26MOL   H25311803   0.636   3.428   3.475 -1.3383 -0.8448  0.2595
   26MOL   H25411804   0.584   3.186   3.552  0.1938 -0.9151  1.0058
   26MOL   O25511805   0.798   3.780   3.425  0.4138 -0.3689 -0.0345
   26MOL   C25611806   0.715   3.815   3.317 -0.0648 -0.2164 -0.1173
   26MOL   C25711807   0.728   3.719   3.202  0.1852  0.3952 -0.5447
   26MOL   O25811808   0.603   3.684   3.142 -0.0526  0.5836  0.2078
   26MOL   C25911809   0.518   3.591   3.191 -0.2142 -0.2247  0.5117
   26MOL   O26011810   0.543   3.534   3.297  0.1461  0.6482  0.5508
   26MOL   C26111811   0.394   3.601   3.112 -0.1823  0.3235 -0.7565
   26MOL   C26211812   0.282   3.529   3.159 -0.1421 -0.9909 -0.0505
   26MOL   C26311813   0.166   3.513   3.080 -1.1519  0.5360  0.1460
   26MOL   C26411814   0.159   3.574   2.953 -0.1841  0.1786 -0.2450
   26MOL   C26511815   0.033   3.564   2.875 -0.1732  1.0210  0.4244
   26MOL   O26611816   8.207   3.523   2.935 -0.1320  0.5387 -0.2072
   26MOL   O26711817   0.041   3.622   2.752 -0.5495  0.5209  0.5991
   26MOL   C26811818   0.269   3.648   2.906  0.0976  0.0309 -0.1820
   26MOL   C26911819   0.391   3.665   2.985 -0.5917  0.3050  0.7288
   26MOL   H27011820   0.618   3.800   3.364  1.4608 -2.5071  2.5000
   26MOL   H27111821   0.735   3.917   3.285  0.2362  0.0050  0.7618
   26MOL   H27211822   0.778   3.628   3.236  3.7015  1.7885 -1.7828
   26MOL   H27311823   0.798   3.758   3.128 -0.5586 -0.4824 -1.7230
   26MOL   H27411824   0.279   3.487   3.259  0.0601 -0.1716  0.3009
   26MOL   H27511825   0.077   3.471   3.124 -0.1192 -1.3037  0.5219
   26MOL   H27611826   0.260   3.698   2.811  1.4020 -1.8311 -1.3305
   26MOL   H27711827   0.467   3.733   2.949 -0.2024 -1.5813 -2.1608
   26MOL   O27811828   8.184   3.618   2.686  0.2302 -0.0747  0.5418
   26MOL   C27911829   8.118   3.749   2.701  0.3819  0.8820  0.0871
   26MOL   C28011830   8.174   3.852   2.611  0.3918 -0.1811 -0.5148
   26MOL   O28111831   8.076   3.926   2.533 -0.6921  0.2531 -0.5801
   26MOL   C28211832   8.025   3.868   2.425 -0.5227  0.1637 -0.3474
   26MOL   O28311833   8.079   3.770   2.364 -0.6405  0.0118  0.1780
   26MOL   C28411834   7.908   3.935   2.371  0.5411 -0.4853 -0.0850
   26MOL   C28511835   7.831   3.869   2.275 -0.6066 -0.4100 -0.3886
   26MOL   C28611836   7.731   3.945   2.211  0.2587 -0.2160 -0.5410
   26MOL   C28711837   7.687   4.070   2.258 -0.2484  0.2618  0.7396
   26MOL   C28811838   7.567   4.138   2.199  0.0101  0.4735  0.3127
   26MOL   O28911839   7.495   4.079   2.119 -0.4507  0.1979 -0.3485
   26MOL   O29011840   7.557   4.269   2.226  0.2447 -0.8831 -0.1171
   26MOL   C29111841   7.758   4.129   2.362 -0.8770 -0.2124  0.1981
   26MOL   C29211842   7.868   4.064   2.422 -0.3162 -0.1067 -0.0297
   26MOL   H29311843   8.015   3.728   2.671  0.2322 -0.4275  1.4508
   26MOL   H29411844   8.118   3.776   2.807  1.1143 -0.3032  0.4020
   26MOL   H29511845   8.257   3.809   2.555 -0.5119  1.7896 -3.5025
   26MOL   H29611846   8.230   3.921   2.673  0.2909 -1.2819  0.8363
   26MOL   H29711847   7.857   3.770   2.241 -0.5658 -0.9355  1.1433
   26MOL   H29811848   7.675   3.906   2.126 -0.4872  0.8276 -0.5407
   26MOL   H29911849   7.726   4.222   2.406 -1.5247  0.9621 -2.6233
   26MOL   H30011850   7.932   4.107   2.498 -1.1774 -0.1618  0.7447
   26MOL   O30111851   7.424   4.312   2.165  0.0764 -0.4757 -0.3163
   26MOL   C30211852   7.459   4.382   2.049 -0.2046  0.6371  0.1716
   26MOL   C30311853   7.335   4.468   2.008 -0.5712 -0.0882  1.0485
   26MOL   O30411854   7.347   4.607   2.052  0.3038 -0.8998  0.4026
   26MOL   C30511855   7.448   4.686   2.020 -0.1747 -0.1234  0.3856
   26MOL   O30611856   7.529   4.659   1.929  0.0419  0.1760  0.4296
   26MOL   C30711857   7.456   4.816   2.102  1.0658 -0.3323 -0.6777
   26MOL   C30811858   7.552   4.909   2.076 -0.0907 -0.2489  0.1891
   26MOL   C30911859   7.542   5.033   2.147 -0.1764  0.2417  0.3237
   26MOL   C31011860   7.447   5.055   2.243  0.7167 -0.4322 -0.6510
   26MOL   C31111861   7.452   5.183   2.326  0.2153 -0.9143  0.7143
   26MOL   O31211862   7.369   5.215   2.412 -0.2092 -0.0243  0.6491
   26MOL   O31311863   7.561   5.259   2.290  0.9930 -0.1659  0.0788
   26MOL   C31411864   7.354   4.959   2.267 -0.7490  0.0757  0.1199
   26MOL   C31511865   7.354   4.837   2.200 -0.2532  0.8888  0.4686
   26MOL   H31611866   7.552   4.438   2.057 -0.4547  1.0131  0.4663
   26MOL   H31711867   7.482   4.307   1.973 -0.4629  1.0626 -0.3376
   26MOL   H31811868   7.250   4.409   2.042 -1.0950  0.6299  0.9937
   26MOL   H31911869   7.330   4.483   1.901 -1.2484 -2.4506  0.7165
   26MOL   H32011870   7.627   4.892   1.999 -0.3815 -1.7165  0.2131
   26MOL   H32111871   7.626   5.099   2.128  1.8105 -2.2251  0.2250
   26MOL   H32211872   7.278   4.968   2.344 -2.8945 -0.7957 -1.8264
   26MOL   H32311873   7.284   4.759   2.225 -0.0656 -0.1250 -2.0086
   26MOL   O32411874   7.578   5.399   2.353 -0.0755 -0.2072 -0.1451
   26MOL   C32511875   7.527   5.486   2.264  0.0218  0.4858 -0.2917
   26MOL   C32611876   7.617   5.479   2.137 -0.2662  0.3600 -0.0553
   26MOL   O32711877   7.601   5.594   2.056 -0.2584 -0.5391  0.4561
   26MOL   C32811878   7.703   5.676   2.031  0.5375 -0.3623 -0.2413
   26MOL   O32911879   7.825   5.661   2.050  0.0615  0.1844 -0.5479
   26MOL   C33011880   7.652   5.803   1.970 -0.1781  0.3641  0.2365
   26MOL   C33111881   7.732   5.917   1.989  0.7216 -0.1169  0.0754
   26MOL   C33211882   7.702   6.041   1.924 -0.3520 -0.0814  0.1515
   26MOL   C33311883   7.584   6.051   1.845 -0.2232 -0.2112 -0.4693
   26MOL   C33411884   7.559   6.177   1.770 -0.7935  0.2214 -0.3645
   26MOL   O33511885   7.605   6.290   1.806  0.4167  0.3910  0.5581
   26MOL   O33611886   7.488   6.159   1.656 -0.2559 -0.2314 -0.6187
   26MOL   C33711887   7.500   5.936   1.838 -0.4702  0.4228 -0.4500
   26MOL   C33811888   7.527   5.809   1.898 -0.5237 -0.4301  0.2012
   26MOL   H33911889   7.426   5.461   2.234 -0.9411  2.1678  1.4306
   26MOL   H34011890   7.528   5.584   2.312 -0.0708 -0.1543  1.0625
   26MOL   H34111891   7.586   5.390   2.084  0.3588 -0.6214  1.2041
   26MOL   H34211892   7.719   5.462   2.170 -0.0038 -0.4971 -1.2915
   26MOL   H34311893   7.809   5.915   2.064  1.8468  2.1528 -0.9817
   26MOL   H34411894   7.753   6.133   1.948  0.2503 -0.0727 -1.1133
   26MOL   H34511895   7.407   5.951   1.784 -0.9282  0.2697  0.2845
   26MOL   H34611896   7.462   5.724   1.880  1.0399 -1.3756 -1.1982
   26MOL   O34711897   7.429   6.286   1.598 -0.1254  0.1385 -0.0751
   26MOL   C34811898   7.510   6.334   1.495  0.0863 -0.0028  0.4515
   26MOL   C34911899   7.461   6.472   1.435 -0.7252  0.0083 -0.2105
   26MOL   O35011900   7.357   6.447   1.338  0.3210  0.3949 -0.5429
   26MOL   C35111901   7.384   6.407   1.209 -0.0733 -0.4995  0.1279
   26MOL   O35211902   7.499   6.403   1.164 -0.0288 -0.0354 -0.2161
   26MOL   C35311903   7.267   6.386   1.127  0.3641 -0.3965  0.1161
   26MOL   C35411904   7.290   6.351   0.990  0.0433  0.0436 -0.3481
   26MOL   C35511905   7.181   6.322   0.913 -0.2791 -0.1146 -0.1955
   26MOL   C35611906   7.052   6.341   0.957 -0.6028 -0.0304 -0.7185
   26MOL   C35711907   6.935   6.343   0.859 -0.0498 -0.0699 -0.3591
   26MOL   O35811908   6.823   6.387   0.884  0.0245 -0.4363 -0.4720
   26MOL   O35911909   6.968   6.278   0.750  1.0186 -0.0050  0.5079
   26MOL   C36011910   7.024   6.364   1.096  0.0790 -0.7019  0.3795
   26MOL   C36111911   7.136   6.385   1.180 -0.1932  1.1371  0.8753
   26MOL   H36211912   7.611   6.340   1.536  0.0268  1.4591  0.4166
   26MOL   H36311913   7.514   6.259   1.417 -1.6311  0.2145  0.1494
   26MOL   H36411914   7.542   6.509   1.373 -0.1493  0.7107  0.9502
   26MOL   H36511915   7.441   6.543   1.515  0.1236 -2.0449  1.8670
   26MOL   H36611916   7.392   6.337   0.956 -0.0314  0.0172 -0.5618
   26MOL   H36711917   7.204   6.289   0.812 -1.6275 -1.1370 -0.1824
   26MOL   H36811918   6.921   6.366   1.128 -0.2130  1.4234 -0.5767
   26MOL   H36911919   7.128   6.391   1.287  0.2781 -2.1234  1.1461
   26MOL   O37011920   6.863   6.267   0.651  0.8769 -0.1944  0.1919
   26MOL   C37111921   6.787   6.149   0.670  0.4777  0.1522  0.7210
   26MOL   C37211922   6.693   6.141   0.553 -0.2809  0.7545  0.1316
   26MOL   O37311923   6.581   6.231   0.561 -0.1988 -0.0288  0.6206
   26MOL   C37411924   6.466   6.200   0.626  0.0021  0.2042 -0.1124
   26MOL   O37511925   6.449   6.106   0.707 -0.5265 -0.2839  0.7153
   26MOL   C37611926   6.357   6.291   0.573  0.1086  0.5954 -0.2258
   26MOL   C37711927   6.367   6.350   0.444  0.2465  0.2078 -0.1940
   26MOL   C37811928   6.270   6.425   0.393  0.5200  0.3622  0.7260
   26MOL   C37911929   6.157   6.458   0.475 -0.1963  0.3563 -0.1463
   26MOL   C38011930   6.052   6.559   0.435 -0.8747 -0.9710 -0.5184
   26MOL   O38111931   5.969   6.606   0.515 -0.5610  0.8453 -0.1466
   26MOL   O38211932   6.081   6.608   0.308  0.3665  0.0074  0.2459
   26MOL   C38311933   6.142   6.395   0.598  0.6722 -0.0868 -0.6463
   26MOL   C38411934   6.241   6.313   0.647  0.1503  0.3935 -0.8866
   26MOL   H38511935   6.866   6.075   0.659 -0.4794 -1.0532  1.8728
   26MOL   H38611936   6.731   6.150   0.763 -1.8342 -0.2922 -0.6389
   26MOL   H38711937   6.652   6.040   0.552  1.2244  0.1293 -0.1710
   26MOL   H38811938   6.752   6.154   0.463 -1.4296 -2.1598 -1.1014
   26MOL   H38911939   6.455   6.323   0.387  1.6527  0.2411  1.8688
   26MOL   H39011940   6.274   6.463   0.292 -0.5674 -0.7859  0.2322
   26MOL   H39111941   6.067   6.432   0.666  1.8260  2.5648 -0.7259
   26MOL   H39211942   6.224   6.281   0.749 -0.3785 -0.3909 -1.2153
   26MOL   O39311943   6.006   6.736   0.266  0.1536 -0.5132 -0.1743
   26MOL   C39411944   5.889   6.701   0.194  0.2968 -0.1130 -0.4614
   26MOL   C39511945   5.926   6.614   0.074  0.7582  0.0296  0.2368
   26MOL   O39611946   6.027   6.671   8.256 -0.4475  0.5413 -0.7819
   26MOL   C39711947   6.049   6.603   8.145  0.6323 -0.1229 -0.6545
   26MOL   O39811948   5.965   6.526   8.099 -0.4376 -0.2205 -0.9223
   26MOL   C39911949   6.193   6.620   8.100 -0.0632 -0.2451 -0.0817
   26MOL   C40011950   6.231   6.573   7.976  0.4920  0.7046  0.8860
   26MOL   C40111951   6.356   6.593   7.917  0.1057  0.0424 -0.5740
   26MOL   C40211952   6.457   6.653   7.995 -0.4970 -0.4148 -0.1674
   26MOL   C40311953   6.594   6.675   7.947 -0.1305 -0.3125  0.5856
   26MOL   O40411954   6.677   6.755   7.997  0.4847 -0.8347  0.4356
   26MOL   O40511955   6.629   6.600   7.831  0.4458  0.5894 -0.5663
   26MOL   C40611956   6.425   6.715   8.113  0.1177 -0.2703  1.1447
   26MOL   C40711957   6.288   6.702   8.163  0.5391  0.3004 -0.2234
   26MOL   H40811958   5.818   6.647   0.258 -0.4097  0.1372 -1.0236
   26MOL   H40911959   5.838   6.792   0.163  1.1330  0.1989 -0.9163
   26MOL   H41011960   5.836   6.595   0.015  1.0159  0.9399 -0.4546
   26MOL   H41111961   5.965   6.518   0.106  0.2135  0.3048  1.7647
   26MOL   H41211962   6.155   6.522   7.918  2.2813 -2.7810  1.4076
   26MOL   H41311963   6.369   6.541   7.823 -2.0466 -2.3733  0.4002
   26MOL   H41411964   6.492   6.778   8.170  0.0553 -0.4442  1.4127
   26MOL   H41511965   6.272   6.759   8.254 -1.3020 -1.0041  0.2996
   26MOL   O41611966   6.762   6.634   7.782 -0.0744  0.1938  0.3989
   26MOL   C41711967   6.757   6.684   7.652  0.1450 -0.1275  0.0225
   26MOL   C41811968   6.700   6.579   7.558  0.1494 -0.2840  0.0207
   26MOL   O41911969   6.760   6.453   7.582 -0.1927 -1.1566 -0.1697
   26MOL   C42011970   6.889   6.430   7.545  0.5661 -0.2832  0.1230
   26MOL   O42111971   6.959   6.518   7.493  0.1464 -0.5233  0.5761
   26MOL   C42211972   6.928   6.288   7.561  0.2182  0.8849  0.1273
   26MOL   C42311973   6.844   6.178   7.531 -0.2170  0.0534  0.0962
   26MOL   C42411974   6.895   6.048   7.547  0.4433  0.2636  1.0886
   26MOL   C42511975   7.027   6.018   7.580 -0.1228  0.1520  0.5775
   26MOL   C42611976   7.070   5.882   7.605 -0.8776 -0.0029 -0.4160
   26MOL   O42711977   7.186   5.849   7.645 -0.2753  0.2555 -0.1387
   26MOL   O42811978   6.974   5.785   7.571  0.6261 -0.1893 -0.1564
   26MOL   C42911979   7.107   6.128   7.602 -0.3326  0.3036 -0.5275
   26MOL   C43011980   7.059   6.261   7.601 -0.8180 -0.3477 -0.0274
   26MOL   H43111981   6.697   6.774   7.635 -1.4830 -1.3989 -1.0963
   26MOL   H43211982   6.860   6.705   7.622 -0.1321  0.4894 -0.5097
   26MOL   H43311983   6.711   6.613   7.455  2.9115 -0.7156  0.1420
   26MOL   H43411984   6.593   6.569   7.576 -0.0952  0.7465 -0.7589
   26MOL   H43511985   6.744   6.203   7.500 -0.3603  0.7208  1.0756
   26MOL   H43611986   6.816   5.977   7.528 -0.4220  1.3521  0.5555
   26MOL   H43711987   7.210   6.110   7.628 -0.3324  1.2984  0.2025
   26MOL   H43811988   7.135   6.334   7.625  0.4499 -2.1211  1.5120
   26MOL   O43911989   7.028   5.651   7.541  1.1592  0.3012 -0.0450
   26MOL   C44011990   7.024   5.647   7.397 -0.0703  0.1011  0.3927
   26MOL   C44111991   7.065   5.507   7.349  0.2028 -0.3570 -0.0947
   26MOL   O44211992   7.205   5.490   7.374  0.1775 -0.1317  0.2362
   26MOL   C44311993   7.293   5.533   7.272  0.3571  0.0850 -0.5465
   26MOL   O44411994   7.249   5.608   7.184  0.0156  0.1450  0.4247
   26MOL   C44511995   7.435   5.483   7.284  0.0173  0.1041 -0.2613
   26MOL   C44611996   7.469   5.387   7.380 -0.2073  0.2875 -0.1897
   26MOL   C44711997   7.603   5.349   7.391  0.2667  0.0968  0.1988
   26MOL   C44811998   7.693   5.411   7.303 -0.3656  0.3597 -0.1291
   26MOL   C44911999   7.836   5.363   7.310  0.0522  0.8460  0.3647
   26MOL   O45012000   7.871   5.291   7.403 -0.0607  0.6012  0.6612
   26MOL   O45112001   7.914   5.396   7.204 -0.2243  0.0957  0.3779
   26MOL   C45212002   7.658   5.512   7.211 -0.0949  0.5972 -0.6112
   26MOL   C45312003   7.526   5.556   7.205  0.3648 -0.3401  0.2878
   26MOL   H45412004   6.920   5.671   7.373 -0.7627 -0.9218  2.2829
   26MOL   H45512005   7.087   5.732   7.368  0.1700 -0.1107  0.2967
   26MOL   H45612006   7.038   5.488   7.245 -4.4597  2.2324  0.5185
   26MOL   H45712007   7.000   5.432   7.395 -1.8504  1.7894  0.5785
   26MOL   H45812008   7.390   5.344   7.440  0.5276  0.1417  0.6801
   26MOL   H45912009   7.641   5.273   7.456  2.1624 -0.5728 -1.6478
   26MOL   H46012010   7.722   5.555   7.135 -0.0241  0.6119 -0.5431
   26MOL   H46112011   7.505   5.619   7.120 -1.9287 -0.7590  0.4954
   26MOL   H46212012   7.999   5.354   7.200 -0.3742 -0.2753  1.0687
   27MOL     O112013   6.732   7.648   7.676 -0.1182  0.4000  0.3400
   27MOL     C212014   6.872   7.652   7.671 -0.0745 -0.1824  0.0825
   27MOL     C312015   6.924   7.660   7.815  0.3718  0.5980 -0.6342
   27MOL     O412016   6.891   7.796   7.851  0.1432  0.3286  0.6958
   27MOL     C512017   6.979   7.898   7.829 -0.1113  0.1217 -0.3854
   27MOL     O612018   7.087   7.880   7.771 -0.3199 -0.0693 -0.0048
   27MOL     C712019   6.927   8.032   7.857 -0.1328 -0.7204  0.1474
   27MOL     C812020   6.847   8.064   7.968  0.1936 -0.2068 -0.2821
   27MOL     C912021   6.806   8.199   7.989  0.4638  0.0443 -0.6075
   27MOL    C1012022   6.840   0.022   7.899 -0.3592 -0.9072  0.2820
   27MOL    C1112023   6.798   0.165   7.913 -0.1224  0.1789  0.0696
   27MOL    O1212024   6.848   0.258   7.850 -0.1901 -0.3060 -0.1203
   27MOL    O1312025   6.706   0.183   8.006 -0.4194  0.8054  0.3935
   27MOL    C1412026   6.917   8.266   7.782  0.4345  0.5642  0.3115
   27MOL    C1512027   6.962   8.133   7.764  0.2619 -0.9124  0.0740
   27MOL    H1612028   6.903   7.563   7.616 -2.5836 -1.0254 -0.0146
   27MOL    H1712029   6.915   7.736   7.615  1.0003  1.7039  3.6117
   27MOL    H1812030   7.032   7.646   7.808  0.3083  0.0745 -0.5801
   27MOL    H1912031   6.886   7.581   7.880  2.1217 -0.8038 -1.2617
   27MOL    H2012032   6.819   7.990   8.041 -0.7829 -0.1385 -0.5814
   27MOL    H2112033   6.747   8.221   8.077 -0.1416 -0.4266 -0.8911
   27MOL    H2212034   6.937   0.066   7.708 -0.5356  0.2266 -0.3072
   27MOL    H2312035   7.014   8.104   7.674 -0.9135  1.3069 -1.3553
   27MOL    H2412036   6.703   7.706   7.745 -0.4172 -1.4142  1.7781
   27MOL    O2512037   6.661   0.330   8.026  0.5848  0.1238 -0.1471
   27MOL    C2612038   6.720   0.385   8.146  0.1595  0.2066 -0.1108
   27MOL    C2712039   6.691   0.313   0.008  0.4695  0.1967  0.3131
   27MOL    O2812040   6.550   0.281   0.006  1.2371 -0.3551 -0.8604
   27MOL    C2912041   6.508   0.161   0.022 -0.4872 -0.2779  0.2523
   27MOL    O3012042   6.584   0.065   0.037  0.0695  0.4357 -0.5490
   27MOL    C3112043   6.365   0.152   0.021  0.3144  0.5161  0.0332
   27MOL    C3212044   6.279   0.241   8.234  0.0886  0.0501  0.7823
   27MOL    C3312045   6.141   0.224   8.239 -0.0424 -0.7933  0.7226
   27MOL    C3412046   6.086   0.115   0.031  0.0537  0.1064 -0.4061
   27MOL    C3512047   5.947   0.101   0.033 -0.3847 -0.1583 -0.1875
   27MOL    O3612048   5.867   0.178   8.262 -0.7506 -0.1007 -0.0200
   27MOL    O3712049   5.908   8.259   0.081  0.0862 -0.0448  0.1845
   27MOL    C3812050   6.172   0.032   0.097 -0.1607  0.6165 -0.3948
   27MOL    C3912051   6.313   0.049   0.095 -0.2988  0.0353  0.2738
   27MOL    H4012052   6.828   0.390   8.139  0.3591 -3.1624 -0.2559
   27MOL    H4112053   6.696   0.491   8.156  0.3262  0.4868 -2.3005
   27MOL    H4212054   6.712   0.393   0.080  1.3775 -2.8968  3.6093
   27MOL    H4312055   6.759   0.231   0.027 -1.4708 -1.0271  2.1700
   27MOL    H4412056   6.316   0.327   8.179  0.1184  0.0496  0.8015
   27MOL    H4512057   6.085   0.293   8.177  0.6400 -1.9080 -1.1756
   27MOL    H4612058   6.138   8.216   0.144 -0.1712 -0.0571 -1.6921
   27MOL    H4712059   6.367   8.251   0.153  0.3031  0.4551  0.2512
   27MOL    O4812060   5.765   8.247   0.106 -0.3047  0.5061 -0.6700
   27MOL    C4912061   5.701   8.141   0.024 -1.2292 -0.4213 -0.7209
   27MOL    C5012062   5.578   8.215   8.244  0.0104 -0.1021 -0.0874
   27MOL    O5112063   5.611   0.056   8.166  0.7552 -0.1152  0.6473
   27MOL    C5212064   5.643   0.040   8.040  0.2642  0.2458 -0.1942
   27MOL    O5312065   5.627   8.209   7.983 -0.1508 -0.0395  0.4916
   27MOL    C5412066   5.692   0.160   7.964  0.1992  0.9320  0.7761
   27MOL    C5512067   5.699   0.287   8.019 -0.4024  0.2241  0.0163
   27MOL    C5612068   5.739   0.406   7.948  0.0780  0.6297  0.9049
   27MOL    C5712069   5.774   0.392   7.809  0.2366 -0.5314  0.2595
   27MOL    C5812070   5.829   0.510   7.722  0.2453  0.6269 -0.0698
   27MOL    O5912071   5.856   0.492   7.605  0.0142  0.0589 -0.0429
   27MOL    O6012072   5.829   0.624   7.784 -0.0299  0.1945 -0.3498
   27MOL    C6112073   5.768   0.265   7.747  0.1800 -0.0669 -0.0430
   27MOL    C6212074   5.723   0.150   7.825 -0.0229 -0.5900  0.0139
   27MOL    H6312075   5.759   8.102   8.217 -0.2256 -0.8383  0.1748
   27MOL    H6412076   5.676   8.056   0.088 -0.4014 -1.7883 -2.1766
   27MOL    H6512077   5.520   8.251   0.053  2.3782  1.2821  0.9871
   27MOL    H6612078   5.525   8.146   8.178  1.2660 -0.0715 -1.1528
   27MOL    H6712079   5.679   0.292   8.125 -0.5715  0.4650 -0.0271
   27MOL    H6812080   5.750   0.503   7.995  0.6495  0.3137  1.4311
   27MOL    H6912081   5.803   0.262   7.645 -0.9026  0.1869 -0.4351
   27MOL    H7012082   5.728   0.052   7.780  2.0076 -0.2698 -0.4889
   27MOL    O7112083   5.877   0.736   7.693 -0.1053  0.5999  0.1699
   27MOL    C7212084   5.936   0.836   7.767  0.0016 -0.1431 -0.1587
   27MOL    C7312085   5.822   0.911   7.849 -0.0689  1.2720  0.0066
   27MOL    O7412086   5.743   0.998   7.764  0.3851  0.4363 -1.1080
   27MOL    C7512087   5.782   1.123   7.757  0.1737 -0.0444 -0.3641
   27MOL    O7612088   5.890   1.161   7.802  0.6320  0.4727 -0.9418
   27MOL    C7712089   5.678   1.218   7.702 -0.5706  0.1162 -0.2854
   27MOL    C7812090   5.583   1.154   7.618  0.4060 -0.2547 -0.2378
   27MOL    C7912091   5.498   1.244   7.551  0.3077 -0.7065 -0.2305
   27MOL    C8012092   5.505   1.385   7.571 -0.3013  0.5084 -0.4065
   27MOL    C8112093   5.409   1.469   7.494  0.2528  0.6733 -0.5522
   27MOL    O8212094   5.302   1.423   7.452  0.0915 -0.3044 -0.4089
   27MOL    O8312095   5.458   1.595   7.476  0.4506 -0.5727 -0.0751
   27MOL    C8412096   5.600   1.442   7.656 -0.3181 -0.0298  0.5704
   27MOL    C8512097   5.689   1.355   7.725  1.8129 -0.3662 -0.3389
   27MOL    H8612098   6.018   0.804   7.831  1.4083  1.1319 -1.2962
   27MOL    H8712099   5.986   0.901   7.696 -1.9289 -0.0579 -1.4721
   27MOL    H8812100   5.873   0.968   7.927  0.9711  0.8087 -0.3215
   27MOL    H8912101   5.756   0.840   7.899  1.0545  1.3132  1.6002
   27MOL    H9012102   5.592   1.050   7.592 -0.4164 -0.1670 -0.9183
   27MOL    H9112103   5.433   1.208   7.473 -2.0029  0.3695  1.1353
   27MOL    H9212104   5.607   1.547   7.678  1.0607 -0.2628  1.3193
   27MOL    H9312105   5.766   1.402   7.785 -0.7254  0.5933  2.3244
   27MOL    O9412106   5.364   1.686   7.407  0.2298  0.0737 -0.0510
   27MOL    C9512107   5.285   1.755   7.498 -0.7776 -0.1927 -0.3833
   27MOL    C9612108   5.190   1.860   7.435 -0.1423 -0.0616 -0.0257
   27MOL    O9712109   5.260   1.990   7.437 -0.1272 -0.1947 -0.2612
   27MOL    C9812110   5.338   2.022   7.326 -0.2828  0.9293 -0.2429
   27MOL    O9912111   5.364   1.943   7.238  0.3366  0.0315 -0.1119
   27MOL   C10012112   5.385   2.165   7.328 -0.3399 -0.0572 -0.5448
   27MOL   C10112113   5.478   2.201   7.232 -0.3347  0.1013  0.3927
   27MOL   C10212114   5.517   2.338   7.224  0.2516 -0.0239 -0.7391
   27MOL   C10312115   5.470   2.436   7.316 -0.3137 -0.1398 -0.0877
   27MOL   C10412116   5.520   2.578   7.303 -0.4704  0.0414  0.1421
   27MOL   O10512117   5.590   2.614   7.208  0.0936  0.0132  0.0923
   27MOL   O10612118   5.475   2.660   7.402  0.1829  0.2706 -0.0217
   27MOL   C10712119   5.380   2.399   7.410 -0.5047  0.0667 -0.2234
   27MOL   C10812120   5.341   2.262   7.423  0.3636  0.8344  0.1326
   27MOL   H10912121   5.225   1.678   7.546 -1.6815  0.5486 -0.2980
   27MOL   H11012122   5.349   1.804   7.571  1.4940 -1.7681 -1.2574
   27MOL   H11112123   5.090   1.847   7.476 -0.7470 -1.1864 -1.8053
   27MOL   H11212124   5.182   1.830   7.331  1.5424 -0.4205 -0.0730
   27MOL   H11312125   5.516   2.131   7.159 -0.9571  0.6700 -0.4932
   27MOL   H11412126   5.595   2.362   7.153 -2.3650  0.7900 -3.4137
   27MOL   H11512127   5.333   2.480   7.464 -0.0014  0.8069 -0.8890
   27MOL   H11612128   5.270   2.228   7.496 -0.4168  1.6530 -0.2351
   27MOL   O11712129   5.560   2.791   7.404  0.0227  0.3753  0.1333
   27MOL   C11812130   5.638   2.787   7.521  0.0027  0.3242 -0.4944
   27MOL   C11912131   5.751   2.678   7.513 -0.0568  0.5839 -0.1161
   27MOL   O12012132   5.706   2.560   7.576  0.0594 -0.7459  0.5648
   27MOL   C12112133   5.720   2.544   7.706  0.0664  0.5311 -0.5882
   27MOL   O12212134   5.762   2.635   7.777  0.4531 -0.2278  0.6939
   27MOL   C12312135   5.682   2.407   7.753  0.6337  0.4449  0.4083
   27MOL   C12412136   5.597   2.321   7.677 -0.0131  0.9539 -0.5510
   27MOL   C12512137   5.550   2.198   7.738  0.4517  0.3618 -0.0336
   27MOL   C12612138   5.593   2.163   7.868  0.1610 -0.1859  0.6584
   27MOL   C12712139   5.565   2.027   7.926  0.2847 -0.2457  0.4834
   27MOL   O12812140   5.469   1.966   7.892 -0.3065 -0.2727  0.4926
   27MOL   O12912141   5.658   1.977   8.015 -0.1987  0.4718  0.5739
   27MOL   C13012142   5.677   2.251   7.943  0.1324 -0.1281 -0.2678
   27MOL   C13112143   5.714   2.373   7.885 -0.9784 -0.1747  0.4277
   27MOL   H13212144   5.673   2.889   7.529  1.0532  0.0018 -0.9542
   27MOL   H13312145   5.577   2.770   7.610  2.6810  0.0847  1.3414
   27MOL   H13412146   5.834   2.717   7.571  1.3501 -1.0603 -0.9632
   27MOL   H13512147   5.789   2.663   7.412  0.6429 -0.0513  0.2418
   27MOL   H13612148   5.563   2.356   7.581 -1.1634  0.9368 -0.1530
   27MOL   H13712149   5.484   2.136   7.679 -0.3227  2.8342 -1.8944
   27MOL   H13812150   5.721   2.227   8.038  2.1835  2.0530 -0.6253
   27MOL   H13912151   5.768   2.450   7.937  0.9479 -0.9389 -0.4070
   27MOL   O14012152   5.656   1.823   8.017  0.3581 -0.0324 -0.2618
   27MOL   C14112153   5.767   1.777   7.944 -0.7727 -0.0256  0.0071
   27MOL   C14212154   5.728   1.743   7.804  0.0086  0.7704 -0.6892
   27MOL   O14312155   5.780   1.843   7.720  0.5935 -0.3008 -0.4363
   27MOL   C14412156   5.721   1.883   7.602  0.2614 -1.2144  1.0490
   27MOL   O14512157   5.626   1.829   7.548 -0.4712  0.2130  0.5191
   27MOL   C14612158   5.779   2.010   7.552  0.2154  0.4812 -0.0176
   27MOL   C14712159   5.886   2.076   7.622  0.6428  0.1115 -0.4647
   27MOL   C14812160   5.950   2.195   7.567  0.8313 -0.1834 -0.0069
   27MOL   C14912161   5.892   2.254   7.451  0.1153 -0.0225  0.1732
   27MOL   C15012162   5.940   2.387   7.401  0.6829 -0.5301 -0.2512
   27MOL   O15112163   5.884   2.464   7.325 -0.0703 -0.4268 -0.0404
   27MOL   O15212164   6.058   2.419   7.450 -0.1772  0.6882 -0.5499
   27MOL   C15312165   5.790   2.187   7.384  0.3783  0.2004 -0.3618
   27MOL   C15412166   5.741   2.063   7.427 -0.5110  0.4186  0.0338
   27MOL   H15512167   5.859   1.834   7.952  0.1226 -1.5607  1.0186
   27MOL   H15612168   5.801   1.684   7.991 -0.2356 -0.1702 -0.6521
   27MOL   H15712169   5.619   1.743   7.800 -0.0531 -3.3554 -1.3749
   27MOL   H15812170   5.764   1.646   7.768 -2.2714  0.2317 -1.6658
   27MOL   H15912171   5.929   2.038   7.714 -0.1893  1.3229  0.4285
   27MOL   H16012172   6.032   2.236   7.624  2.4454 -0.3797 -2.1222
   27MOL   H16112173   5.752   2.228   7.291 -1.0269 -0.0630  0.0847
   27MOL   H16212174   5.674   1.999   7.370  2.0778 -1.5794 -0.8579
   27MOL   O16312175   6.091   2.564   7.440  0.0917 -0.1488 -0.0629
   27MOL   C16412176   6.074   2.624   7.570  0.6291  0.0485  0.7008
   27MOL   C16512177   6.196   2.587   7.647 -0.5308 -0.3090 -0.2238
   27MOL   O16612178   6.196   2.461   7.714 -0.0860 -0.4938  0.4387
   27MOL   C16712179   6.126   2.454   7.832  0.3250 -0.8661  1.3051
   27MOL   O16812180   6.067   2.549   7.881 -0.9591  0.3192  0.0582
   27MOL   C16912181   6.122   2.313   7.885 -0.7989  0.1131 -0.6138
   27MOL   C17012182   6.206   2.211   7.837 -0.3029  0.5602  0.0047
   27MOL   C17112183   6.209   2.082   7.898  0.7184 -0.2593 -0.1882
   27MOL   C17212184   6.126   2.055   8.007 -1.0306  0.6986 -0.5677
   27MOL   C17312185   6.124   1.920   8.067 -0.2453 -0.2050 -0.2080
   27MOL   O17412186   6.043   1.879   8.154 -0.2177  0.2972 -0.2795
   27MOL   O17512187   6.215   1.839   8.011  0.5432 -0.3074 -0.4175
   27MOL   C17612188   6.033   2.154   8.040  0.5753 -0.1320 -0.0818
   27MOL   C17712189   6.029   2.283   7.985  0.2395 -0.0876 -0.7490
   27MOL   H17812190   6.069   2.732   7.558 -2.2378 -0.0484  0.5956
   27MOL   H17912191   5.982   2.593   7.621 -0.9330  0.9806 -1.4533
   27MOL   H18012192   6.214   2.663   7.723 -0.4771  1.3106 -1.8435
   27MOL   H18112193   6.282   2.588   7.580 -0.8783 -2.2860 -0.7447
   27MOL   H18212194   6.267   2.230   7.750  1.3753  0.0643  1.0421
   27MOL   H18312195   6.283   2.008   7.871  1.2929  0.0585  0.4930
   27MOL   H18412196   5.961   2.124   8.114 -0.6260 -3.7153 -2.5851
   27MOL   H18512197   5.964   2.361   8.023  2.9618  2.4343 -1.0836
   27MOL   O18612198   6.184   1.695   8.028  0.4843 -0.2483 -0.0339
   27MOL   C18712199   6.143   1.656   7.903 -0.6771 -0.4328  0.0830
   27MOL   C18812200   6.158   1.502   7.891  0.2621 -0.6799 -0.1267
   27MOL   O18912201   6.296   1.460   7.896  0.1731 -1.3853 -0.1014
   27MOL   C19012202   6.349   1.406   7.785  0.0780 -0.3732 -0.2368
   27MOL   O19112203   6.291   1.394   7.679 -0.1628  0.1084 -0.0528
   27MOL   C19212204   6.485   1.360   7.818 -0.5655  0.0394  0.1243
   27MOL   C19312205   6.553   1.402   7.934 -0.2913 -0.0298 -0.3024
   27MOL   C19412206   6.672   1.336   7.971  0.3224  0.2591  0.0225
   27MOL   C19512207   6.736   1.247   7.886  0.3132 -0.0055 -1.0454
   27MOL   C19612208   6.865   1.188   7.926 -0.3303  0.3532  0.0455
   27MOL   O19712209   6.927   1.113   7.851 -0.1819 -0.2860  0.0525
   27MOL   O19812210   6.895   1.203   8.061  0.2103  0.2273  0.4844
   27MOL   C19912211   6.679   1.229   7.754 -0.4309 -0.4382  1.0363
   27MOL   C20012212   6.552   1.279   7.720  0.0309 -0.4946  0.9515
   27MOL   H20112213   6.039   1.685   7.885  0.0020  0.8292 -2.1075
   27MOL   H20212214   6.210   1.694   7.825 -1.3317  0.4987 -0.0337
   27MOL   H20312215   6.116   1.473   7.794  1.0613  2.8291 -1.6049
   27MOL   H20412216   6.102   1.459   7.974 -2.1175  0.0470 -1.3068
   27MOL   H20512217   6.506   1.470   8.004 -0.4050 -1.3626  0.9347
   27MOL   H20612218   6.715   1.343   8.070  2.3770  1.4692 -0.9226
   27MOL   H20712219   6.726   1.162   7.683  0.9208 -0.0806  1.5772
   27MOL   H20812220   6.511   1.247   7.626 -2.6189 -1.4820  2.4022
   27MOL   O20912221   7.000   1.100   8.108 -0.3598 -0.1110 -0.0708
   27MOL   C21012222   6.934   1.007   8.184 -0.3437  0.0749 -0.0880
   27MOL   C21112223   7.023   0.882   8.211  0.0906 -0.4836  0.1965
   27MOL   O21212224   7.043   0.814   8.087 -1.0656  0.1852  0.1148
   27MOL   C21312225   6.979   0.701   8.064  0.5686  0.0384  0.2634
   27MOL   O21412226   6.921   0.630   8.146  0.1145  0.2390 -0.3461
   27MOL   C21512227   6.998   0.658   7.920  0.2456 -0.1556  0.1172
   27MOL   C21612228   7.015   0.747   7.813  0.4965 -0.1268 -0.2195
   27MOL   C21712229   7.030   0.697   7.683 -1.2638 -0.3196 -0.0769
   27MOL   C21812230   7.030   0.556   7.657  0.2365  0.3465 -0.5963
   27MOL   C21912231   7.058   0.504   7.515  0.1335  0.0767  0.0832
   27MOL   O22012232   7.112   0.569   7.424  0.0991 -0.0839 -0.2961
   27MOL   O22112233   7.029   0.368   7.496  0.0930 -0.3219 -0.4579
   27MOL   C22212234   7.026   0.466   7.765 -0.0400  0.3872  0.7522
   27MOL   C22312235   7.018   0.520   7.894  0.4252 -0.4699  0.2496
   27MOL   H22412236   6.911   1.056   0.003 -3.1899  1.1878 -1.3058
   27MOL   H22512237   6.846   0.977   8.128  0.1408 -1.5426 -0.0006
   27MOL   H22612238   6.967   0.812   8.273 -1.2083 -0.8474 -1.3345
   27MOL   H22712239   7.115   0.912   8.259 -0.1051 -1.4021  1.1551
   27MOL   H22812240   7.001   0.853   7.828 -0.4205 -0.0360 -1.5706
   27MOL   H22912241   7.037   0.759   7.595  0.8854 -2.5464 -1.5249
   27MOL   H23012242   7.056   0.362   7.759 -2.4305 -0.4794  2.9151
   27MOL   H23112243   7.042   0.456   7.977  2.4469 -0.0525  0.0179
   27MOL   O23212244   7.044   0.319   7.356  0.3667  0.5903 -0.2937
   27MOL   C23312245   6.914   0.315   7.294 -0.9724 -0.6330  0.0098
   27MOL   C23412246   6.827   0.219   7.375 -0.0275 -0.7418  0.3237
   27MOL   O23512247   6.890   0.098   7.427 -0.2846 -0.2671 -0.0147
   27MOL   C23612248   6.898   8.262   7.345  0.8069  0.2123 -0.1342
   27MOL   O23712249   6.832   8.250   7.246 -0.5368 -0.3806  0.0933
   27MOL   C23812250   7.000   8.169   7.394 -0.0410 -0.1659 -0.5506
   27MOL   C23912251   7.122   8.219   7.447 -0.0225 -0.2011 -0.2497
   27MOL   C24012252   7.215   8.131   7.500  0.8102  0.2227 -0.1320
   27MOL   C24112253   7.197   7.989   7.485  0.2706  0.2903  0.6827
   27MOL   C24212254   7.307   7.900   7.532 -0.0339  0.0889 -0.7407
   27MOL   O24312255   7.294   7.779   7.552  0.1457  0.1261 -0.2892
   27MOL   O24412256   7.426   7.956   7.546  0.0438  0.0681  0.0416
   27MOL   C24512257   7.081   7.938   7.431  0.1750  0.0564 -0.0937
   27MOL   C24612258   6.984   8.034   7.377  0.2502  0.9470  0.5798
   27MOL   H24712259   6.870   0.414   7.279 -0.7893 -0.5819 -0.1882
   27MOL   H24812260   6.933   0.271   7.196  1.4010 -1.1447  0.6634
   27MOL   H24912261   6.734   0.203   7.320  0.6183 -0.8651 -0.7519
   27MOL   H25012262   6.798   0.281   7.459 -1.1293 -1.0972  0.2083
   27MOL   H25112263   7.136   0.050   7.454  1.5935 -0.3949 -0.3443
   27MOL   H25212264   7.303   8.165   7.553 -1.5389  0.1335  4.0442
   27MOL   H25312265   7.064   7.832   7.420  1.0178  0.0803 -1.6777
   27MOL   H25412266   6.895   7.999   7.326 -0.2569 -0.7201  2.5759
   27MOL   O25512267   7.534   7.862   7.568 -0.7069 -0.2808  0.4475
   27MOL   C25612268   7.590   7.831   7.442 -0.3006 -0.6992  0.2712
   27MOL   C25712269   7.713   7.755   7.480  0.1461  0.3344  0.3873
   27MOL   O25812270   7.813   7.837   7.539  0.2491  0.2843 -0.0896
   27MOL   C25912271   7.942   7.792   7.545  0.9572  0.5714 -0.0456
   27MOL   O26012272   7.988   7.689   7.488  0.0566 -0.4342 -0.4715
   27MOL   C26112273   8.020   7.883   7.633  0.3683  0.2096  0.7496
   27MOL   C26212274   7.967   7.960   7.740  0.1848 -0.1100 -0.0419
   27MOL   C26312275   8.053   8.026   7.827 -0.3346 -0.1594  0.5587
   27MOL   C26412276   8.193   8.003   7.838  0.7715  0.1279 -0.4240
   27MOL   C26512277   0.009   8.056   7.939 -1.4503  0.5523 -0.2309
   27MOL   O26612278   0.123   8.012   7.967 -0.0473 -0.3034 -0.6944
   27MOL   O26712279   8.237   8.163   8.001 -0.0797 -0.3700 -0.4375
   27MOL   C26812280   8.245   7.928   7.729 -0.4094  0.4574  1.2016
   27MOL   C26912281   8.162   7.878   7.628  0.1501 -1.1975  0.0701
   27MOL   H27012282   7.517   7.775   7.384  0.7529 -1.7055 -0.1125
   27MOL   H27112283   7.608   7.917   7.377  1.1196 -1.5504 -0.4793
   27MOL   H27212284   7.765   7.717   7.393 -1.6119 -2.2758  0.3964
   27MOL   H27312285   7.684   7.663   7.532  0.0563 -0.6410 -1.3627
   27MOL   H27412286   7.862   7.986   7.742  0.1160 -0.2606 -1.1939
   27MOL   H27512287   8.006   8.099   7.891  1.7249  0.6477  1.1699
   27MOL   H27612288   0.075   7.910   7.718 -0.4138  0.5826  0.9455
   27MOL   H27712289   8.209   7.823   7.547  1.9366 -2.3185  1.8207
   27MOL   O27812290   0.064   8.236   8.093  0.2510 -0.0312 -0.1608
   27MOL   C27912291   0.107   0.072   8.022  0.3822 -0.2941 -0.2315
   27MOL   C28012292   0.034   0.201   8.054  0.3140 -0.0138 -0.3860
   27MOL   O28112293   8.171   0.193   8.022 -0.3334  0.2848 -0.1680
   27MOL   C28212294   8.131   0.272   7.918  0.6365 -0.0055 -0.7725
   27MOL   O28312295   8.204   0.352   7.858  0.0557 -0.0292  0.5221
   27MOL   C28412296   7.989   0.233   7.882 -0.3029 -0.0410 -0.1169
   27MOL   C28512297   7.912   0.307   7.789 -0.7122 -0.4093 -0.3372
   27MOL   C28612298   7.777   0.279   7.762 -0.1003 -0.0690  0.1089
   27MOL   C28712299   7.717   0.160   7.809 -0.1034 -0.6190  0.1304
   27MOL   C28812300   7.566   0.139   7.783 -0.9706  0.5579 -0.0402
   27MOL   O28912301   7.511   0.032   7.781  0.0403  0.0276 -0.3949
   27MOL   O29012302   7.513   0.255   7.742  0.6069  0.2197 -0.4586
   27MOL   C29112303   7.801   0.075   7.895 -0.4857 -0.0000 -0.3228
   27MOL   C29212304   7.930   0.117   7.937  0.5044 -0.2908 -1.2018
   27MOL   H29312305   0.212   0.091   8.047  0.1044 -0.4867  1.1228
   27MOL   H29412306   0.110   0.054   7.915  0.4190 -0.6918 -0.1622
   27MOL   H29512307   0.078   0.294   8.018 -0.8821 -0.4675 -3.1605
   27MOL   H29612308   0.043   0.228   8.159 -0.5927 -0.5258 -0.1747
   27MOL   H29712309   7.955   0.392   7.739 -0.9678  0.0271  0.1781
   27MOL   H29812310   7.721   0.343   7.695 -0.2238  0.0103  0.2861
   27MOL   H29912311   7.745   8.272   7.945  0.2412  0.0746  0.6208
   27MOL   H30012312   7.981   0.055   8.009 -1.5616 -1.9857 -1.1333
   27MOL   O30112313   7.365   0.250   7.714  0.0525 -0.2566  0.3081
   27MOL   C30212314   7.345   0.222   7.575 -0.5899  0.0760 -0.0812
   27MOL   C30312315   7.378   0.337   7.485 -0.3609 -0.2291  0.1354
   27MOL   O30412316   7.519   0.339   7.471 -0.2377  0.1262  0.0457
   27MOL   C30512317   7.578   0.457   7.457 -0.0918 -0.2379 -0.8225
   27MOL   O30612318   7.514   0.563   7.462  0.1798  0.4259 -0.0241
   27MOL   C30712319   7.725   0.451   7.432 -0.5050 -0.5119  0.3505
   27MOL   C30812320   7.793   0.574   7.414 -0.5764 -0.0135 -1.1083
   27MOL   C30912321   7.936   0.570   7.400 -0.1710 -0.2803 -0.1931
   27MOL   C31012322   8.010   0.450   7.394  0.1514  0.3063 -0.1862
   27MOL   C31112323   8.164   0.458   7.388  0.6458  0.5899 -0.4140
   27MOL   O31212324   8.233   0.543   7.334 -0.4542 -0.0911 -0.1072
   27MOL   O31312325   8.221   0.367   7.472 -0.6185 -0.2117  0.2131
   27MOL   C31412326   7.939   0.330   7.419  0.0707  0.0816  0.2955
   27MOL   C31512327   7.798   0.330   7.430  0.2644  0.0256  0.0399
   27MOL   H31612328   7.380   0.121   7.557  0.7303 -0.4861  4.9439
   27MOL   H31712329   7.238   0.202   7.576 -0.6978  0.6489  0.1588
   27MOL   H31812330   7.340   0.426   7.534 -2.1575 -0.1509 -1.3764
   27MOL   H31912331   7.319   0.328   7.394 -1.1100 -0.3840  0.6416
   27MOL   H32012332   7.758   0.676   7.420  1.5958  0.7410 -0.7823
   27MOL   H32112333   7.990   0.662   7.388  0.3924 -0.5843 -0.0141
   27MOL   H32212334   7.995   0.238   7.430  1.2841  0.7684 -0.0825
   27MOL   H32312335   7.736   0.246   7.459  0.5863 -0.0514  0.4979
   27MOL   O32412336   0.093   0.393   7.478 -0.1989 -0.2630  0.0039
   27MOL   C32512337   0.104   0.425   7.615 -0.1877 -0.5408 -0.4121
   27MOL   C32612338   0.243   0.479   7.648 -0.7122  0.2190 -0.5199
   27MOL   O32712339   0.261   0.505   7.791  0.2734  0.2011  0.1069
   27MOL   C32812340   0.298   0.409   7.876 -0.1519 -0.3442  0.3363
   27MOL   O32912341   0.325   0.291   7.848 -0.0675  0.0115  0.2754
   27MOL   C33012342   0.307   0.458   8.019  0.2841  0.3397  0.3001
   27MOL   C33112343   0.402   0.407   8.111  0.2648  0.1890 -0.2010
   27MOL   C33212344   0.422   0.464   8.240  0.3755  0.0130  0.2109
   27MOL   C33312345   0.344   0.578   0.003  0.2547  0.1529  0.2192
   27MOL   C33412346   0.364   0.654   0.130 -0.2194  0.0316  0.3265
   27MOL   O33512347   0.300   0.756   0.161 -1.0057 -0.0709  0.2352
   27MOL   O33612348   0.460   0.606   0.211  0.4905  0.1158  0.2829
   27MOL   C33712349   0.248   0.628   8.188 -0.0665 -0.2844  0.9940
   27MOL   C33812350   0.224   0.569   8.062 -0.5879 -0.3465  0.4505
   27MOL   H33912351   0.029   0.499   7.641  0.3506 -0.3366  0.5751
   27MOL   H34012352   0.087   0.338   7.680 -0.7825  0.1269  0.3413
   27MOL   H34112353   0.246   0.574   7.594 -0.5394  0.2529 -0.4519
   27MOL   H34212354   0.331   0.425   7.613 -0.3823 -0.2106  0.9209
   27MOL   H34312355   0.464   0.331   8.064 -0.7530 -0.8602  0.1366
   27MOL   H34412356   0.494   0.419   0.031  0.9406  0.9407  0.2432
   27MOL   H34512357   0.200   0.722   8.214 -0.9012  0.7959 -3.8879
   27MOL   H34612358   0.156   0.623   7.998  1.0942  1.6422  0.2956
   27MOL   O34712359   0.472   0.683   0.339 -0.0718 -0.2337 -0.1781
   27MOL   C34812360   0.427   0.599   0.451  0.6543 -0.2294 -0.4200
   27MOL   C34912361   0.426   0.688   0.574  0.6449  0.6698 -0.0906
   27MOL   O35012362   0.316   0.774   0.567  0.1818 -0.6338 -0.0432
   27MOL   C35112363   0.316   0.893   0.512  0.2401 -0.3072  0.1044
   27MOL   O35212364   0.415   0.948   0.458 -0.4770  0.3986  0.2910
   27MOL   C35312365   0.185   0.962   0.538  0.5915 -0.1755 -0.2573
   27MOL   C35412366   0.206   1.090   0.597 -0.3364 -0.9459 -0.7701
   27MOL   C35512367   0.096   1.169   0.635 -0.0073 -1.6009  1.0445
   27MOL   C35612368   8.238   1.126   0.616  0.5877  0.0909 -0.2397
   27MOL   C35712369   8.128   1.196   0.681  0.5493 -0.3319  0.8973
   27MOL   O35812370   8.143   1.298   0.746  0.0203 -0.2807 -0.3323
   27MOL   O35912371   8.006   1.141   0.664 -0.2699 -0.8310 -0.0571
   27MOL   C36012372   8.219   1.004   0.550  0.2808  0.0705 -0.2863
   27MOL   C36112373   0.052   0.920   0.509  0.7415 -0.4972 -0.4718
   27MOL   H36212374   0.328   0.559   0.428 -1.0821  3.7581 -0.2292
   27MOL   H36312375   0.495   0.516   0.469  0.2669  0.1228  2.9760
   27MOL   H36412376   0.521   0.732   0.604  2.3463 -2.2665 -0.9309
   27MOL   H36512377   0.412   0.619   0.657 -0.8357  1.1419  0.0543
   27MOL   H36612378   0.304   1.123   0.627 -0.5496 -0.2307 -0.8513
   27MOL   H36712379   0.118   1.257   0.693  2.1775 -0.7712 -0.9726
   27MOL   H36812380   8.116   0.982   0.524  0.1242 -0.2639  0.6055
   27MOL   H36912381   0.032   0.827   0.456 -0.8961  0.3748 -1.4357
   27MOL   O37012382   7.896   1.203   0.739  0.6144 -0.6693  0.0595
   27MOL   C37112383   7.816   1.268   0.644  0.1982  0.3667 -0.0750
   27MOL   C37212384   7.735   1.355   0.733 -0.1317 -0.2512 -0.0688
   27MOL   O37312385   7.623   1.284   0.774  0.5251 -0.0559 -0.3426
   27MOL   C37412386   7.535   1.346   0.850  0.0726  0.3991 -0.3967
   27MOL   O37512387   7.542   1.465   0.889 -0.3606  0.2205  0.2120
   27MOL   C37612388   7.439   1.247   0.906  0.6771 -0.4701 -0.1528
   27MOL   C37712389   7.436   1.110   0.873 -0.4764  0.0971  0.0857
   27MOL   C37812390   7.345   1.018   0.934 -0.9418 -0.0971 -0.2930
   27MOL   C37912391   7.260   1.058   1.035  0.1121 -0.6305 -0.6242
   27MOL   C38012392   7.182   0.944   1.104 -0.0673 -0.9366  0.2032
   27MOL   O38112393   7.191   0.827   1.072 -0.5106  0.1809  0.2792
   27MOL   O38212394   7.118   0.982   1.208  0.1351 -0.3839 -0.3594
   27MOL   C38312395   7.273   1.193   1.079 -0.1876  0.1856  0.6275
   27MOL   C38412396   7.353   1.286   1.009  0.1933 -0.5235  0.0834
   27MOL   H38512397   7.878   1.324   0.574 -1.8613  0.5479 -1.7865
   27MOL   H38612398   7.770   1.189   0.585  0.7041 -1.6073  2.1108
   27MOL   H38712399   7.695   1.439   0.677  1.2642  0.4284 -0.0772
   27MOL   H38812400   7.797   1.402   0.810  2.6808 -1.4404 -1.5170
   27MOL   H38912401   7.511   1.063   0.812 -0.4886  0.4448 -0.1939
   27MOL   H39012402   7.370   0.916   0.907  1.7275  0.7283 -1.0310
   27MOL   H39112403   7.232   1.221   1.175  0.5481  0.9643  0.7132
   27MOL   H39212404   7.352   1.391   1.037  1.0974 -0.3936 -0.3495
   27MOL   O39312405   7.087   0.876   1.313  0.1928  0.5095 -0.1489
   27MOL   C39412406   7.157   0.909   1.432  0.2293  0.6187 -0.1073
   27MOL   C39512407   7.129   0.804   1.545  0.5789 -0.4067 -0.5178
   27MOL   O39612408   7.002   0.824   1.596 -0.3202  0.2056 -0.1833
   27MOL   C39712409   6.900   0.743   1.585  0.5998 -0.4879  0.0416
   27MOL   O39812410   6.890   0.644   1.514 -0.1507  0.0432  1.0452
   27MOL   C39912411   6.789   0.780   1.678  0.0395 -0.1368  0.5943
   27MOL   C40012412   6.798   0.895   1.755 -0.2003 -0.4806 -0.0162
   27MOL   C40112413   6.690   0.937   1.838  0.2147 -0.6335  0.7050
   27MOL   C40212414   6.572   0.864   1.837  0.6783 -1.1521 -0.0664
   27MOL   C40312415   6.459   0.914   1.920 -0.4695  0.2319  0.1370
   27MOL   O40412416   6.449   1.025   1.963 -0.2097 -0.4754 -0.2098
   27MOL   O40512417   6.379   0.810   1.964 -1.1046 -0.0708 -0.2566
   27MOL   C40612418   6.558   0.742   1.763 -0.3291 -0.1723 -0.7051
   27MOL   C40712419   6.664   0.706   1.683  0.4146 -0.3831 -0.2064
   27MOL   H40812420   7.263   0.911   1.408 -0.1499  1.9706 -1.7473
   27MOL   H40912421   7.127   1.010   1.461 -1.3252  0.6016 -1.5887
   27MOL   H41012422   7.204   0.822   1.622  0.1242  3.8052 -0.9513
   27MOL   H41112423   7.137   0.704   1.502  1.2039 -1.1025  1.1598
   27MOL   H41212424   6.879   0.967   1.750 -0.0493 -0.5387  1.4180
   27MOL   H41312425   6.692   1.037   1.878 -1.5145  0.5571 -2.0445
   27MOL   H41412426   6.460   0.697   1.759 -0.3747 -0.6156  3.2187
   27MOL   H41512427   6.655   0.621   1.616 -1.3628 -1.8175  1.7868
   27MOL   O41612428   6.304   0.834   2.086 -0.1691  0.1419 -0.0403
   27MOL   C41712429   6.180   0.891   2.051  0.5151 -0.4951  0.4438
   27MOL   C41812430   6.123   0.986   2.158 -0.0538 -0.5125 -0.0040
   27MOL   O41912431   6.204   1.107   2.171  0.1751 -0.0566  0.2839
   27MOL   C42012432   6.159   1.231   2.141 -0.6811  0.7837 -0.2750
   27MOL   O42112433   6.046   1.261   2.099  0.1926 -0.0200  0.3166
   27MOL   C42212434   6.264   1.338   2.173 -0.0920 -0.3556 -1.0255
   27MOL   C42312435   6.218   1.465   2.219  0.4829 -0.0687  0.0519
   27MOL   C42412436   6.314   1.561   2.257 -0.4894 -0.6326  0.3423
   27MOL   C42512437   6.452   1.537   2.248 -0.7459  0.4790 -0.0446
   27MOL   C42612438   6.560   1.635   2.282  0.1970 -0.7649  0.9641
   27MOL   O42712439   6.677   1.608   2.256  0.0658 -0.4264 -0.1492
   27MOL   O42812440   6.514   1.752   2.335 -0.2452  0.0914  0.7005
   27MOL   C42912441   6.486   1.412   2.194 -0.5399 -0.2190  0.6993
   27MOL   C43012442   6.401   1.312   2.155  0.3156  0.2283 -0.3923
   27MOL   H43112443   6.192   0.948   1.959  1.6960 -2.3114 -0.5691
   27MOL   H43212444   6.099   0.820   2.034 -0.2790  0.1638  1.3859
   27MOL   H43312445   6.127   0.942   2.257 -1.0616 -0.2581  0.1548
   27MOL   H43412446   6.019   1.010   2.138 -0.1616 -1.4071 -0.5233
   27MOL   H43512447   6.114   1.493   2.228  0.2787 -0.3521 -1.3353
   27MOL   H43612448   6.280   1.655   2.296 -0.3622  0.6941 -2.6418
   27MOL   H43712449   6.590   1.387   2.200 -0.3447  0.0926 -0.9770
   27MOL   H43812450   6.438   1.215   2.127  2.1248  0.6983  0.3113
   27MOL   O43912451   6.628   1.831   2.400 -0.0097 -0.2340 -0.3975
   27MOL   C44012452   6.664   1.930   2.304  0.2022  0.7825  0.7684
   27MOL   C44112453   6.702   2.047   2.395  0.2946  0.7366  0.3463
   27MOL   O44212454   6.827   2.031   2.457 -0.0247 -0.0535  0.0552
   27MOL   C44312455   6.869   2.114   2.555  0.1270  0.1687  0.3968
   27MOL   O44412456   6.814   2.222   2.591  0.6202 -0.6031  0.1920
   27MOL   C44512457   7.002   2.075   2.610  0.2529  0.1979  0.2237
   27MOL   C44612458   7.071   2.178   2.680 -0.2927 -0.2673 -0.4763
   27MOL   C44712459   7.194   2.149   2.741  0.4132  0.2766  0.3033
   27MOL   C44812460   7.261   2.027   2.717  0.7667  0.6835  0.2900
   27MOL   C44912461   7.398   2.003   2.769 -0.9167  0.2392  0.1248
   27MOL   O45012462   7.468   1.910   2.739 -0.1881  0.0098 -0.1368
   27MOL   O45112463   7.430   2.092   2.864 -0.6792  0.1008  0.0900
   27MOL   C45212464   7.197   1.929   2.638 -0.0413  0.2992 -0.1334
   27MOL   C45312465   7.063   1.951   2.586  0.6242 -0.5390  0.3733
   27MOL   H45412466   6.746   1.902   2.238 -0.5435 -0.2388  0.2649
   27MOL   H45512467   6.577   1.958   2.244  1.1253 -0.2862 -1.1120
   27MOL   H45612468   6.628   2.055   2.475  1.4004  0.7198  1.3857
   27MOL   H45712469   6.699   2.129   2.323  1.7644 -0.4351 -1.0630
   27MOL   H45812470   7.021   2.274   2.683  2.0613  0.9445  0.8720
   27MOL   H45912471   7.253   2.219   2.799  2.7367 -0.6341 -0.8740
   27MOL   H46012472   7.250   1.836   2.621 -2.0709 -0.9053 -0.1062
   27MOL   H46112473   7.006   1.877   2.532 -1.0096  1.9888 -1.5223
   27MOL   H46212474   7.519   2.072   2.890 -0.3460  0.4745 -0.7559
   28MOL     O112475   4.788   2.502   7.501 -0.4288 -0.5400  0.2485
   28MOL     C212476   4.808   2.615   7.583  0.3056  0.4552  0.7348
   28MOL     C312477   4.868   2.714   7.488 -0.1340 -0.4347  0.6928
   28MOL     O412478   4.958   2.792   7.573 -0.1797 -0.1323  0.3686
   28MOL     C512479   5.089   2.805   7.535  0.4138 -0.5713 -1.2747
   28MOL     O612480   5.143   2.769   7.434  0.5227  0.0166 -0.4657
   28MOL     C712481   5.157   2.899   7.627  0.3994 -0.5801  0.5459
   28MOL     C812482   5.096   2.955   7.744  0.2261 -0.1989  0.7169
   28MOL     C912483   5.170   3.041   7.831  0.0788 -0.0323  0.2834
   28MOL    C1012484   5.306   3.063   7.809 -0.7734  1.0799 -0.5413
   28MOL    C1112485   5.383   3.162   7.891 -0.1783  0.3406 -0.6163
   28MOL    O1212486   5.504   3.169   7.870  0.0806 -1.0290 -0.1965
   28MOL    O1312487   5.314   3.242   7.973  0.5381 -0.8740 -0.2817
   28MOL    C1412488   5.367   3.006   7.694 -0.0491  0.1918 -0.5841
   28MOL    C1512489   5.290   2.921   7.605  0.2682 -0.6510 -0.9339
   28MOL    H1612490   4.716   2.658   7.624 -0.2897 -0.2101  0.1210
   28MOL    H1712491   4.874   2.582   7.663 -0.7559 -3.3582  0.1557
   28MOL    H1812492   4.805   2.784   7.433  0.6323  0.0425  0.4034
   28MOL    H1912493   4.929   2.667   7.411 -1.6428 -0.7755 -0.3106
   28MOL    H2012494   4.994   2.925   7.761 -0.1447  1.6176  1.7664
   28MOL    H2112495   5.110   3.075   7.915 -0.3555 -2.2718  0.9209
   28MOL    H2212496   5.474   3.021   7.690 -0.3460  2.6931 -0.0505
   28MOL    H2312497   5.348   2.865   7.533 -0.6437 -3.2526  0.2678
   28MOL    H2412498   4.762   2.532   7.416 -0.7663 -0.9570  0.2040
   28MOL    O2512499   5.406   3.321   8.067 -0.4038  0.3604 -0.4359
   28MOL    C2612500   5.407   3.273   8.203 -0.0508  0.5542  0.2687
   28MOL    C2712501   5.510   3.165   8.232 -0.3269  0.2771 -0.1819
   28MOL    O2812502   5.554   3.151   0.097 -0.1506  0.1631  0.1968
   28MOL    C2912503   5.621   3.250   0.166 -0.1514  0.6522 -0.9352
   28MOL    O3012504   5.686   3.338   0.111 -0.1488 -0.0818 -0.2413
   28MOL    C3112505   5.611   3.247   0.306  0.5466  0.9848 -1.0948
   28MOL    C3212506   5.611   3.364   0.377 -0.1026 -0.2756 -0.3139
   28MOL    C3312507   5.612   3.361   0.521 -0.2328  0.1709 -0.3232
   28MOL    C3412508   5.617   3.238   0.589 -0.1819  0.1570  0.4148
   28MOL    C3512509   5.613   3.223   0.733  0.2945 -0.7623  0.3112
   28MOL    O3612510   5.627   3.113   0.795 -0.2430  0.7869  0.4749
   28MOL    O3712511   5.594   3.340   0.799 -0.5978 -0.0051 -0.2593
   28MOL    C3812512   5.613   3.117   0.512  0.0887  0.6107  0.2914
   28MOL    C3912513   5.613   3.124   0.370  0.1424  0.0064  0.1801
   28MOL    H4012514   5.427   3.364   8.260 -0.4395  0.6293  0.2893
   28MOL    H4112515   5.307   3.247   8.239  0.3830  2.1982  2.8431
   28MOL    H4212516   5.599   3.177   8.171 -0.5304 -1.5146 -0.8802
   28MOL    H4312517   5.466   3.072   8.195 -1.1607  0.3228  0.6868
   28MOL    H4412518   5.617   3.463   0.335 -3.0705  0.0890 -0.0099
   28MOL    H4512519   5.610   3.453   0.577 -0.1012 -1.4241  2.4186
   28MOL    H4612520   5.616   3.019   0.557  0.9752  0.9260  0.9151
   28MOL    H4712521   5.618   3.036   0.308  0.4190 -0.7434  1.2453
   28MOL    O4812522   5.586   3.331   0.947 -0.2569  0.0251 -0.6321
   28MOL    C4912523   5.455   3.369   0.986  0.5842 -0.2342 -0.4042
   28MOL    C5012524   5.454   3.520   1.020  1.0222  0.6155 -0.0068
   28MOL    O5112525   5.455   3.607   0.906  0.8380 -0.0437 -1.1439
   28MOL    C5212526   5.341   3.634   0.845  0.2523 -1.1141  0.2497
   28MOL    O5312527   5.236   3.633   0.902  0.0594  0.1450  0.1818
   28MOL    C5412528   5.361   3.653   0.700  0.6685  0.2675  0.4055
   28MOL    C5512529   5.486   3.674   0.644  0.2949  0.5371  0.4948
   28MOL    C5612530   5.496   3.695   0.505 -0.5345  0.2524 -0.3611
   28MOL    C5712531   5.386   3.681   0.413 -0.0785  0.1580 -0.2266
   28MOL    C5812532   5.402   3.688   0.263  0.3505  0.3021  0.1258
   28MOL    O5912533   5.316   3.680   0.173 -0.3772  0.2358  0.7981
   28MOL    O6012534   5.538   3.712   0.228  1.0002 -0.0840  0.4015
   28MOL    C6112535   5.262   3.661   0.476 -0.5829 -0.6997 -0.3731
   28MOL    C6212536   5.248   3.660   0.614 -0.1834 -0.1731  0.2281
   28MOL    H6312537   5.370   3.338   0.924  0.1467  1.5383 -0.7209
   28MOL    H6412538   5.426   3.310   1.072 -1.1699 -0.2049 -0.9494
   28MOL    H6512539   5.537   3.547   1.085  1.0612 -2.8952  1.5042
   28MOL    H6612540   5.369   3.538   1.086  1.9688 -0.6298  1.5870
   28MOL    H6712541   5.567   3.695   0.713  0.5605 -0.7127  0.5637
   28MOL    H6812542   5.589   3.727   0.460 -0.3052 -0.1087 -0.1532
   28MOL    H6912543   5.166   3.662   0.425 -0.9941 -0.7684  0.3909
   28MOL    H7012544   5.151   3.654   0.661 -1.3427  0.6529 -2.0218
   28MOL    O7112545   5.565   3.739   0.083 -0.4092  0.0634 -0.1457
   28MOL    C7212546   5.624   3.625   0.029 -0.5444  0.5299 -0.0572
   28MOL    C7312547   5.611   3.602   8.154 -0.1195 -0.3000  0.2771
   28MOL    O7412548   5.475   3.591   8.111  0.2090  0.3697  0.2821
   28MOL    C7512549   5.419   3.695   8.047  0.1190  1.0748 -0.5964
   28MOL    O7612550   5.476   3.805   8.031  0.0352  0.2498 -0.1361
   28MOL    C7712551   5.277   3.670   8.009  0.1560 -0.3152  0.2335
   28MOL    C7812552   5.207   3.762   7.925 -0.4940 -0.2033 -0.7630
   28MOL    C7912553   5.066   3.749   7.906  0.2025  0.3840  0.4033
   28MOL    C8012554   4.994   3.636   7.948 -0.1657 -0.2498  0.0595
   28MOL    C8112555   4.843   3.617   7.927 -0.4018 -0.5946  0.2678
   28MOL    O8212556   4.765   3.685   7.861 -0.2789  0.0616  0.1377
   28MOL    O8312557   4.793   3.506   7.989  0.3363 -0.4462  0.0253
   28MOL    C8412558   5.068   3.540   8.026 -0.7266 -0.4995  0.0810
   28MOL    C8512559   5.204   3.558   8.053 -0.6601 -0.3377 -0.3440
   28MOL    H8612560   5.728   3.623   0.064  0.6612  1.5714 -3.3991
   28MOL    H8712561   5.569   3.547   0.082  0.7541 -0.7622 -0.5557
   28MOL    H8812562   5.658   3.503   8.150  0.3461 -0.1958  2.3575
   28MOL    H8912563   5.671   3.675   8.099 -0.8402  0.9597  1.1264
   28MOL    H9012564   5.257   3.852   7.892  1.6948 -0.7581  0.9560
   28MOL    H9112565   5.023   3.836   7.861  0.2441  1.0026  1.5377
   28MOL    H9212566   5.018   3.452   8.064  1.2978 -2.0314 -0.7602
   28MOL    H9312567   5.254   3.487   8.117  2.1174 -0.2270 -2.3079
   28MOL    O9412568   4.645   3.500   7.965 -0.0336  0.5867  0.1272
   28MOL    C9512569   4.580   3.559   8.078 -0.1671 -0.0074 -0.8593
   28MOL    C9612570   4.432   3.565   8.060 -0.1450  0.6255 -0.1662
   28MOL    O9712571   4.366   3.448   8.091  0.4783  0.5024 -0.2438
   28MOL    C9812572   4.231   3.450   8.092 -0.5542 -0.1273 -0.1190
   28MOL    O9912573   4.157   3.546   8.093  0.7886 -0.2744 -0.4252
   28MOL   C10012574   4.175   3.307   8.090 -0.2542  0.4443 -0.8232
   28MOL   C10112575   4.267   3.197   8.096 -0.0079 -0.1068  0.6928
   28MOL   C10212576   4.220   3.064   8.099 -0.6953 -0.7227 -0.1900
   28MOL   C10312577   4.080   3.039   8.096  0.4449  0.3836  0.5446
   28MOL   C10412578   4.026   2.906   8.084 -0.2797 -0.3202  0.0647
   28MOL   O10512579   3.905   2.877   8.095  0.2292 -0.0545 -0.0305
   28MOL   O10612580   4.124   2.818   8.072 -0.0302 -0.0746 -0.2668
   28MOL   C10712581   3.986   3.147   8.086 -0.0265 -0.1873  0.1449
   28MOL   C10812582   4.036   3.277   8.089  0.4382  0.0090 -0.1372
   28MOL   H10912583   4.604   3.519   8.177 -1.5824  0.2356 -0.4144
   28MOL   H11012584   4.625   3.658   8.084  0.3261 -0.2218 -0.9871
   28MOL   H11112585   4.404   3.595   7.959 -0.8403  2.7687  0.6323
   28MOL   H11212586   4.386   3.637   8.128  0.0212 -1.7442  2.5308
   28MOL   H11312587   4.373   3.214   8.108  0.1019 -1.9162  2.4718
   28MOL   H11412588   4.296   2.987   8.100  1.0615  0.9667  0.7509
   28MOL   H11512589   3.882   3.124   8.071 -0.1600 -0.2024  1.0960
   28MOL   H11612590   3.972   3.362   8.075  0.6677  0.2666  0.3726
   28MOL   O11712591   4.095   2.665   8.075 -0.2126 -0.1213 -0.5773
   28MOL   C11812592   4.104   2.617   7.941  0.2079 -0.0339 -0.4672
   28MOL   C11912593   4.252   2.624   7.890 -0.6923 -0.3591  0.1899
   28MOL   O12012594   4.264   2.537   7.781  0.3360  0.0148  0.1269
   28MOL   C12112595   4.384   2.510   7.734  0.1528  0.2254  0.1467
   28MOL   O12212596   4.485   2.553   7.790 -0.7338 -0.2767  0.1440
   28MOL   C12312597   4.375   2.403   7.631 -0.2445 -0.0318 -0.3318
   28MOL   C12412598   4.254   2.327   7.618  0.7598  0.2842  0.0845
   28MOL   C12512599   4.246   2.223   7.522 -0.0034  0.2374  0.4941
   28MOL   C12612600   4.357   2.192   7.439  0.1013  0.2508  0.6043
   28MOL   C12712601   4.359   2.086   7.340  0.4245  0.8460 -0.5332
   28MOL   O12812602   4.447   2.066   7.258  0.0048 -0.5354 -0.0559
   28MOL   O12912603   4.249   2.009   7.339  0.4852  0.1676 -0.0685
   28MOL   C13012604   4.475   2.258   7.462 -0.5872 -0.2903  0.6014
   28MOL   C13112605   4.486   2.364   7.558  0.0627 -0.6992  0.5282
   28MOL   H13212606   4.077   2.515   7.965  1.0787 -0.4489 -1.2011
   28MOL   H13312607   4.026   2.669   7.885 -0.8644 -1.2414 -0.1205
   28MOL   H13412608   4.317   2.590   7.972  1.1767 -0.9605 -1.5001
   28MOL   H13512609   4.275   2.723   7.853 -1.8253  0.1424  0.8154
   28MOL   H13612610   4.162   2.359   7.665 -0.0490 -0.8138 -0.7080
   28MOL   H13712611   4.150   2.174   7.512  0.3218 -0.4903  0.9577
   28MOL   H13812612   4.565   2.236   7.407  0.0894 -1.3015  2.0850
   28MOL   H13912613   4.581   2.416   7.560 -0.6538  0.6769 -0.8792
   28MOL   O14012614   4.239   1.909   7.228  0.0446 -1.0768 -0.2493
   28MOL   C14112615   4.244   1.778   7.272 -0.0291  0.1818  0.5570
   28MOL   C14212616   4.291   1.691   7.158 -0.7401  0.3860 -0.4547
   28MOL   O14312617   4.261   1.552   7.162  0.3480 -0.3276  0.8167
   28MOL   C14412618   4.302   1.469   7.259  0.2329  0.4988 -0.1871
   28MOL   O14512619   4.369   1.498   7.350  0.5393  0.8580  0.5880
   28MOL   C14612620   4.254   1.324   7.240 -0.6526 -0.1746 -0.3205
   28MOL   C14712621   4.278   1.224   7.340 -0.4536 -0.1196 -0.4401
   28MOL   C14812622   4.219   1.098   7.332 -0.3032  0.3996 -0.1283
   28MOL   C14912623   4.138   1.067   7.221 -0.1635 -0.8709  0.0584
   28MOL   C15012624   4.061   0.939   7.218  0.1564  0.2178 -0.1574
   28MOL   O15112625   3.972   0.920   7.133  0.7036 -0.3669  0.2113
   28MOL   O15212626   4.113   0.840   7.297  0.1012 -0.1923  0.2618
   28MOL   C15312627   4.123   1.162   7.117 -0.4968 -0.1184 -0.3454
   28MOL   C15412628   4.180   1.288   7.129  0.0547 -0.1682  0.0994
   28MOL   H15512629   4.324   1.771   7.346  2.8451 -2.7953 -2.6491
   28MOL   H15612630   4.153   1.747   7.324 -1.3322  1.3250 -1.0116
   28MOL   H15712631   4.399   1.709   7.154 -0.9381  1.5224 -0.8473
   28MOL   H15812632   4.268   1.733   7.061 -2.1755 -1.1735 -0.8099
   28MOL   H15912633   4.338   1.263   7.421  0.7802 -1.1942 -0.8370
   28MOL   H16012634   4.238   1.023   7.407 -0.1234  0.0328 -0.5347
   28MOL   H16112635   4.076   1.128   7.026 -1.4034 -1.1338  0.4871
   28MOL   H16212636   4.160   1.358   7.049  3.5366 -0.1619 -0.8676
   28MOL   O16312637   4.060   0.702   7.270 -0.2866 -0.0614 -0.2016
   28MOL   C16412638   4.172   0.639   7.216 -0.1260 -0.9114 -0.9127
   28MOL   C16512639   4.110   0.551   7.107  0.1403 -0.2549 -0.0616
   28MOL   O16612640   4.140   0.632   6.992 -0.5876  0.4010 -0.4901
   28MOL   C16712641   4.129   0.568   6.871  0.0035  0.0452  0.4462
   28MOL   O16812642   4.084   0.453   6.859 -0.3365 -0.2509 -0.0682
   28MOL   C16912643   4.163   0.653   6.751  0.3365 -0.2165 -0.4992
   28MOL   C17012644   4.141   0.600   6.620 -0.2209 -0.2371 -0.6936
   28MOL   C17112645   4.178   0.667   6.502  0.4339  0.4337 -0.4659
   28MOL   C17212646   4.233   0.799   6.520 -0.1978  0.1293 -0.8374
   28MOL   C17312647   4.271   0.877   6.396 -0.6106 -0.3662  0.1483
   28MOL   O17412648   4.246   0.840   6.286 -0.8717  0.4996 -0.0154
   28MOL   O17512649   4.352   0.985   6.423 -0.0730 -0.0446  0.0067
   28MOL   C17612650   4.252   0.854   6.646 -0.4435 -1.0537 -0.5231
   28MOL   C17712651   4.224   0.780   6.763 -0.4827  0.1321 -0.0893
   28MOL   H17812652   4.244   0.707   7.170  0.4093  0.7778  2.2621
   28MOL   H17912653   4.221   0.575   7.290  0.0671 -0.8753 -1.0080
   28MOL   H18012654   4.002   0.538   7.117 -0.2899  3.7726  1.3882
   28MOL   H18112655   4.152   0.451   7.115  0.9656 -0.1650 -2.8099
   28MOL   H18212656   4.087   0.507   6.609  0.6412 -0.9791  1.1961
   28MOL   H18312657   4.153   0.628   6.405 -0.6417  0.8431 -0.3616
   28MOL   H18412658   4.293   0.951   6.669 -0.9600 -0.9835  0.1402
   28MOL   H18512659   4.251   0.833   6.853  1.2347  0.3903 -0.7509
   28MOL   O18612660   4.386   1.058   6.303 -0.1748 -0.2221 -0.3003
   28MOL   C18712661   4.523   1.034   6.269  0.8577 -0.6022  0.1104
   28MOL   C18812662   4.629   1.089   6.378 -0.1359  0.2018  0.1836
   28MOL   O18912663   4.645   1.228   6.378  0.0756 -0.8641 -0.1781
   28MOL   C19012664   4.575   1.307   6.459  0.5469 -0.5156  0.1327
   28MOL   O19112665   4.481   1.262   6.525  0.3595 -0.4582  0.1683
   28MOL   C19212666   4.596   1.453   6.441  0.1525 -0.0330  0.6543
   28MOL   C19312667   4.512   1.538   6.511 -0.6194  0.5858  0.7220
   28MOL   C19412668   4.515   1.678   6.491  0.5851 -0.3899 -0.5411
   28MOL   C19512669   4.599   1.732   6.391 -0.1664  0.8639  0.2324
   28MOL   C19612670   4.596   1.878   6.365 -0.7062 -0.3767 -0.3739
   28MOL   O19712671   4.496   1.947   6.402 -0.4721 -0.4862  0.1604
   28MOL   O19812672   4.713   1.929   6.317  0.4461 -0.2040 -0.3209
   28MOL   C19912673   4.685   1.643   6.318  0.1823 -0.0336 -0.0542
   28MOL   C20012674   4.687   1.504   6.342 -0.6514 -0.4742  0.2730
   28MOL   H20112675   4.542   0.928   6.258 -1.4605 -1.1555  1.1625
   28MOL   H20212676   4.533   1.073   6.168  0.8109 -2.1421 -0.5008
   28MOL   H20312677   4.721   1.041   6.345  0.1002  0.4632  0.4731
   28MOL   H20412678   4.607   1.049   6.477  0.6256 -1.4936 -0.3028
   28MOL   H20512679   4.437   1.494   6.576  1.7979 -1.3666  2.2766
   28MOL   H20612680   4.452   1.737   6.557 -1.4749 -1.5298 -1.4314
   28MOL   H20712681   4.751   1.692   6.248  2.0605 -1.1689  0.8771
   28MOL   H20812682   4.757   1.440   6.292  0.9003 -0.1542  1.9870
   28MOL   O20912683   4.708   2.081   6.304 -0.6930 -0.0990  0.1599
   28MOL   C21012684   4.758   2.136   6.429  0.8758 -0.7349 -0.0921
   28MOL   C21112685   4.756   2.290   6.412  0.3936  0.2813  0.3557
   28MOL   O21212686   4.802   2.350   6.527 -0.6900 -0.7871  0.0035
   28MOL   C21312687   4.874   2.462   6.520  0.3715 -0.0052  0.2987
   28MOL   O21412688   4.950   2.483   6.426 -0.0941  0.3410  0.6241
   28MOL   C21512689   4.869   2.555   6.635 -0.3417 -0.5657 -0.0491
   28MOL   C21612690   4.808   2.518   6.753 -0.1157 -0.3429  0.1263
   28MOL   C21712691   4.807   2.609   6.863 -0.5380  0.0785 -0.3790
   28MOL   C21812692   4.862   2.739   6.844  1.7065 -0.4492 -0.5472
   28MOL   C21912693   4.845   2.840   6.953 -0.1870 -0.0875 -0.4038
   28MOL   O22012694   4.904   2.948   6.947 -0.3222 -0.2654 -0.0185
   28MOL   O22112695   4.776   2.807   7.055  0.1203  0.1982  0.0053
   28MOL   C22212696   4.929   2.775   6.727 -0.1071  0.5857  0.1581
   28MOL   C22312697   4.932   2.682   6.622  0.5635  1.0571  0.1536
   28MOL   H22412698   4.702   2.097   6.514  0.9162 -2.1444 -0.6984
   28MOL   H22512699   4.861   2.105   6.443  1.0203 -0.7712 -1.1803
   28MOL   H22612700   4.648   2.308   6.409  0.2937  0.1540  2.3404
   28MOL   H22712701   4.816   2.313   6.324 -0.8228 -0.3115 -0.6483
   28MOL   H22812702   4.764   2.420   6.769  1.9748 -1.2013  0.8364
   28MOL   H22912703   4.758   2.569   6.951  3.5771 -1.3544  1.3904
   28MOL   H23012704   4.976   2.872   6.721  0.9912  0.0825  0.4683
   28MOL   H23112705   4.984   2.699   6.529  1.2122  1.0727  0.5197
   28MOL   O23212706   4.771   2.910   7.172  0.3193  0.5599  0.5885
   28MOL   C23312707   4.661   2.994   7.143 -0.7525  0.5772 -0.2252
   28MOL   C23412708   4.604   3.054   7.275  0.7377 -0.0728  0.4889
   28MOL   O23512709   4.668   3.171   7.325  0.9476  0.1866 -0.6501
   28MOL   C23612710   4.768   3.178   7.421  0.0839  0.0375 -0.1200
   28MOL   O23712711   4.811   3.076   7.477 -0.3354 -0.1172  0.1308
   28MOL   C23812712   4.821   3.314   7.456 -0.3249  0.0295 -0.0788
   28MOL   C23912713   4.921   3.330   7.552 -0.1781  0.7540  0.2917
   28MOL   C24012714   4.977   3.458   7.576  0.0531 -0.2923 -0.1271
   28MOL   C24112715   4.917   3.576   7.520 -0.1526  0.9213  0.4910
   28MOL   C24212716   4.964   3.712   7.565  0.2054 -0.3035  0.4513
   28MOL   O24312717   5.071   3.736   7.620 -0.0671 -0.1781  0.3364
   28MOL   O24412718   4.880   3.808   7.529  0.5047  0.6234 -0.3373
   28MOL   C24512719   4.815   3.559   7.420  0.2582 -0.3387 -0.0862
   28MOL   C24612720   4.765   3.430   7.394 -0.1957 -0.4578  0.0712
   28MOL   H24712721   4.702   3.066   7.072  0.5128 -0.4099 -0.5196
   28MOL   H24812722   4.580   2.939   7.095  0.8712 -0.5012 -1.7861
   28MOL   H24912723   4.611   2.975   7.349 -0.8136  0.1076  0.8531
   28MOL   H25012724   4.496   3.065   7.260  1.0777  0.4327 -1.7689
   28MOL   H25112725   4.972   3.240   7.582 -0.9053 -0.2234 -1.3560
   28MOL   H25212726   5.066   3.459   7.636 -0.8385 -2.1824  1.2819
   28MOL   H25312727   4.769   3.642   7.368  1.2924 -0.4214 -1.1588
   28MOL   H25412728   4.687   3.421   7.320  1.7371 -2.0250 -1.8414
   28MOL   O25512729   4.901   3.941   7.602 -1.2510  0.2163 -0.6152
   28MOL   C25612730   4.964   4.032   7.517 -1.0215  0.1647 -0.4657
   28MOL   C25712731   4.955   4.177   7.568 -0.4349 -0.0909 -0.0427
   28MOL   O25812732   4.822   4.226   7.558 -0.2565  0.8106  0.7073
   28MOL   C25912733   4.780   4.338   7.603  1.1925  0.3424 -0.1055
   28MOL   O26012734   4.846   4.433   7.641 -0.1539 -0.0093 -0.3786
   28MOL   C26112735   4.634   4.341   7.593  0.5843 -0.1235 -0.9322
   28MOL   C26212736   4.561   4.432   7.675  0.6938 -0.6446  0.1867
   28MOL   C26312737   4.423   4.447   7.667 -0.2680 -0.1902 -0.3617
   28MOL   C26412738   4.351   4.368   7.579  0.1304  0.0435  0.2295
   28MOL   C26512739   4.199   4.374   7.571  1.0374  0.2308  0.0725
   28MOL   O26612740   4.138   4.286   7.511  0.3170 -0.3033  0.2760
   28MOL   O26712741   4.135   4.480   7.629 -0.2034 -0.6632  0.4733
   28MOL   C26812742   4.424   4.275   7.495  0.4764 -0.1248  0.4407
   28MOL   C26912743   4.557   4.253   7.505 -0.0990  0.5542  0.3315
   28MOL   H27012744   5.068   4.007   7.494 -1.1083  0.7315 -1.4845
   28MOL   H27112745   4.919   4.022   7.419 -2.2584  2.1329 -0.1377
   28MOL   H27212746   5.009   4.235   7.494  0.3324  0.2245  0.7529
   28MOL   H27312747   5.003   4.172   7.666  1.6956  1.3416 -0.9893
   28MOL   H27412748   4.612   4.495   7.746  1.0756 -0.8221  0.0721
   28MOL   H27512749   4.374   4.523   7.727  0.9081  0.0802  0.2877
   28MOL   H27612750   4.368   4.236   7.411 -0.1831 -0.7740  1.1783
   28MOL   H27712751   4.603   4.181   7.439 -0.7013  0.4228  0.0448
   28MOL   O27812752   3.985   4.470   7.660 -0.3661 -0.6620  0.0908
   28MOL   C27912753   3.930   4.596   7.621 -0.2266  0.5089 -0.3341
   28MOL   C28012754   3.933   4.692   7.741 -0.3428 -0.6720 -0.1319
   28MOL   O28112755   3.838   4.664   7.843 -0.0550 -0.4274  0.0241
   28MOL   C28212756   3.705   4.674   7.819 -0.5574 -0.5528  0.7542
   28MOL   O28312757   3.660   4.698   7.706  0.2721 -0.0768  0.6712
   28MOL   C28412758   3.623   4.668   7.950 -0.3124 -0.3156 -0.1720
   28MOL   C28512759   3.486   4.693   7.948 -0.1634  0.6973  0.2394
   28MOL   C28612760   3.407   4.667   8.058  0.6600 -0.2124  0.0769
   28MOL   C28712761   3.466   4.638   8.186  0.0630  0.1698  0.1501
   28MOL   C28812762   3.381   4.621   0.031 -0.6151 -0.0512 -0.1081
   28MOL   O28912763   3.261   4.579   0.027 -0.8278  0.1890 -0.3830
   28MOL   O29012764   3.455   4.653   0.143  0.0472  0.0149  0.2678
   28MOL   C29112765   3.606   4.612   8.192 -0.0832 -0.6446  0.0469
   28MOL   C29212766   3.681   4.629   8.073 -0.3185  0.8268  0.1237
   28MOL   H29312767   3.980   4.645   7.538  1.7450 -2.4130 -0.9409
   28MOL   H29412768   3.828   4.583   7.583  0.5017 -0.4912 -2.0203
   28MOL   H29512769   3.910   4.794   7.709 -1.0520 -0.4732  0.9712
   28MOL   H29612770   4.032   4.676   7.784 -0.4922 -2.5655 -0.4851
   28MOL   H29712771   3.447   4.732   7.855 -0.5912  3.1563  1.3897
   28MOL   H29812772   3.300   4.679   8.053  0.3013 -3.1966 -0.7244
   28MOL   H29912773   3.656   4.586   0.008  0.1094  2.3365  0.8271
   28MOL   H30012774   3.786   4.607   8.088  0.2533  1.3182 -2.8903
   28MOL   O30112775   3.412   4.588   0.273  0.0916 -0.4964  0.0085
   28MOL   C30212776   3.498   4.489   0.304  0.1858  0.1820 -0.0898
   28MOL   C30312777   3.628   4.543   0.371 -0.4220 -0.5234  0.7841
   28MOL   O30412778   3.685   4.451   0.463 -0.0003  0.4747 -0.1897
   28MOL   C30512779   3.790   4.486   0.542 -0.7526 -0.2208  0.7238
   28MOL   O30612780   3.843   4.596   0.532  0.4304 -0.5635 -0.6057
   28MOL   C30712781   3.848   4.373   0.614 -0.0606  0.0157  0.2610
   28MOL   C30812782   3.797   4.240   0.600 -0.1104 -0.3622 -0.8367
   28MOL   C30912783   3.841   4.131   0.689  0.1700  0.2594 -0.5740
   28MOL   C31012784   3.950   4.154   0.772  0.2587  0.5721  0.0473
   28MOL   C31112785   4.002   4.051   0.864 -0.6192 -0.4860 -0.1578
   28MOL   O31212786   4.064   4.076   0.968  0.2456  0.0208  0.5532
   28MOL   O31312787   3.977   3.920   0.813 -0.1081 -0.4530 -0.1921
   28MOL   C31412788   4.010   4.282   0.781  0.0882 -0.1758  0.2292
   28MOL   C31512789   3.957   4.393   0.705  0.2110 -0.1334  0.3359
   28MOL   H31612790   3.436   4.428   0.370 -1.0926  2.1961  0.6158
   28MOL   H31712791   3.519   4.418   0.224 -1.7664 -2.0521  1.3236
   28MOL   H31812792   3.603   4.630   0.431  0.7374 -0.9017  1.8328
   28MOL   H31912793   3.697   4.580   0.295 -2.7007  2.5709  0.1301
   28MOL   H32012794   3.712   4.218   0.537 -1.7826  1.6429  0.6389
   28MOL   H32112795   3.791   4.035   0.683 -2.1543  1.4379 -0.7315
   28MOL   H32212796   4.094   4.310   0.843 -1.1308  1.5998  1.1343
   28MOL   H32312797   3.991   4.496   0.709 -0.7486  0.1676  1.1078
   28MOL   O32412798   4.048   3.800   0.873 -0.5737 -0.3425 -0.1988
   28MOL   C32512799   3.963   3.744   0.974  0.0068 -0.2211  0.1934
   28MOL   C32612800   4.001   3.600   1.008 -0.2810  0.0414 -0.6307
   28MOL   O32712801   3.907   3.530   1.096 -0.0252 -0.0145 -0.3023
   28MOL   C32812802   3.927   3.526   1.227  0.8912  0.2205  0.0981
   28MOL   O32912803   4.020   3.581   1.284  0.0390  0.0869  0.1365
   28MOL   C33012804   3.816   3.462   1.304  0.2578 -0.2796 -0.4430
   28MOL   C33112805   3.691   3.442   1.237  0.3762 -0.4134  0.1937
   28MOL   C33212806   3.586   3.376   1.300  0.4495 -0.4428 -0.2751
   28MOL   C33312807   3.604   3.325   1.430  0.6092 -0.1130  0.0899
   28MOL   C33412808   3.502   3.241   1.491  0.1492 -0.5868  0.4997
   28MOL   O33512809   3.515   3.195   1.605 -0.3479  0.2756  0.5413
   28MOL   O33612810   3.388   3.224   1.415 -0.0611  0.3589 -0.3386
   28MOL   C33712811   3.729   3.333   1.498  0.0851 -0.2670 -0.1484
   28MOL   C33812812   3.838   3.404   1.433  0.4665 -0.7378 -0.1282
   28MOL   H33912813   3.948   3.815   1.056  1.0702 -0.2719  0.4403
   28MOL   H34012814   3.862   3.740   0.934  0.5686 -1.3431 -1.1238
   28MOL   H34112815   4.100   3.601   1.052 -0.8225  0.5276  0.5795
   28MOL   H34212816   4.006   3.557   0.908  1.4851 -0.8563 -0.1733
   28MOL   H34312817   3.672   3.458   1.132 -1.4841  0.2338  0.6158
   28MOL   H34412818   3.489   3.365   1.252  0.4686 -1.3340 -0.1101
   28MOL   H34512819   3.746   3.283   1.592  0.7907 -1.2028 -0.7630
   28MOL   H34612820   3.935   3.393   1.478 -0.4768 -2.1682  1.6013
   28MOL   O34712821   3.268   3.178   1.495  0.2858  0.2396  0.2505
   28MOL   C34812822   3.202   3.283   1.564 -0.2718  0.0376  0.0881
   28MOL   C34912823   3.061   3.245   1.575  0.2511 -0.2183  0.9303
   28MOL   O35012824   2.998   3.274   1.450 -0.3999 -0.1441  0.0780
   28MOL   C35112825   2.915   3.381   1.430  0.1870 -0.2119  0.7005
   28MOL   O35212826   2.879   3.451   1.524 -0.3783 -0.2470  0.3858
   28MOL   C35312827   2.886   3.411   1.285 -0.5550 -0.1605  0.1918
   28MOL   C35412828   2.796   3.519   1.246 -0.0591 -0.3585 -0.2342
   28MOL   C35512829   2.757   3.545   1.112 -0.1553  0.1652  0.0831
   28MOL   C35612830   2.828   3.484   1.003  0.2964  0.1299 -0.4975
   28MOL   C35712831   2.789   3.524   0.866 -0.2639  0.4281  0.4534
   28MOL   O35812832   2.701   3.608   0.842  0.3031  0.1345  0.2192
   28MOL   O35912833   2.876   3.471   0.777  0.5468 -1.0224  0.8952
   28MOL   C36012834   2.918   3.379   1.038  0.1319  0.0638  0.6897
   28MOL   C36112835   2.948   3.345   1.175 -0.1405  0.1203 -0.2543
   28MOL   H36212836   3.249   3.302   1.660 -1.0571  0.8311  0.3168
   28MOL   H36312837   3.225   3.384   1.528 -1.8552  2.3161  5.1002
   28MOL   H36412838   3.010   3.302   1.653 -1.0502 -0.2130  0.0955
   28MOL   H36512839   3.063   3.141   1.609 -1.7938 -0.1903  1.1904
   28MOL   H36612840   2.750   3.573   1.327  0.7531  1.3078 -0.8677
   28MOL   H36712841   2.671   3.607   1.088  0.4124  0.8771 -0.1204
   28MOL   H36812842   2.966   3.336   0.951 -2.0835  1.9399 -1.5448
   28MOL   H36912843   3.020   3.266   1.194  1.9278  2.2897  1.1862
   28MOL   O37012844   2.860   3.524   0.633  0.0539 -0.1692  0.9906
   28MOL   C37112845   2.789   3.432   0.555  0.1684 -0.2967  0.1081
   28MOL   C37212846   2.810   3.445   0.404 -0.3051  0.0955 -0.5662
   28MOL   O37312847   2.949   3.430   0.376 -0.0494  0.3617  0.2693
   28MOL   C37412848   2.998   3.312   0.336  0.0517  0.0427 -0.3503
   28MOL   O37512849   2.935   3.214   0.294  0.6526  0.1446 -0.1321
   28MOL   C37612850   3.145   3.307   0.376 -0.2602  0.8769  0.3109
   28MOL   C37712851   3.227   3.234   0.288 -0.1939  0.3171  0.3160
   28MOL   C37812852   3.361   3.224   0.317  0.5627 -0.8050 -0.6307
   28MOL   C37912853   3.420   3.274   0.439 -0.3793 -0.2584 -0.8981
   28MOL   C38012854   3.564   3.251   0.462 -0.8605  0.0502  0.0172
   28MOL   O38112855   3.643   3.176   0.399  0.1118  0.1895  0.0331
   28MOL   O38212856   3.609   3.321   0.560  0.0700 -0.7198 -0.6582
   28MOL   C38312857   3.334   3.336   0.528  0.6010 -0.8375  0.0410
   28MOL   C38412858   3.196   3.343   0.500 -0.4494 -0.4007 -0.2602
   28MOL   H38512859   2.815   3.333   0.593  2.0710  0.4964  0.9548
   28MOL   H38612860   2.685   3.439   0.588  0.3680 -0.0868  0.6949
   28MOL   H38712861   2.787   3.549   0.381  1.0953  1.1988  2.7169
   28MOL   H38812862   2.745   3.376   0.350  1.5370 -1.5588 -0.7125
   28MOL   H38912863   3.187   3.189   0.197 -0.5175 -1.4256  1.2892
   28MOL   H39012864   3.420   3.160   0.253  0.9526 -3.1442  1.9736
   28MOL   H39112865   3.378   3.362   0.623 -0.0723 -0.8272  0.3531
   28MOL   H39212866   3.136   3.390   0.577  0.3294 -0.3496  0.3229
   28MOL   O39312867   3.751   3.281   0.600 -0.0167 -0.3622 -0.5684
   28MOL   C39412868   3.842   3.378   0.558 -0.5081 -0.7760  0.1057
   28MOL   C39512869   3.829   3.488   0.668 -0.6062  0.1725  0.1801
   28MOL   O39612870   3.713   3.557   0.643 -0.3384 -0.3922 -0.5383
   28MOL   C39712871   3.715   3.692   0.622 -0.5020  0.3527 -0.1152
   28MOL   O39812872   3.813   3.763   0.615  0.3211 -0.3665 -0.0985
   28MOL   C39912873   3.577   3.736   0.594  0.8205  0.2511  0.5356
   28MOL   C40012874   3.560   3.863   0.539  0.6508 -0.2467 -0.7257
   28MOL   C40112875   3.438   3.920   0.505 -0.2056 -0.1552  0.0012
   28MOL   C40212876   3.322   3.844   0.519  0.0938 -0.3491 -0.6208
   28MOL   C40312877   3.191   3.895   0.470 -0.7348 -0.1267 -0.6113
   28MOL   O40412878   3.180   3.992   0.394 -0.1478  0.2226 -0.0650
   28MOL   O40512879   3.088   3.833   0.513  0.2644  0.1751 -0.1020
   28MOL   C40612880   3.330   3.713   0.573  0.0397 -0.1432  0.3451
   28MOL   C40712881   3.456   3.662   0.618 -0.2625 -0.0842  0.6801
   28MOL   H40812882   3.943   3.336   0.561 -0.4302 -0.4875  1.9204
   28MOL   H40912883   3.823   3.423   0.461  2.9841  2.0790  0.6368
   28MOL   H41012884   3.915   3.553   0.686 -0.3768  0.0859 -0.6054
   28MOL   H41112885   3.805   3.438   0.762 -0.7898  1.1049  0.6417
   28MOL   H41212886   3.646   3.924   0.513 -0.2859  1.7525  0.7333
   28MOL   H41312887   3.429   4.016   0.455  0.6762 -0.3444 -0.5539
   28MOL   H41412888   3.237   3.662   0.593 -0.3081  0.8937  1.4906
   28MOL   H41512889   3.458   3.563   0.661  0.5329 -0.1000  0.6127
   28MOL   O41612890   2.957   3.882   0.465 -0.6680 -0.0227  1.1118
   28MOL   C41712891   2.903   3.983   0.552  0.6187 -0.4813  0.3929
   28MOL   C41812892   2.788   4.048   0.463  0.1362 -0.1807  0.2404
   28MOL   O41912893   2.750   4.180   0.498  0.2534  0.1111 -0.3972
   28MOL   C42012894   2.627   4.221   0.518 -0.2185 -0.2199 -0.6790
   28MOL   O42112895   2.529   4.157   0.480  0.2710  0.3607  0.6494
   28MOL   C42212896   2.620   4.358   0.577  0.2988 -0.2615 -0.5715
   28MOL   C42312897   2.738   4.437   0.598  0.3028 -0.4791  0.2186
   28MOL   C42412898   2.732   4.556   0.668 -0.1667 -0.4114 -0.1106
   28MOL   C42512899   2.610   4.612   0.717  0.3734 -0.6949  0.1098
   28MOL   C42612900   2.609   4.735   0.802 -0.3304 -0.8014 -0.3317
   28MOL   O42712901   2.506   4.766   0.876 -0.4578 -0.4087  0.1155
   28MOL   O42812902   2.728   4.807   0.801  0.1475 -0.4212  0.2791
   28MOL   C42912903   2.486   4.543   0.687  0.3071  0.3608 -0.6336
   28MOL   C43012904   2.498   4.413   0.618  0.5401  0.6577 -0.1962
   28MOL   H43112905   2.874   3.944   0.649 -1.4168 -0.6623 -0.2592
   28MOL   H43212906   2.988   4.046   0.579 -0.8905  2.1194 -0.7429
   28MOL   H43312907   2.703   3.984   0.485  1.0025 -1.4166  0.0649
   28MOL   H43412908   2.812   4.052   0.356  0.4517 -0.3384  0.3038
   28MOL   H43512909   2.837   4.401   0.574  1.5969  1.5040  2.3634
   28MOL   H43612910   2.824   4.606   0.694 -0.0519  0.1623 -1.5589
   28MOL   H43712911   2.392   4.566   0.734 -0.3022  1.6818 -2.4303
   28MOL   H43812912   2.411   4.353   0.596  1.5421 -0.3288 -1.5458
   28MOL   O43912913   2.738   4.912   0.909 -0.2781 -0.1914  0.5245
   28MOL   C44012914   2.771   4.854   1.031 -0.3041  0.0881  0.0329
   28MOL   C44112915   2.907   4.778   1.027 -0.3961  0.0981 -0.2814
   28MOL   O44212916   2.880   4.638   1.011 -0.4973  0.4057 -0.1185
   28MOL   C44312917   2.919   4.550   1.104 -0.1026 -0.3265 -0.2652
   28MOL   O44412918   2.970   4.577   1.213  0.4379  0.3856  0.2612
   28MOL   C44512919   2.882   4.405   1.071  0.3067 -0.2403 -0.5877
   28MOL   C44612920   2.843   4.316   1.179  0.1728  0.0100 -0.3174
   28MOL   C44712921   2.802   4.184   1.153  0.2435  0.1283 -0.3366
   28MOL   C44812922   2.798   4.134   1.022 -0.0074  0.3433 -0.0597
   28MOL   C44912923   2.752   3.995   0.981 -0.1096 -0.0796 -1.0452
   28MOL   O45012924   2.741   3.906   1.067 -0.1683  0.1021  0.3434
   28MOL   O45112925   2.702   3.981   0.857 -0.1049 -0.0255 -0.0909
   28MOL   C45212926   2.829   4.219   0.914  0.4915 -0.0399 -0.2961
   28MOL   C45312927   2.869   4.355   0.940  0.3097 -0.6282 -0.6297
   28MOL   H45412928   2.780   4.942   1.094 -1.3940 -0.0484  0.3961
   28MOL   H45512929   2.698   4.783   1.072 -2.3351  1.6357 -0.7901
   28MOL   H45612930   2.961   4.791   1.120 -0.6376  2.3120 -0.4022
   28MOL   H45712931   2.980   4.805   0.950  1.5834 -0.7184  1.2677
   28MOL   H45812932   2.842   4.347   1.283 -0.0978 -0.6299 -0.1303
   28MOL   H45912933   2.776   4.125   1.240  0.4955 -0.1836 -0.4712
   28MOL   H46012934   2.825   4.198   0.808 -0.4696  2.0117 -0.6715
   28MOL   H46112935   2.881   4.425   0.859 -1.0414  3.1127  2.2939
   28MOL   H46212936   2.670   3.893   0.848 -1.0270  0.1282  1.4779
   29MOL     O112937   7.838   7.839   4.648 -0.2179 -0.1013 -0.4164
   29MOL     C212938   7.747   7.871   4.540  0.3625 -0.0829  0.2960
   29MOL     C312939   7.787   7.811   4.405 -0.3176 -0.5199 -0.3651
   29MOL     O412940   7.743   7.676   4.404 -0.3905  0.1341 -0.1904
   29MOL     C512941   7.747   7.611   4.291  0.2767 -0.6756 -0.4371
   29MOL     O612942   7.784   7.665   4.190  0.2725  0.1416 -0.1368
   29MOL     C712943   7.694   7.470   4.290  0.2086  0.9951  0.7828
   29MOL     C812944   7.690   7.395   4.169 -0.1925  0.3010 -0.4756
   29MOL     C912945   7.658   7.255   4.179  0.4317  0.4696  0.1011
   29MOL    C1012946   7.622   7.194   4.305  0.3513  0.4578 -0.1800
   29MOL    C1112947   7.568   7.056   4.310  0.8759  0.3206 -0.8405
   29MOL    O1212948   7.470   7.021   4.375  0.5217  0.5650  0.4792
   29MOL    O1312949   7.640   6.974   4.237  0.3002 -0.1171  0.6487
   29MOL    C1412950   7.615   7.276   4.425 -0.1738  0.3563  0.4268
   29MOL    C1512951   7.653   7.409   4.412  0.5610  0.1339 -0.0238
   29MOL    H1612952   7.643   7.842   4.557  0.4412 -0.0373  0.8657
   29MOL    H1712953   7.765   7.978   4.526 -1.6827  0.1524 -0.7058
   29MOL    H1812954   7.896   7.808   4.393 -0.2457  3.0949 -1.1624
   29MOL    H1912955   7.740   7.871   4.327 -1.6143  0.2678  1.0191
   29MOL    H2012956   7.713   7.438   4.072 -0.5906 -2.7332 -1.9708
   29MOL    H2112957   7.660   7.191   4.092  1.4704  1.5827 -0.7038
   29MOL    H2212958   7.582   7.243   4.523 -1.2364 -1.1036 -0.4062
   29MOL    H2312959   7.652   7.457   4.509 -0.5761 -1.4115  0.7651
   29MOL    H2412960   7.832   7.748   4.670  0.1566  0.5002  2.2625
   29MOL    O2512961   7.592   6.835   4.243  0.3519  0.4175  0.4688
   29MOL    C2612962   7.643   6.773   4.358 -0.4403 -0.0171 -0.7615
   29MOL    C2712963   7.619   6.621   4.333  0.3456 -0.3251  0.2338
   29MOL    O2812964   7.728   6.547   4.399  0.0869 -0.0046 -0.5136
   29MOL    C2912965   7.699   6.500   4.520  0.0826 -0.2469 -0.2299
   29MOL    O3012966   7.599   6.529   4.585  0.2164  0.2623  0.2931
   29MOL    C3112967   7.803   6.404   4.571  0.0648 -0.1928  0.3268
   29MOL    C3212968   7.924   6.392   4.499 -0.1596 -0.5306  0.1307
   29MOL    C3312969   8.016   6.299   4.556 -0.1855  0.3496 -0.0766
   29MOL    C3412970   7.986   6.221   4.675 -0.2315  0.5917  0.4367
   29MOL    C3512971   8.084   6.123   4.731 -0.7078 -0.7332  0.4762
   29MOL    O3612972   8.060   6.056   4.834 -0.2925 -0.1769 -0.3751
   29MOL    O3712973   8.206   6.127   4.668  0.0274 -0.1906 -0.3065
   29MOL    C3812974   7.859   6.244   4.739  0.5160 -0.0581  0.1436
   29MOL    C3912975   7.767   6.333   4.690 -0.0524 -0.8135 -0.3749
   29MOL    H4012976   7.751   6.782   4.368 -0.7890  0.5497  4.1322
   29MOL    H4112977   7.598   6.797   4.455 -1.1544 -1.0171 -0.8404
   29MOL    H4212978   7.634   6.603   4.227 -1.2853 -3.0864  0.4397
   29MOL    H4312979   7.516   6.589   4.349  0.8249 -1.0295  2.1107
   29MOL    H4412980   7.947   6.442   4.406 -0.7719 -0.4368  0.0308
   29MOL    H4512981   8.112   6.290   4.507  0.2891 -3.0748  1.3085
   29MOL    H4612982   7.827   6.187   4.825 -0.9063  1.3707  0.5907
   29MOL    H4712983   7.668   6.336   4.733  1.5082 -1.4682  3.4250
   29MOL    O4812984   0.028   6.041   4.735 -0.4684 -0.7204  0.3220
   29MOL    C4912985   0.090   5.955   4.641  0.2229  0.0140  0.2237
   29MOL    C5012986   0.200   5.868   4.712  0.4091 -0.1752  1.0305
   29MOL    O5112987   0.138   5.748   4.756 -0.4626 -0.3751  0.3346
   29MOL    C5212988   0.142   5.635   4.685 -0.2628  0.5370 -0.1461
   29MOL    O5312989   0.219   5.616   4.591 -0.2756 -0.3243 -0.8392
   29MOL    C5412990   0.055   5.528   4.743 -0.5423  0.0602  0.7099
   29MOL    C5512991   8.267   5.546   4.869 -0.9636 -1.6123 -0.1009
   29MOL    C5612992   8.187   5.444   4.926  0.2223 -0.1404 -0.3007
   29MOL    C5712993   8.166   5.326   4.850 -0.3122  0.1210  0.1858
   29MOL    C5812994   8.083   5.214   4.909 -0.0874  0.3398  0.4838
   29MOL    O5912995   7.981   5.227   4.980  0.4529 -0.0597 -0.4990
   29MOL    O6012996   8.134   5.091   4.871  0.8376 -0.5106  0.0022
   29MOL    C6112997   8.228   5.309   4.725  0.1164 -0.6132  0.2036
   29MOL    C6212998   0.025   5.414   4.669  1.1046  0.4166 -0.4781
   29MOL    H6312999   0.020   5.890   4.590  0.9242 -0.4585 -0.1575
   29MOL    H6413000   0.137   6.002   4.555 -1.4613  2.4561  0.5759
   29MOL    H6513001   0.254   5.925   4.788 -1.1909  0.7512  1.5105
   29MOL    H6613002   0.276   5.852   4.636  0.8800 -2.0157  1.8811
   29MOL    H6713003   8.273   5.635   4.930 -0.3020 -0.4362 -1.8529
   29MOL    H6813004   8.153   5.455   5.027  1.0825 -0.0979 -0.0058
   29MOL    H6913005   8.215   5.218   4.669 -1.4380  0.0939 -0.6094
   29MOL    H7013006   0.064   5.398   4.569  0.4552  2.0438 -0.9990
   29MOL    O7113007   8.069   4.972   4.933  0.0568 -0.0559  0.2000
   29MOL    C7213008   7.996   4.901   4.826  0.6549 -0.0251  0.7947
   29MOL    C7313009   7.927   4.783   4.891 -0.0128 -0.2414  0.1878
   29MOL    O7413010   7.827   4.810   4.989  0.3042 -0.4074  0.1947
   29MOL    C7513011   7.706   4.870   4.954 -0.1140  0.0842 -0.2411
   29MOL    O7613012   7.676   4.900   4.837 -0.1430 -0.1300  0.2504
   29MOL    C7713013   7.612   4.880   5.066  0.9047  0.1642  0.1457
   29MOL    C7813014   7.652   4.866   5.205  0.0506  0.6272  0.0561
   29MOL    C7913015   7.560   4.900   5.310  0.2069  0.3826  1.0474
   29MOL    C8013016   7.418   4.918   5.281  0.2691 -0.4194  0.2310
   29MOL    C8113017   7.308   4.943   5.379  0.5010 -0.6708 -0.4692
   29MOL    O8213018   7.194   4.911   5.355 -0.2412 -0.2005 -0.4958
   29MOL    O8313019   7.356   4.962   5.494  0.4586  0.1074  0.1016
   29MOL    C8413020   7.383   4.925   5.146  0.2070  0.5074 -0.3686
   29MOL    C8513021   7.473   4.910   5.040  0.2632 -0.3605  0.2530
   29MOL    H8613022   7.912   4.961   4.791  1.2853 -0.1246 -0.9213
   29MOL    H8713023   8.049   4.879   4.733 -1.0623  1.3213 -0.5147
   29MOL    H8813024   8.008   4.724   4.934  0.0483 -2.5154 -2.9214
   29MOL    H8913025   7.879   4.719   4.818 -1.7195  1.3327 -0.1249
   29MOL    H9013026   7.753   4.836   5.226  0.0635  1.5110  1.3801
   29MOL    H9113027   7.597   4.903   5.411 -1.9154  0.1294  1.8685
   29MOL    H9213028   7.279   4.939   5.125 -0.4575  0.0115  2.3535
   29MOL    H9313029   7.431   4.902   4.940 -1.4893  2.4558  0.7185
   29MOL    O9413030   7.245   4.978   5.595 -0.5135 -0.2590  1.0167
   29MOL    C9513031   7.240   5.110   5.634 -0.2188 -0.1788  0.2455
   29MOL    C9613032   7.128   5.130   5.738 -0.3875  0.0219  0.0201
   29MOL    O9713033   7.143   5.049   5.861  0.1068 -0.5182  0.8458
   29MOL    C9813034   7.104   5.088   5.982  0.3059  0.3764  0.7928
   29MOL    O9913035   7.046   5.194   6.004  0.1191  0.2663 -0.2838
   29MOL   C10013036   7.136   4.979   6.088 -0.1999  0.8112  0.3630
   29MOL   C10113037   7.140   5.013   6.227 -0.4937  0.7866 -0.5591
   29MOL   C10213038   7.182   4.918   6.322 -0.0643 -0.3329 -0.2869
   29MOL   C10313039   7.217   4.786   6.280  0.0042  0.9145  0.3266
   29MOL   C10413040   7.281   4.689   6.366  0.4877 -0.8619 -0.2285
   29MOL   O10513041   7.283   4.568   6.351 -0.6974  0.3041  0.4723
   29MOL   O10613042   7.357   4.754   6.465  0.7378  0.2934 -0.8808
   29MOL   C10713043   7.183   4.749   6.147 -0.5139  0.7231  0.1283
   29MOL   C10813044   7.155   4.844   6.051  0.1311 -0.2193 -0.2432
   29MOL   H10913045   7.336   5.138   5.677 -0.3781  0.9174 -0.0879
   29MOL   H11013046   7.235   5.184   5.553  0.5937 -1.7113 -1.2441
   29MOL   H11113047   7.028   5.095   5.710 -0.8271  1.8135 -0.7052
   29MOL   H11213048   7.120   5.234   5.771  1.7378  0.6223 -1.2705
   29MOL   H11313049   7.119   5.115   6.255  4.1843  2.0989 -1.4161
   29MOL   H11413050   7.191   4.943   6.426  1.8053 -0.3703 -0.4177
   29MOL   H11513051   7.198   4.647   6.113 -1.9828  0.0734  1.3496
   29MOL   H11613052   7.132   4.814   5.950 -1.1242  0.5663 -0.2022
   29MOL   O11713053   7.468   4.667   6.519  0.1555 -0.3563 -0.0955
   29MOL   C11813054   7.584   4.700   6.455 -0.2071  0.5932 -0.1555
   29MOL   C11913055   7.637   4.579   6.377 -0.7472 -0.1163  0.3750
   29MOL   O12013056   7.684   4.480   6.462  0.2835 -0.1884  0.5065
   29MOL   C12113057   7.812   4.467   6.501  0.0196  0.1584 -0.6566
   29MOL   O12213058   7.907   4.535   6.457 -0.0241 -0.7443 -0.5471
   29MOL   C12313059   7.837   4.355   6.588 -0.6892 -0.4679  0.4114
   29MOL   C12413060   7.738   4.271   6.627 -0.1606  0.0962 -0.1643
   29MOL   C12513061   7.768   4.165   6.712 -0.6634  0.2940  0.3393
   29MOL   C12613062   7.898   4.137   6.755  0.3251  0.2078 -0.0920
   29MOL   C12713063   7.921   4.015   6.835 -0.5268 -0.1561  0.1884
   29MOL   O12813064   7.832   3.938   6.869  0.1795  0.4653  0.3795
   29MOL   O12913065   8.049   3.994   6.872 -0.5897 -0.0844  0.4940
   29MOL   C13013066   8.000   4.226   6.722  0.2693 -0.7367  1.0550
   29MOL   C13113067   7.972   4.332   6.632 -0.6629  0.1555  0.0740
   29MOL   H13213068   7.570   4.787   6.392 -0.4647  0.9319  0.3663
   29MOL   H13313069   7.658   4.725   6.531  1.2486 -0.5665 -1.1673
   29MOL   H13413070   7.720   4.615   6.316 -0.8204  0.0632  0.3811
   29MOL   H13513071   7.565   4.544   6.302 -1.4612  0.6726  0.6909
   29MOL   H13613072   7.636   4.289   6.594  0.7264  2.7561 -1.6116
   29MOL   H13713073   7.692   4.097   6.747  0.3434 -1.5963 -1.1001
   29MOL   H13813074   8.106   4.206   6.735  0.6782 -0.3575 -1.4124
   29MOL   H13913075   8.056   4.389   6.595  0.7181  1.0407  4.2878
   29MOL   O14013076   8.088   3.861   6.922  1.2381 -0.3375 -0.0401
   29MOL   C14113077   8.096   3.773   6.809  0.5693  0.8837 -0.0197
   29MOL   C14213078   8.178   3.641   6.840 -0.0082 -0.0569  0.0547
   29MOL   O14313079   8.088   3.540   6.881  0.0653  0.0619  0.1772
   29MOL   C14413080   8.028   3.456   6.792  0.0635  0.6564  0.0882
   29MOL   O14513081   8.042   3.464   6.667 -0.4191  0.4173 -0.7506
   29MOL   C14613082   7.948   3.347   6.866  0.7011 -0.0621  0.0177
   29MOL   C14713083   7.938   3.222   6.800  0.2350 -0.2457  0.7139
   29MOL   C14813084   7.875   3.115   6.861  0.5049 -0.6938 -0.0030
   29MOL   C14913085   7.829   3.123   6.993 -0.0196  0.4485 -0.0326
   29MOL   C15013086   7.766   3.007   7.065  0.1527 -0.0733  0.3727
   29MOL   O15113087   7.731   2.899   7.012 -0.0327 -0.4923 -0.5809
   29MOL   O15213088   7.758   3.030   7.198 -0.3443 -0.7818 -0.0473
   29MOL   C15313089   7.840   3.250   7.060 -0.1304  0.3848 -0.1982
   29MOL   C15413090   7.903   3.360   6.996 -0.4125  0.0074  0.0376
   29MOL   H15513091   8.007   3.757   6.749  1.1594  2.9780 -1.5434
   29MOL   H15613092   8.159   3.817   6.731 -1.9464  0.3350 -2.4231
   29MOL   H15713093   8.247   3.657   6.924  0.9892  0.1075 -0.7809
   29MOL   H15813094   8.236   3.610   6.753  2.4030  2.8427  0.5271
   29MOL   H15913095   7.978   3.199   6.702 -0.4895  1.2333  0.0559
   29MOL   H16013096   7.886   3.019   6.813  0.9549 -0.2174 -0.8606
   29MOL   H16113097   7.818   3.257   7.165  1.2827  0.2849  0.1116
   29MOL   H16213098   7.913   3.448   7.057 -0.7429  0.4108 -0.4814
   29MOL   O16313099   7.694   2.925   7.280  0.1616  0.1478 -0.4414
   29MOL   C16413100   7.794   2.851   7.344 -0.1789  0.4667  0.2932
   29MOL   C16513101   7.739   2.783   7.472  0.6393  0.2114 -0.2485
   29MOL   O16613102   7.723   2.867   7.586  0.1106 -0.2074  0.3712
   29MOL   C16713103   7.823   2.900   7.665  0.3513  0.9474 -0.1031
   29MOL   O16813104   7.936   2.857   7.643  0.0330 -0.2844  0.4638
   29MOL   C16913105   7.785   2.990   7.779  0.5874 -0.8138 -0.4021
   29MOL   C17013106   7.880   3.020   7.882 -0.4379  0.1260  0.1584
   29MOL   C17113107   7.852   3.102   7.989  0.4487  0.3026  0.8208
   29MOL   C17213108   7.725   3.167   7.997  0.0055 -0.5573  0.3416
   29MOL   C17313109   7.682   3.261   8.109 -0.6846 -1.0902 -0.6978
   29MOL   O17413110   7.573   3.310   8.112 -0.3711  0.8449 -0.2669
   29MOL   O17513111   7.773   3.274   8.202 -0.1166  0.2836 -0.2650
   29MOL   C17613112   7.640   3.145   7.887 -0.3294  0.3932 -0.3381
   29MOL   C17713113   7.661   3.050   7.787  0.9367  0.4080  0.2445
   29MOL   H17813114   7.825   2.781   7.266 -1.7000 -0.5649  0.5967
   29MOL   H17913115   7.886   2.903   7.372  0.6091  1.0071 -3.0555
   29MOL   H18013116   7.799   2.699   7.507  0.2036  0.0794  0.1884
   29MOL   H18113117   7.643   2.736   7.451  0.1379  0.1924  1.9165
   29MOL   H18213118   7.980   2.984   7.865  0.0692  0.8014  1.6367
   29MOL   H18313119   7.927   3.109   8.067 -0.4148 -1.0637  1.8021
   29MOL   H18413120   7.548   3.200   7.876 -0.2733  0.4109 -0.7173
   29MOL   H18513121   7.586   3.031   7.710  0.9229  0.7445  0.1760
   29MOL   O18613122   7.719   3.351   0.055  0.5460  0.5540  0.4445
   29MOL   C18713123   7.812   3.457   0.103  0.2206 -0.0916  0.9039
   29MOL   C18813124   7.796   3.570   0.003  0.8061  0.0688 -0.0022
   29MOL   O18913125   7.876   3.564   8.162 -0.1080  0.2612 -0.0703
   29MOL   C19013126   8.004   3.619   8.172  0.6971  0.1675  0.0370
   29MOL   O19113127   8.049   3.657   0.007 -0.6499 -0.2736 -0.3239
   29MOL   C19213128   8.077   3.631   8.042  0.6133 -0.1460 -0.0239
   29MOL   C19313129   8.181   3.727   8.019  0.4018  0.2443 -0.0013
   29MOL   C19413130   8.254   3.729   7.895  0.0455  0.4414 -0.6015
   29MOL   C19513131   8.229   3.633   7.798 -0.6505 -0.0814  0.7216
   29MOL   C19613132   0.042   3.633   7.684  0.5069 -0.3504  0.3105
   29MOL   O19713133   0.127   3.719   7.661 -0.2349  0.2550 -0.0969
   29MOL   O19813134   0.024   3.527   7.600  0.0626  0.3938 -0.3476
   29MOL   C19913135   8.116   3.549   7.815  0.1717  0.2854  0.2959
   29MOL   C20013136   8.046   3.541   7.935 -1.1226 -0.2078  0.1019
   29MOL   H20113137   7.780   3.495   0.200 -0.1136  0.0570  0.7342
   29MOL   H20213138   7.915   3.420   0.108 -0.0631 -1.5693 -2.6446
   29MOL   H20313139   7.815   3.658   0.064 -1.6489 -0.2804  1.3162
   29MOL   H20413140   7.693   3.581   8.243  0.9383 -2.4311 -1.3534
   29MOL   H20513141   8.206   3.794   8.100  1.1196  0.0196 -0.0413
   29MOL   H20613142   0.062   3.798   7.894  0.6471 -0.2790 -0.2014
   29MOL   H20713143   8.088   3.468   7.750 -0.8732 -1.5280  2.9345
   29MOL   H20813144   7.974   3.462   7.949 -0.0597 -1.1062  0.6033
   29MOL   O20913145   0.139   3.514   7.496  0.0180  0.3788 -0.5557
   29MOL   C21013146   0.086   3.563   7.368  0.2269 -0.4363 -0.0330
   29MOL   C21113147   0.020   3.700   7.359  0.1822  0.3450 -0.4041
   29MOL   O21213148   8.150   3.690   7.374 -0.0386 -0.3643  1.1886
   29MOL   C21313149   8.069   3.691   7.276  0.1101  0.3476  0.4971
   29MOL   O21413150   8.113   3.675   7.161 -0.5929 -0.4492  0.4178
   29MOL   C21513151   7.925   3.710   7.308  0.0915 -0.4200 -0.0990
   29MOL   C21613152   7.892   3.718   7.443 -0.1693  0.1158  0.5591
   29MOL   C21713153   7.758   3.729   7.486  0.1413  0.1604 -0.2046
   29MOL   C21813154   7.650   3.735   7.396  0.1295  0.4972  0.1493
   29MOL   C21913155   7.506   3.753   7.438 -0.2423 -0.2015 -0.3990
   29MOL   O22013156   7.411   3.733   7.362 -0.0230 -0.2317 -0.1692
   29MOL   O22113157   7.492   3.777   7.569  0.0596 -0.0464 -0.5263
   29MOL   C22213158   7.688   3.732   7.259 -0.4548 -0.0143  0.4364
   29MOL   C22313159   7.825   3.721   7.214 -0.1626 -0.2235 -0.1029
   29MOL   H22413160   0.181   3.566   7.315  0.6760  3.4938  0.8204
   29MOL   H22513161   0.018   3.486   7.332  0.2533 -0.6043  0.2715
   29MOL   H22613162   0.050   3.752   7.268 -1.0254  2.7008  0.5146
   29MOL   H22713163   0.060   3.764   7.438 -0.6407  0.3009  0.0472
   29MOL   H22813164   7.968   3.716   7.520  0.0210  3.0186  0.5029
   29MOL   H22913165   7.736   3.727   7.591 -0.0678 -2.9477 -0.2773
   29MOL   H23013166   7.601   3.745   7.197  0.7578  0.9738 -1.0986
   29MOL   H23113167   7.853   3.726   7.110 -3.2182 -0.1713 -0.9735
   29MOL   O23213168   7.348   3.750   7.617 -0.6219  0.1171 -0.0291
   29MOL   C23313169   7.290   3.880   7.654  0.5299  0.7266 -0.1314
   29MOL   C23413170   7.260   3.978   7.540 -0.0682 -0.5689 -0.3086
   29MOL   O23513171   7.361   4.079   7.522  0.7569  0.1272  0.1531
   29MOL   C23613172   7.401   4.108   7.394  0.4550  0.3082 -0.3572
   29MOL   O23713173   7.354   4.060   7.293 -0.4545  0.3870 -0.3209
   29MOL   C23813174   7.503   4.211   7.396 -0.4164  0.5275  1.0614
   29MOL   C23913175   7.522   4.298   7.509  0.4039 -0.3640  0.0722
   29MOL   C24013176   7.616   4.401   7.510 -0.2423 -0.2596 -0.0774
   29MOL   C24113177   7.705   4.400   7.406 -0.6177 -0.2869 -0.4830
   29MOL   C24213178   7.823   4.500   7.407  1.1802 -0.1673  0.0241
   29MOL   O24313179   7.871   4.547   7.512  0.3496  0.2492  0.0450
   29MOL   O24413180   7.874   4.532   7.292  0.1911 -0.7756  0.0609
   29MOL   C24513181   7.695   4.312   7.298  0.4395  0.7306  0.4100
   29MOL   C24613182   7.589   4.221   7.284  0.2211  0.2584 -0.5676
   29MOL   H24713183   7.207   3.867   7.723 -0.1695 -2.2542 -1.4634
   29MOL   H24813184   7.365   3.931   7.715  0.5405  1.0052 -0.3764
   29MOL   H24913185   7.169   4.034   7.562  0.6768  0.4152  0.2853
   29MOL   H25013186   7.246   3.911   7.454 -4.0318  1.6179 -1.4735
   29MOL   H25113187   7.456   4.284   7.593  1.9583  0.6425  1.4988
   29MOL   H25213188   7.630   4.470   7.591  1.3374 -0.1503 -0.4375
   29MOL   H25313189   7.772   4.295   7.225  0.4038  0.7159  0.3759
   29MOL   H25413190   7.580   4.154   7.200 -0.3991 -0.8231  0.3553
   29MOL   O25513191   8.010   4.602   7.306 -0.4633 -0.0525 -0.2967
   29MOL   C25613192   8.110   4.503   7.278 -0.7107  0.6426  0.3662
   29MOL   C25713193   8.201   4.481   7.399  0.0357  0.1689 -0.7739
   29MOL   O25813194   8.136   4.436   7.521  0.3889  0.1498 -0.3380
   29MOL   C25913195   8.208   4.431   7.639 -0.8455 -0.1599  0.6099
   29MOL   O26013196   0.049   4.474   7.650 -0.8632 -0.6923  0.3808
   29MOL   C26113197   8.147   4.365   7.750 -0.7257  0.8202  0.1030
   29MOL   C26213198   8.223   4.339   7.864 -0.3927 -0.2107 -0.3743
   29MOL   C26313199   8.167   4.274   7.977 -0.5292  0.3046  0.2709
   29MOL   C26413200   8.032   4.239   7.978 -0.1167 -0.3110  0.0544
   29MOL   C26513201   7.966   4.185   8.100  0.9597 -0.3344 -0.8133
   29MOL   O26613202   7.844   4.166   8.100  0.0289 -0.1178  0.5990
   29MOL   O26713203   8.043   4.158   8.211 -0.4652 -0.3676  0.3402
   29MOL   C26813204   7.953   4.275   7.866 -0.6434 -0.0341 -1.2479
   29MOL   C26913205   8.008   4.338   7.750 -0.4712 -0.2492  0.4292
   29MOL   H27013206   8.070   4.406   7.250  2.0913 -0.4427 -0.0110
   29MOL   H27113207   8.168   4.533   7.191 -0.1154  0.7688  0.8035
   29MOL   H27213208   8.264   4.570   7.406  0.2465  0.0117 -0.6504
   29MOL   H27313209   0.015   4.423   7.375 -0.0391 -0.0530 -0.5130
   29MOL   H27413210   0.055   4.348   7.868 -0.4289 -0.2913  1.8780
   29MOL   H27513211   8.231   4.243   8.058  1.5528 -1.3455 -1.9753
   29MOL   H27613212   7.849   4.244   7.873 -1.1157  1.5386 -1.1990
   29MOL   H27713213   7.950   4.360   7.661 -1.5377 -0.3705  1.0787
   29MOL   O27813214   7.966   4.098   0.054  0.2451  0.2307 -0.6060
   29MOL   C27913215   7.925   4.192   0.152 -0.2354 -0.6157  0.7475
   29MOL   C28013216   7.859   4.122   0.278 -0.3971 -0.0652  0.3323
   29MOL   O28113217   7.750   4.037   0.237 -0.9006 -0.2908  0.1210
   29MOL   C28213218   7.618   4.066   0.260 -1.2481 -0.1561 -0.1470
   29MOL   O28313219   7.580   4.168   0.315 -0.5237 -0.2517 -0.1548
   29MOL   C28413220   7.525   3.959   0.212 -0.5615 -0.0796 -0.4655
   29MOL   C28513221   7.387   3.979   0.211 -0.0034 -0.9575 -0.6021
   29MOL   C28613222   7.295   3.879   0.179 -0.3588 -1.0325  0.0209
   29MOL   C28713223   7.338   3.757   0.139 -0.0942  0.3699 -0.5278
   29MOL   C28813224   7.236   3.647   0.117 -0.2546 -0.6118  0.4157
   29MOL   O28913225   7.118   3.652   0.156 -0.3889 -0.4343  0.3507
   29MOL   O29013226   7.301   3.534   0.070 -0.0911 -0.1604  0.3031
   29MOL   C29113227   7.480   3.734   0.133 -0.3464 -0.3315 -0.0004
   29MOL   C29213228   7.575   3.837   0.167  0.7203 -0.0366 -0.6862
   29MOL   H29313229   8.008   4.256   0.181  0.0627 -1.7845  2.5742
   29MOL   H29413230   7.853   4.259   0.106  2.3340  1.5202 -0.2655
   29MOL   H29513231   7.826   4.172   0.369  0.0433  1.7501 -0.4854
   29MOL   H29613232   7.933   4.048   0.309  0.4646  0.6992  0.1067
   29MOL   H29713233   7.357   4.076   0.247 -1.6399 -1.8258  0.4117
   29MOL   H29813234   7.188   3.894   0.183 -0.1928  0.4372 -0.5117
   29MOL   H29913235   7.516   3.636   0.107 -1.6907 -0.4698 -1.4165
   29MOL   H30013236   7.683   3.824   0.164  0.6349 -0.4957 -2.9998
   29MOL   O30113237   7.224   3.409   0.092 -0.1425 -0.9690 -0.0443
   29MOL   C30213238   7.184   3.367   8.245 -0.3609  0.8470 -0.0507
   29MOL   C30313239   7.135   3.223   8.256 -0.0605  0.6247 -0.5916
   29MOL   O30413240   7.248   3.132   8.264  0.3336 -0.3608  0.0233
   29MOL   C30513241   7.237   3.006   0.029  0.2651 -0.1058  0.2708
   29MOL   O30613242   7.137   2.961   0.092 -0.2287  0.1021 -0.0474
   29MOL   C30713243   7.352   2.922   8.260 -0.3225  0.4190  0.5195
   29MOL   C30813244   7.344   2.779   8.264  0.3094 -0.2647 -0.1649
   29MOL   C30913245   7.456   2.699   8.217  0.3053  0.3765  0.8760
   29MOL   C31013246   7.547   2.755   8.124 -0.3495 -0.3192 -0.4759
   29MOL   C31113247   7.633   2.660   8.055 -0.1037  0.3478  0.2564
   29MOL   O31213248   7.634   2.536   8.076  0.1903  0.2228  0.1370
   29MOL   O31313249   7.719   2.718   7.966 -0.0866 -0.4961 -0.2596
   29MOL   C31413250   7.553   2.900   8.110 -0.2090  0.3362 -0.2641
   29MOL   C31513251   7.459   2.977   8.184 -0.5494  0.4198 -0.0791
   29MOL   H31613252   7.101   3.433   8.218  0.5314  1.5836 -1.0569
   29MOL   H31713253   7.262   3.388   8.173 -0.0716  1.4080  0.4257
   29MOL   H31813254   7.087   3.192   8.163  0.0063 -0.0571 -0.3983
   29MOL   H31913255   7.070   3.200   0.065  0.1025 -0.0811 -0.6543
   29MOL   H32013256   7.254   2.741   0.034  0.0170  0.8829  0.2366
   29MOL   H32113257   7.457   2.591   8.223  2.3510  0.0694 -3.3294
   29MOL   H32213258   7.627   2.941   8.043  0.4067 -1.4453 -0.7060
   29MOL   H32313259   7.468   3.082   8.161 -0.6542 -0.0013 -2.1426
   29MOL   O32413260   7.773   2.621   7.863  0.1734  0.0342  0.6087
   29MOL   C32513261   7.899   2.573   7.913  0.0236  1.0643 -0.5311
   29MOL   C32613262   7.926   2.452   7.824 -0.2915  0.0868 -0.1151
   29MOL   O32713263   7.962   2.491   7.687 -0.7510  0.1573 -0.0200
   29MOL   C32813264   7.921   2.415   7.579  0.0134 -0.4444 -0.1632
   29MOL   O32913265   7.836   2.325   7.585 -0.0013 -0.2363 -0.3047
   29MOL   C33013266   7.988   2.453   7.454  1.0531  0.3338 -0.0429
   29MOL   C33113267   7.976   2.361   7.345  0.0899 -0.7772  0.1176
   29MOL   C33213268   8.036   2.393   7.220  1.0343 -0.0160  0.1710
   29MOL   C33313269   8.092   2.519   7.204  0.5583  0.9374 -0.1264
   29MOL   C33413270   8.149   2.545   7.072  0.4279  1.4379 -0.6040
   29MOL   O33513271   8.194   2.461   6.992  0.3962 -0.4977  0.0947
   29MOL   O33613272   8.131   2.672   7.034  0.0842 -0.3339  0.2584
   29MOL   C33713273   8.098   2.617   7.307 -0.9274  0.5731  0.3610
   29MOL   C33813274   8.045   2.578   7.431 -0.0072 -1.0472  0.3020
   29MOL   H33913275   7.986   2.638   7.902  1.0793 -0.3741 -0.8800
   29MOL   H34013276   7.889   2.544   8.017 -0.5268  0.6458 -0.6995
   29MOL   H34113277   7.831   2.399   7.818  0.6430 -1.6619  0.4250
   29MOL   H34213278   7.998   2.384   7.870 -0.6732 -1.2282 -1.4378
   29MOL   H34313279   7.931   2.265   7.367 -1.7532  0.1425  0.4553
   29MOL   H34413280   8.033   2.316   7.144  1.0029  0.9704 -0.8471
   29MOL   H34513281   8.138   2.716   7.295  0.8882  0.0233  1.5930
   29MOL   H34613282   8.040   2.644   7.516  1.4113 -1.1228  0.4563
   29MOL   O34713283   8.137   2.695   6.884 -0.4479  0.3940  0.5125
   29MOL   C34813284   8.001   2.706   6.837  0.1085 -0.5067 -0.3119
   29MOL   C34913285   7.925   2.579   6.802  0.5940 -0.3799  0.0386
   29MOL   O35013286   7.863   2.519   6.908  0.4398  0.4041  0.5930
   29MOL   C35113287   7.751   2.577   6.956  1.2951  0.3536 -0.0428
   29MOL   O35213288   7.693   2.670   6.898  0.0303  0.0243 -0.1774
   29MOL   C35313289   7.697   2.504   7.075  0.9775  0.2047  0.2248
   29MOL   C35413290   7.613   2.572   7.167 -0.0458 -0.4806 -0.4855
   29MOL   C35513291   7.552   2.499   7.271  0.3994 -0.0251  0.3969
   29MOL   C35613292   7.580   2.359   7.285 -0.2911 -0.2238  0.5450
   29MOL   C35713293   7.513   2.287   7.398 -0.1615  0.0506  0.1090
   29MOL   O35813294   7.406   2.322   7.456  0.3532 -0.2422 -0.0778
   29MOL   O35913295   7.576   2.169   7.435  0.2538  1.0272 -0.5182
   29MOL   C36013296   7.673   2.295   7.198 -0.2948  0.2757  0.3022
   29MOL   C36113297   7.722   2.364   7.088  0.1631 -0.8155  0.6266
   29MOL   H36213298   7.950   2.772   6.907  0.5082  0.2688 -0.7420
   29MOL   H36313299   8.002   2.765   6.745 -2.6879  1.4437  0.8331
   29MOL   H36413300   7.992   2.509   6.753  0.3887 -0.6051  0.0799
   29MOL   H36513301   7.844   2.597   6.731 -1.6112 -1.3697  2.2414
   29MOL   H36613302   7.599   2.677   7.145 -1.9943 -0.8579 -1.1713
   29MOL   H36713303   7.490   2.548   7.345  1.8152  1.4489  0.6227
   29MOL   H36813304   7.687   2.188   7.201  0.0871  0.3018 -0.3658
   29MOL   H36913305   7.790   2.329   7.011 -0.0840  1.1246 -0.5122
   29MOL   O37013306   7.488   2.078   7.503  0.0350 -0.6591  0.8544
   29MOL   C37113307   7.533   2.080   7.634 -0.0847 -0.4011 -0.3620
   29MOL   C37213308   7.458   1.971   7.708 -0.4500 -1.0102  0.1756
   29MOL   O37313309   7.494   1.861   7.627 -0.1254  0.1990  0.1743
   29MOL   C37413310   7.403   1.762   7.586 -0.2949 -0.4429 -0.2020
   29MOL   O37513311   7.280   1.776   7.603 -0.3357 -0.3085  0.3196
   29MOL   C37613312   7.463   1.639   7.544 -0.5381 -0.5089  0.7335
   29MOL   C37713313   7.379   1.526   7.519 -0.2842  0.7663  0.0739
   29MOL   C37813314   7.428   1.406   7.466 -0.5044  0.9828 -0.4881
   29MOL   C37913315   7.564   1.396   7.437 -0.6155  0.1344 -0.4335
   29MOL   C38013316   7.624   1.262   7.392 -0.2462 -0.4757  0.4242
   29MOL   O38113317   7.569   1.155   7.407 -0.3064 -0.1368 -0.2028
   29MOL   O38213318   7.760   1.268   7.362  0.0132  0.0659 -0.1829
   29MOL   C38313319   7.654   1.505   7.469 -0.0305 -0.3878  0.8503
   29MOL   C38413320   7.598   1.626   7.515 -0.0026  0.2406  1.0315
   29MOL   H38513321   7.639   2.056   7.647  0.3015  0.9944 -0.9097
   29MOL   H38613322   7.513   2.177   7.679  0.9927  0.5106 -1.8227
   29MOL   H38713323   7.349   1.971   7.702 -0.3947  1.9302 -1.4506
   29MOL   H38813324   7.507   1.953   7.804 -0.4945 -0.6350  0.2684
   29MOL   H38913325   7.276   1.537   7.549 -0.0411  1.3811  0.7166
   29MOL   H39013326   7.365   1.318   7.456  1.4792 -0.8671  2.6128
   29MOL   H39113327   7.761   1.498   7.465 -0.0817 -1.0127  0.4329
   29MOL   H39213328   7.664   1.706   7.545  0.0142  0.5095  0.2748
   29MOL   O39313329   7.844   1.142   7.374 -0.1747  0.8180  0.2032
   29MOL   C39413330   7.914   1.136   7.496  0.2877 -0.2741 -0.0744
   29MOL   C39513331   7.993   1.266   7.529 -0.4529  0.3358 -0.4498
   29MOL   O39613332   7.966   1.317   7.657  0.3605  0.9764  0.3658
   29MOL   C39713333   8.035   1.424   7.703  0.5418 -0.4351 -0.5674
   29MOL   O39813334   8.127   1.472   7.641  0.5284  0.0642 -0.2355
   29MOL   C39913335   7.992   1.465   7.840 -0.7954 -1.3999 -0.6604
   29MOL   C40013336   7.885   1.407   7.911 -0.1044  0.0837 -0.2476
   29MOL   C40113337   7.835   1.463   8.035  0.0805 -0.0010 -0.0399
   29MOL   C40213338   7.898   1.578   8.085  0.3550 -0.0196 -0.4850
   29MOL   C40313339   7.869   1.633   8.220  0.1917  0.6220  0.1875
   29MOL   O40413340   7.965   1.668   0.011 -0.0877 -0.0675  0.4615
   29MOL   O40513341   7.742   1.671   8.251  0.6101  0.0372 -0.4708
   29MOL   C40613342   8.013   1.629   8.025 -0.7218 -0.0423 -0.2339
   29MOL   C40713343   8.055   1.582   7.897 -0.0878 -0.9403 -0.2233
   29MOL   H40813344   7.838   1.119   7.573 -0.8430  1.8586 -0.6665
   29MOL   H40913345   7.978   1.048   7.500 -1.0020 -1.1263  4.2625
   29MOL   H41013346   7.960   1.348   7.465  0.3242  1.1165  0.1340
   29MOL   H41113347   8.101   1.260   7.516 -0.8115 -1.3197 -2.9521
   29MOL   H41213348   7.839   1.318   7.871  0.4712 -0.2452 -0.1868
   29MOL   H41313349   7.761   1.414   8.097 -0.1218  0.0734 -0.2196
   29MOL   H41413350   8.062   1.717   8.064 -0.4762 -0.3157  0.0663
   29MOL   H41513351   8.134   1.636   7.846 -1.2233  0.9288 -0.0478
   29MOL   O41613352   7.714   1.720   0.112 -0.0419  0.1441 -0.1184
   29MOL   C41713353   7.742   1.861   0.107 -0.1860 -0.2916  0.1152
   29MOL   C41813354   7.673   1.938   8.275  0.9395  0.2995 -0.0390
   29MOL   O41913355   7.731   1.929   8.147  0.2177  0.3134  0.4437
   29MOL   C42013356   7.805   2.031   8.085 -0.1768 -0.4510 -0.3287
   29MOL   O42113357   7.827   2.138   8.140 -0.1420  0.2705 -0.5412
   29MOL   C42213358   7.852   1.993   7.954  1.0848  0.2079 -0.6810
   29MOL   C42313359   7.915   2.084   7.882  0.3530  0.1620 -0.9673
   29MOL   C42413360   7.948   2.055   7.749  0.1848  0.6771  0.3258
   29MOL   C42513361   7.926   1.930   7.687 -0.0399 -0.1677 -1.1310
   29MOL   C42613362   7.962   1.913   7.541 -0.1745  0.7804  0.0571
   29MOL   O42713363   7.965   2.007   7.461 -0.2963  0.3545  0.0332
   29MOL   O42813364   7.987   1.787   7.513 -0.9604 -0.0895 -0.2616
   29MOL   C42913365   7.866   1.829   7.769 -0.1789 -0.2724  0.2252
   29MOL   C43013366   7.820   1.869   7.896  0.1916 -0.4255  0.6054
   29MOL   H43113367   7.713   1.894   0.206 -0.3093  0.9316 -0.3102
   29MOL   H43213368   7.849   1.882   0.097 -0.0851  0.8986  3.2487
   29MOL   H43313369   7.672   2.037   0.045 -0.4686  1.4664 -2.5190
   29MOL   H43413370   7.569   1.909   8.262  1.2575 -1.6659  1.4855
   29MOL   H43513371   7.927   2.187   7.912  2.1008 -0.8141  1.8554
   29MOL   H43613372   7.995   2.131   7.689 -0.7190  1.1092  0.1549
   29MOL   H43713373   7.840   1.733   7.727 -1.1679  0.0858  0.0035
   29MOL   H43813374   7.760   1.797   7.951  1.5382 -2.8374 -0.9746
   29MOL   O43913375   8.016   1.760   7.369 -0.4518  0.0977  0.4184
   29MOL   C44013376   8.153   1.711   7.363 -0.2882 -0.3250  0.2856
   29MOL   C44113377   8.190   1.636   7.227 -0.1875 -0.1493  0.2136
   29MOL   O44213378   8.193   1.496   7.256  0.5674  0.7058 -0.4039
   29MOL   C44313379   0.016   1.441   7.322 -0.8415  0.2292 -0.1024
   29MOL   O44413380   0.110   1.500   7.377  0.3252  0.1993  0.5191
   29MOL   C44513381   0.021   1.291   7.317  0.2183  0.3505 -0.1330
   29MOL   C44613382   0.147   1.225   7.347 -0.4137  0.1839  0.2333
   29MOL   C44713383   0.160   1.083   7.336  0.3013 -0.5617  0.3598
   29MOL   C44813384   0.037   1.012   7.313 -0.4478 -0.0623  0.4797
   29MOL   C44913385   0.046   0.859   7.301 -0.9647 -0.3272 -0.9400
   29MOL   O45013386   0.158   0.803   7.303  0.4755 -0.2236 -0.3067
   29MOL   O45113387   8.204   0.792   7.299 -0.2890  0.4538 -0.2466
   29MOL   C45213388   8.195   1.073   7.280  1.0105 -0.2018 -0.6062
   29MOL   C45313389   8.181   1.212   7.275 -0.3033 -0.7027 -0.2793
   29MOL   H45413390   8.219   1.798   7.354  0.0292 -0.5548  0.3615
   29MOL   H45513391   8.187   1.654   7.450 -1.6665 -0.4982  0.7169
   29MOL   H45613392   0.003   1.675   7.176  0.5352 -2.8381 -0.6920
   29MOL   H45713393   8.103   1.654   7.165 -1.2247  0.9794  1.9496
   29MOL   H45813394   0.233   1.285   7.371  1.8534 -2.9963  0.4017
   29MOL   H45913395   0.260   1.044   7.342 -0.0448 -1.2270  1.8381
   29MOL   H46013396   8.111   1.013   7.248  0.0950 -0.3187  1.9237
   29MOL   H46113397   8.091   1.257   7.236  0.1940 -0.7770 -1.5343
   29MOL   H46213398   8.222   0.699   7.309 -1.6566  0.2709  0.7301
   30MOL     O113399   1.474   2.628   0.472 -0.4529  0.7504 -0.3552
   30MOL     C213400   1.486   2.486   0.472 -0.4003  0.6301 -0.3177
   30MOL     C313401   1.380   2.408   0.391  0.6529  0.1597  0.0796
   30MOL     O413402   1.394   2.433   0.252 -0.5626  0.1711 -0.0326
   30MOL     C513403   1.379   2.334   0.161 -0.3613  0.0202  0.0702
   30MOL     O613404   1.369   2.215   0.194 -0.1375  0.0838  0.3234
   30MOL     C713405   1.390   2.387   0.016  0.1210 -0.4307  0.2496
   30MOL     C813406   1.397   2.522   8.251  0.1753 -0.1551  0.7203
   30MOL     C913407   1.406   2.553   8.112  0.0021 -0.0930  0.1692
   30MOL    C1013408   1.407   2.453   8.008 -0.2386  0.0509  0.6743
   30MOL    C1113409   1.433   2.490   7.869 -0.1620 -0.3920  0.0116
   30MOL    O1213410   1.438   2.610   7.828  0.0717 -0.3269 -0.0190
   30MOL    O1313411   1.461   2.387   7.784 -0.1182  0.5300  0.1739
   30MOL    C1413412   1.408   2.319   8.054 -0.2481 -0.2973  0.2643
   30MOL    C1513413   1.404   2.285   8.191  0.1016 -0.1397  0.2955
   30MOL    H1613414   1.586   2.465   0.434 -1.0773  1.5101 -2.6772
   30MOL    H1713415   1.495   2.461   0.578 -0.9064  1.5497 -0.0480
   30MOL    H1813416   1.277   2.436   0.416  1.4173  0.1455  3.4642
   30MOL    H1913417   1.381   2.305   0.426 -0.7529  0.3631  0.7632
   30MOL    H2013418   1.396   2.606   0.044 -1.9449  1.3491 -1.0977
   30MOL    H2113419   1.417   2.655   8.079 -0.0533 -0.0860  0.1741
   30MOL    H2213420   1.420   2.240   7.982  1.6470 -0.0557  0.3032
   30MOL    H2313421   1.406   2.183   8.226  0.0820 -0.7370 -1.4099
   30MOL    H2413422   1.508   2.675   0.546  0.7101 -1.0717  0.2849
   30MOL    O2513423   1.516   2.429   7.651  0.2280  0.0212  0.3010
   30MOL    C2613424   1.651   2.396   7.652  0.0146  0.1824  0.5087
   30MOL    C2713425   1.695   2.447   7.510 -0.3839 -0.5671  0.0280
   30MOL    O2813426   1.811   2.392   7.457 -0.2729 -0.6722  0.4589
   30MOL    C2913427   1.801   2.271   7.400  0.1778  0.0053 -0.5221
   30MOL    O3013428   1.695   2.205   7.398  0.2011 -0.1260  0.0967
   30MOL    C3113429   1.935   2.225   7.347 -0.1358  0.6935  0.0741
   30MOL    C3213430   2.039   2.317   7.336  0.1964  0.0910 -0.4608
   30MOL    C3313431   2.166   2.268   7.303  0.3474 -0.7710 -0.0968
   30MOL    C3413432   2.190   2.135   7.275 -0.5624 -0.0873  0.2638
   30MOL    C3513433   2.327   2.083   7.249  0.0325 -0.2180 -0.7529
   30MOL    O3613434   2.341   1.965   7.214  0.0995 -0.1708  0.2747
   30MOL    O3713435   2.425   2.168   7.288  0.3609 -0.5174  0.0797
   30MOL    C3813436   2.081   2.043   7.275  0.5810  0.1749 -0.1672
   30MOL    C3913437   1.957   2.090   7.315  0.8110 -0.0027 -0.3199
   30MOL    H4013438   1.705   2.450   7.729  1.7300 -1.4738  0.4866
   30MOL    H4113439   1.666   2.290   7.673  1.3616  0.2399 -0.1505
   30MOL    H4213440   1.702   2.556   7.511 -0.0451 -0.5825 -0.3207
   30MOL    H4313441   1.615   2.431   7.437  0.3907  0.2035 -1.0184
   30MOL    H4413442   2.021   2.421   7.361  1.7793  0.3187 -0.2193
   30MOL    H4513443   2.250   2.336   7.298 -0.1093 -0.2483 -0.8125
   30MOL    H4613444   2.094   1.938   7.258  0.8258  0.0013  1.0634
   30MOL    H4713445   1.877   2.017   7.312  0.6873  0.0899  0.6837
   30MOL    O4813446   2.565   2.103   7.270 -0.2669  0.4385 -0.1408
   30MOL    C4913447   2.617   2.080   7.400 -0.1525  0.3766  0.3209
   30MOL    C5013448   2.536   1.975   7.483 -0.0943 -0.9682  0.2528
   30MOL    O5113449   2.412   2.022   7.541  0.2618 -0.6597  0.3654
   30MOL    C5213450   2.360   1.945   7.634 -0.2064  0.2101 -0.4055
   30MOL    O5313451   2.408   1.835   7.664  0.6905 -0.2073  0.1634
   30MOL    C5413452   2.247   2.013   7.706 -0.3497 -0.4865  0.7416
   30MOL    C5513453   2.167   2.119   7.642 -0.1942 -0.2147 -0.1168
   30MOL    C5613454   2.060   2.175   7.715  1.3685  0.1316 -0.2405
   30MOL    C5713455   2.033   2.128   7.847  0.3971  0.0092  0.3750
   30MOL    C5813456   1.922   2.177   7.928  0.4032  0.5583 -1.0141
   30MOL    O5913457   1.891   2.125   8.042  0.2321  0.2497  0.5448
   30MOL    O6013458   1.865   2.298   7.897  0.2293  0.0412 -0.0081
   30MOL    C6113459   2.111   2.027   7.912 -0.3326  0.9056  0.0359
   30MOL    C6213460   2.217   1.973   7.835  0.4570 -0.1818  0.3473
   30MOL    H6313461   2.722   2.050   7.399 -0.2181  0.1389 -1.5755
   30MOL    H6413462   2.626   2.175   7.453 -0.1120  0.5476  0.0057
   30MOL    H6513463   2.595   1.935   7.566  1.3753  3.8141  1.6911
   30MOL    H6613464   2.510   1.894   7.415  0.8004  0.3533 -1.7314
   30MOL    H6713465   2.205   2.142   7.543 -1.5093 -0.2612 -0.6443
   30MOL    H6813466   1.999   2.254   7.674  0.1451 -0.1101  1.0870
   30MOL    H6913467   2.097   1.978   8.007  4.6343  0.9077  0.8902
   30MOL    H7013468   2.272   1.890   7.878  0.4574  0.9186  2.5474
   30MOL    O7113469   1.736   2.332   7.967 -0.2244  0.8161 -0.7437
   30MOL    C7213470   1.761   2.421   8.072 -0.1486  0.0636 -0.3474
   30MOL    C7313471   1.795   2.362   8.208  0.8293  0.0549  0.0542
   30MOL    O7413472   1.935   2.341   8.210  0.1424 -0.0791 -0.2734
   30MOL    C7513473   1.994   2.320   0.049  0.4636  0.4988 -0.4733
   30MOL    O7613474   1.933   2.310   0.159 -0.5511 -1.0185  0.1591
   30MOL    C7713475   2.140   2.298   0.035  0.5431  0.1923 -0.6611
   30MOL    C7813476   2.187   2.202   8.224  0.0028  0.2346 -0.0280
   30MOL    C7913477   2.324   2.180   8.209 -0.4292 -0.4140 -0.5891
   30MOL    C8013478   2.420   2.267   8.273  0.3264 -0.4817 -0.3428
   30MOL    C8113479   2.566   2.241   8.243 -0.2769  0.4522 -0.2322
   30MOL    O8213480   2.606   2.159   8.167 -0.3376 -0.2311  0.1332
   30MOL    O8313481   2.647   2.334   0.025  0.3189  0.3922 -0.4053
   30MOL    C8413482   2.374   2.368   0.085 -0.2725  1.0129 -0.1082
   30MOL    C8513483   2.235   2.384   0.099 -1.4143  0.0442  0.2722
   30MOL    H8613484   1.837   2.492   8.039 -0.3258  0.3232 -0.1964
   30MOL    H8713485   1.671   2.481   8.089  0.2024  0.3966  0.3449
   30MOL    H8813486   1.749   2.264   8.222 -0.7226  0.6427 -0.7199
   30MOL    H8913487   1.764   2.430   0.012 -1.2686  1.2536 -1.7106
   30MOL    H9013488   2.124   2.124   8.184  0.9027 -0.1102 -0.8059
   30MOL    H9113489   2.365   2.109   8.139  1.4476  2.3912 -2.4444
   30MOL    H9213490   2.440   2.441   0.130  1.6924 -1.3536  0.9484
   30MOL    H9313491   2.206   2.447   0.182  1.5300 -1.0117  2.1615
   30MOL    O9413492   2.793   2.343   8.242  0.6124  0.0475  0.2402
   30MOL    C9513493   2.798   2.442   8.145  0.4967 -0.7866 -0.6461
   30MOL    C9613494   2.877   2.565   8.196  0.4924  0.9485 -0.1866
   30MOL    O9713495   2.774   2.636   8.261 -0.3661 -0.5616 -0.5177
   30MOL    C9813496   2.773   2.645   0.119  0.8574  0.4339  0.5075
   30MOL    O9913497   2.869   2.621   0.189  0.3049  0.4952 -0.3165
   30MOL   C10013498   2.648   2.705   0.167  0.5547  0.2040 -0.0923
   30MOL   C10113499   2.636   2.725   0.306 -0.0760  0.0228 -0.3693
   30MOL   C10213500   2.511   2.777   0.355  0.4041  0.0182  0.3436
   30MOL   C10313501   2.404   2.801   0.268  0.1745 -0.4316 -0.9474
   30MOL   C10413502   2.264   2.848   0.320 -0.1080  1.1441 -0.4602
   30MOL   O10513503   2.163   2.836   0.255  0.1722  0.6799 -0.2795
   30MOL   O10613504   2.272   2.900   0.441  0.0943 -0.1559  0.6048
   30MOL   C10713505   2.422   2.780   0.132 -0.6970 -0.9625 -0.3924
   30MOL   C10813506   2.542   2.731   0.078 -0.1811 -0.4742 -0.3686
   30MOL   H10913507   2.842   2.397   8.056  2.3608 -0.3207  0.0119
   30MOL   H11013508   2.699   2.470   8.109  2.6783  3.3614 -3.8725
   30MOL   H11113509   2.906   2.627   8.112 -1.2037  0.5676 -1.0778
   30MOL   H11213510   2.963   2.547   8.261 -1.5068 -2.8779  1.6094
   30MOL   H11313511   2.716   2.695   0.372 -1.6303 -0.9416  1.1022
   30MOL   H11413512   2.494   2.792   0.460 -1.2490  1.7240 -0.1162
   30MOL   H11513513   2.337   2.805   0.070 -0.6095 -0.9042 -0.4874
   30MOL   H11613514   2.550   2.718   8.246  3.8812 -1.8339 -0.0111
   30MOL   O11713515   2.140   2.941   0.495 -0.7207  0.6924 -0.4406
   30MOL   C11813516   2.108   2.860   0.608 -0.4435  0.1021  0.1858
   30MOL   C11913517   2.193   2.885   0.733 -0.1945 -0.4293 -0.1836
   30MOL   O12013518   2.312   2.809   0.727 -0.1714  0.1961  0.6736
   30MOL   C12113519   2.406   2.820   0.825 -0.0165  0.3196 -0.2317
   30MOL   O12213520   2.394   2.898   0.919 -0.2542 -0.8168 -0.1601
   30MOL   C12313521   2.519   2.727   0.802 -0.4649  0.4282 -0.2127
   30MOL   C12413522   2.645   2.749   0.859  0.2402  0.1212  0.9401
   30MOL   C12513523   2.752   2.661   0.853  0.0304  0.7441 -0.1830
   30MOL   C12613524   2.737   2.542   0.783  0.2695  0.2796 -0.5716
   30MOL   C12713525   2.855   2.447   0.786  0.3146  0.0983  0.6505
   30MOL   O12813526   2.945   2.459   0.866  0.0674  0.2693  0.0983
   30MOL   O12913527   2.838   2.345   0.708 -0.9983 -0.7388  0.6681
   30MOL   C13013528   2.614   2.515   0.718  0.3190 -0.6180 -0.7615
   30MOL   C13113529   2.508   2.608   0.729 -0.4050  0.3956 -0.2828
   30MOL   H13213530   2.006   2.885   0.637  0.1509  1.5570  1.0842
   30MOL   H13313531   2.106   2.757   0.572 -0.2216 -0.0515  0.6154
   30MOL   H13413532   2.141   2.865   0.827  1.2738 -3.1830  0.0927
   30MOL   H13513533   2.221   2.989   0.718 -1.4897 -0.5119 -3.6370
   30MOL   H13613534   2.661   2.836   0.922  0.8945  0.8038 -0.1500
   30MOL   H13713535   2.843   2.677   0.909 -0.6409  0.4366  1.0127
   30MOL   H13813536   2.590   2.425   0.664 -1.0000 -0.5473 -0.3238
   30MOL   H13913537   2.413   2.582   0.684  0.6537 -2.7573 -0.8654
   30MOL   O14013538   2.954   2.248   0.714 -0.2862  0.4185 -0.0999
   30MOL   C14113539   2.915   2.129   0.784 -1.0710  0.1478 -0.2263
   30MOL   C14213540   3.024   2.028   0.757 -0.5914  0.0629  0.0829
   30MOL   O14313541   2.998   1.973   0.637 -0.7280 -0.1062  0.7912
   30MOL   C14413542   2.999   1.829   0.631  0.6532  0.2163 -0.0137
   30MOL   O14513543   3.066   1.765   0.712  0.2457 -0.4048 -0.1269
   30MOL   C14613544   2.929   1.773   0.511 -0.1739 -1.3200 -0.9310
   30MOL   C14713545   2.968   1.645   0.483  0.6015 -0.9135 -0.1224
   30MOL   C14813546   2.924   1.583   0.366  0.5129  0.1138  1.3664
   30MOL   C14913547   2.838   1.647   0.273 -0.3048 -0.6712  0.5817
   30MOL   C15013548   2.779   1.578   0.154  0.5034  0.3003 -0.3077
   30MOL   O15113549   2.685   1.626   0.091  0.3329  0.6447  0.6679
   30MOL   O15213550   2.835   1.453   0.133  0.2551  0.4816  0.0172
   30MOL   C15313551   2.797   1.782   0.305  0.0062  0.3544  0.4824
   30MOL   C15413552   2.839   1.843   0.431 -0.7100 -0.4588  1.1381
   30MOL   H15513553   2.909   2.161   0.888 -2.7927  0.6368 -0.4613
   30MOL   H15613554   2.811   2.097   0.772 -1.3921  1.2179 -0.3486
   30MOL   H15713555   3.031   1.956   0.838 -0.6011  0.0520  0.0739
   30MOL   H15813556   3.119   2.080   0.761 -1.0411  0.7745  2.9305
   30MOL   H15913557   3.034   1.596   0.552  2.4301 -1.0982 -1.9565
   30MOL   H16013558   2.951   1.479   0.349  3.0734  1.0911 -0.8849
   30MOL   H16113559   2.721   1.825   0.242  1.3917  0.3569 -1.2269
   30MOL   H16213560   2.816   1.947   0.449 -1.1425 -0.3993  0.2583
   30MOL   O16313561   2.771   1.374   0.025  0.0258  0.6342  0.2485
   30MOL   C16413562   2.684   1.288   0.080 -0.1781  0.3422  0.0375
   30MOL   C16513563   2.755   1.176   0.157 -0.1398 -0.0360 -0.3082
   30MOL   O16613564   2.751   1.207   0.292 -0.0214  0.5084 -0.0136
   30MOL   C16713565   2.816   1.125   0.376 -0.4236 -0.4791  0.6866
   30MOL   O16813566   2.883   1.021   0.348  0.1698 -0.0397  0.2536
   30MOL   C16913567   2.809   1.185   0.513  0.8220 -0.3179 -0.3709
   30MOL   C17013568   2.844   1.099   0.622 -1.0131  0.4493  1.0356
   30MOL   C17113569   2.836   1.133   0.759 -0.0685 -0.2038  0.5107
   30MOL   C17213570   2.797   1.268   0.793  0.0898 -0.2847  0.1742
   30MOL   C17313571   2.780   1.319   0.928  0.4760  0.2112  0.4667
   30MOL   O17413572   2.702   1.406   0.971  0.5846  0.4512  0.7499
   30MOL   O17513573   2.881   1.269   1.013 -0.1287 -0.1408 -0.5344
   30MOL   C17613574   2.768   1.356   0.690 -0.3755  0.1180  0.7986
   30MOL   C17713575   2.766   1.315   0.553 -0.0811 -0.0307  0.0437
   30MOL   H17813576   2.610   1.345   0.136 -0.3732  1.3225 -1.1929
   30MOL   H17913577   2.633   1.249   8.267  0.1733 -1.5320  0.6512
   30MOL   H18013578   2.856   1.166   0.117  0.0570  2.9205 -0.6402
   30MOL   H18113579   2.700   1.082   0.145 -1.4128  0.4870  1.3074
   30MOL   H18213580   2.892   1.005   0.598 -0.4315  0.5830  1.6541
   30MOL   H18313581   2.868   1.065   0.836  0.5006  0.1530  0.5880
   30MOL   H18413582   2.749   1.460   0.709 -1.3942  0.2089 -0.5753
   30MOL   H18513583   2.728   1.384   0.479 -0.7835  0.0618  0.4746
   30MOL   O18613584   2.898   1.343   1.148  0.1498  0.2101 -0.3197
   30MOL   C18713585   2.818   1.274   1.240  0.0316  0.8072  0.8544
   30MOL   C18813586   2.795   1.360   1.370  0.4113  0.1727 -0.5149
   30MOL   O18913587   2.697   1.462   1.346  0.0219  0.1668  0.0684
   30MOL   C19013588   2.561   1.421   1.336 -0.1657  0.4863  0.2044
   30MOL   O19113589   2.521   1.303   1.350 -0.0060  0.7123 -0.4057
   30MOL   C19213590   2.469   1.531   1.307 -0.9248  0.3666 -0.6332
   30MOL   C19313591   2.332   1.507   1.279 -0.7594 -0.3864 -0.8431
   30MOL   C19413592   2.242   1.607   1.264  0.2606 -0.3786 -0.2644
   30MOL   C19513593   2.283   1.740   1.265  0.1027 -0.4316  0.1123
   30MOL   C19613594   2.197   1.851   1.233  0.2539 -0.3208 -0.1019
   30MOL   O19713595   2.230   1.968   1.210  0.2548 -0.3447  0.6129
   30MOL   O19813596   2.068   1.819   1.237 -0.0282 -0.3322 -0.1026
   30MOL   C19913597   2.421   1.768   1.279 -0.0952  0.0840 -1.1157
   30MOL   C20013598   2.515   1.661   1.299 -0.0872 -0.4438  0.5152
   30MOL   H20113599   2.728   1.231   1.196  2.0662 -1.9001 -0.7773
   30MOL   H20213600   2.873   1.185   1.271 -1.4148 -0.4442 -0.0663
   30MOL   H20313601   2.888   1.397   1.412  1.0678 -1.0712 -0.8368
   30MOL   H20413602   2.748   1.301   1.449 -1.1179 -2.1777 -3.0462
   30MOL   H20513603   2.297   1.406   1.294  1.6415 -0.8905  1.7114
   30MOL   H20613604   2.137   1.583   1.256 -0.8159  3.6039  0.7394
   30MOL   H20713605   2.460   1.868   1.280  1.1922 -0.4004  2.6902
   30MOL   H20813606   2.621   1.679   1.314  0.5041 -2.2942 -1.2498
   30MOL   O20913607   1.979   1.912   1.156 -0.5012 -0.1065 -0.4499
   30MOL   C21013608   1.942   1.846   1.035 -0.0992 -0.2031  0.2426
   30MOL   C21113609   2.048   1.859   0.926 -0.0780  0.5120  0.2141
   30MOL   O21213610   1.980   1.884   0.808 -0.3073  0.1093  0.1947
   30MOL   C21313611   1.949   2.016   0.787 -0.4166 -0.7616  0.1118
   30MOL   O21413612   1.973   2.114   0.867 -0.2639  0.2161  0.1860
   30MOL   C21513613   1.875   2.037   0.660  0.0946 -0.5229  0.1047
   30MOL   C21613614   1.830   1.927   0.584  0.7211 -0.3157  0.1208
   30MOL   C21713615   1.747   1.954   0.472  0.5158 -0.4470  0.0559
   30MOL   C21813616   1.741   2.083   0.419 -0.0101 -0.2328  0.6033
   30MOL   C21913617   1.680   2.113   0.288  0.0020  0.2884  0.5196
   30MOL   O22013618   1.655   2.223   0.247 -0.0446 -0.0245 -0.8263
   30MOL   O22113619   1.652   2.001   0.223 -0.1767 -0.5628  0.3041
   30MOL   C22213620   1.777   2.190   0.505  0.2627 -0.3125 -0.1604
   30MOL   C22313621   1.834   2.171   0.630 -0.4339  0.5371 -0.3200
   30MOL   H22413622   1.914   1.742   1.053  0.0696 -0.1339  0.9316
   30MOL   H22513623   1.846   1.879   0.996 -0.6762 -0.2686  1.5806
   30MOL   H22613624   2.114   1.773   0.927 -1.7237 -0.7709  2.3455
   30MOL   H22713625   2.112   1.940   0.962  1.0188 -0.7062  1.0803
   30MOL   H22813626   1.843   1.824   0.614  1.4741 -0.0131  0.8644
   30MOL   H22913627   1.709   1.870   0.415 -2.9023  1.2890 -0.3908
   30MOL   H23013628   1.753   2.291   0.475  0.1315 -0.3365 -0.1366
   30MOL   H23113629   1.845   2.251   0.702  1.5781  1.0625 -1.1757
   30MOL   O23213630   1.607   2.025   0.085  0.2061  0.5891  0.2882
   30MOL   C23313631   1.713   2.007   0.000 -0.1999 -0.4825  0.3535
   30MOL   C23413632   1.754   1.860   8.272 -0.0263  0.9002 -0.2120
   30MOL   O23513633   1.641   1.772   8.233  0.2828 -0.1634 -0.4335
   30MOL   C23613634   1.605   1.766   8.102  0.4503  0.0564  0.0116
   30MOL   O23713635   1.646   1.842   8.011 -0.3267 -0.0124 -0.5520
   30MOL   C23813636   1.502   1.656   8.085 -0.5538  0.3631  0.4345
   30MOL   C23913637   1.456   1.625   7.955 -0.5519  0.0415 -0.4297
   30MOL   C24013638   1.346   1.536   7.938  0.2135  0.3232  0.0532
   30MOL   C24113639   1.290   1.464   8.048 -0.5826 -0.1279 -0.3396
   30MOL   C24213640   1.171   1.383   8.035 -0.3691 -0.0667  0.2795
   30MOL   O24313641   1.133   1.318   8.127  0.0302  0.1743 -0.7520
   30MOL   O24413642   1.117   1.396   7.915 -0.8921  0.5341  0.5055
   30MOL   C24513643   1.337   1.487   8.175 -0.0495 -0.2088 -0.1970
   30MOL   C24613644   1.439   1.584   8.194  0.1317 -0.5092 -0.4265
   30MOL   H24713645   1.687   2.036   8.174  0.1962  1.2862  0.7302
   30MOL   H24813646   1.796   2.067   0.038 -1.7276  0.2507  2.6968
   30MOL   H24913647   1.782   1.822   0.094  0.5021  0.2881 -0.6014
   30MOL   H25013648   1.843   1.833   8.216 -1.5871 -1.1346 -1.8093
   30MOL   H25113649   1.497   1.676   7.869 -0.5474  0.2812 -0.2842
   30MOL   H25213650   1.318   1.505   7.839  0.9334  0.3737 -0.1692
   30MOL   H25313651   1.299   1.444   8.266  2.1028  1.1122  1.3863
   30MOL   H25413652   1.467   1.607   0.020 -0.0113 -2.9186  0.1899
   30MOL   O25513653   1.034   1.278   7.875  0.4464 -0.0229  0.1137
   30MOL   C25613654   1.107   1.207   7.770  0.5561  0.3038  1.0085
   30MOL   C25713655   1.041   1.073   7.747  0.5536  0.2289 -0.0726
   30MOL   O25813656   0.902   1.083   7.717  0.2310  0.3468  0.0767
   30MOL   C25913657   0.822   0.972   7.695 -0.6679 -0.5418  0.1503
   30MOL   O26013658   0.860   0.856   7.671 -0.6390 -0.1667  0.6834
   30MOL   C26113659   0.674   1.013   7.697  0.0027 -0.3990 -0.2069
   30MOL   C26213660   0.632   1.144   7.741 -0.2255  0.0089  0.7505
   30MOL   C26313661   0.497   1.183   7.741  0.2149  0.0395  0.5829
   30MOL   C26413662   0.393   1.094   7.698 -0.0623 -0.1121 -0.4944
   30MOL   C26513663   0.257   1.150   7.697  0.2536 -0.0390  0.6988
   30MOL   O26613664   0.226   1.259   7.745 -1.0319  0.5535 -0.4537
   30MOL   O26713665   0.179   1.081   7.623  0.0015 -0.2467 -0.0435
   30MOL   C26813666   0.432   0.962   7.664  0.1450 -0.3983 -0.0643
   30MOL   C26913667   0.570   0.920   7.665 -0.1343 -0.3004 -0.2401
   30MOL   H27013668   1.095   1.267   7.680 -1.7346 -0.8165  0.5163
   30MOL   H27113669   1.211   1.188   7.796  1.6005  1.1145 -2.3914
   30MOL   H27213670   1.054   1.002   7.829 -3.2963  3.0995  3.2127
   30MOL   H27313671   1.083   1.027   7.657  0.8485  0.2030  0.0766
   30MOL   H27413672   0.703   1.218   7.775  0.5124 -0.9560  1.3431
   30MOL   H27513673   0.482   1.287   7.764  2.3604  0.2178  1.2040
   30MOL   H27613674   0.355   0.893   7.633 -1.9137  1.8875 -0.2272
   30MOL   H27713675   0.594   0.819   7.637 -0.0052 -1.0666  2.4750
   30MOL   O27813676   0.039   1.124   7.630  0.2457 -0.0767  0.2698
   30MOL   C27913677   8.240   1.035   7.704 -0.1471 -0.2374  0.6629
   30MOL   C28013678   8.212   0.906   7.617  0.0393 -0.0048 -0.5840
   30MOL   O28113679   8.104   0.846   7.685  0.3502 -0.6431 -0.1704
   30MOL   C28213680   8.130   0.737   7.764  0.3186  0.2433  0.0676
   30MOL   O28313681   8.246   0.706   7.805 -0.7410 -0.0062 -0.7945
   30MOL   C28413682   8.002   0.668   7.800 -0.3555 -0.5995 -0.5356
   30MOL   C28513683   7.892   0.677   7.714  0.5070 -0.3336  0.2915
   30MOL   C28613684   7.766   0.634   7.759 -0.2066 -0.2758  0.3437
   30MOL   C28713685   7.752   0.576   7.887 -0.0963  0.2544 -0.2245
   30MOL   C28813686   7.627   0.547   7.943 -0.0128 -0.1627 -0.1265
   30MOL   O28913687   7.604   0.566   8.059  0.4219  0.2989 -0.5159
   30MOL   O29013688   7.535   0.518   7.849  0.1180 -0.1334 -0.2477
   30MOL   C29113689   7.864   0.567   7.972 -0.0008 -0.0551  0.1461
   30MOL   C29213690   7.992   0.610   7.928  0.1547  0.0395  0.5952
   30MOL   H29313691   0.011   1.012   7.800  1.3075  2.2859  0.6077
   30MOL   H29413692   8.146   1.085   7.725 -0.2172  0.8845 -2.0491
   30MOL   H29513693   0.022   0.839   7.611 -1.0549 -1.3379 -1.4437
   30MOL   H29613694   8.172   0.938   7.521 -1.6777 -2.4437 -0.7341
   30MOL   H29713695   7.893   0.724   7.616 -0.7020 -0.1629  0.3527
   30MOL   H29813696   7.681   0.650   7.694  0.5067 -1.1728 -0.8106
   30MOL   H29913697   7.846   0.526   8.069  0.2644  0.4593  0.4187
   30MOL   H30013698   8.081   0.603   7.990  0.4816 -1.5569 -0.0448
   30MOL   O30113699   7.396   0.537   7.893 -0.7048 -0.4136 -0.0819
   30MOL   C30213700   7.375   0.679   7.890  1.1328  0.1810 -0.5196
   30MOL   C30313701   7.374   0.730   7.743  0.9596  0.8359 -0.4019
   30MOL   O30413702   7.370   0.867   7.773 -0.3858 -0.3012 -0.6545
   30MOL   C30513703   7.484   0.946   7.755  0.3551 -0.2031 -0.1581
   30MOL   O30613704   7.587   0.918   7.693  0.0908  0.2278 -0.2004
   30MOL   C30713705   7.469   1.082   7.813  0.0061  0.3191  0.5575
   30MOL   C30813706   7.566   1.174   7.782 -0.3052 -0.0802 -0.1963
   30MOL   C30913707   7.561   1.301   7.828  0.2179 -0.0947  0.6566
   30MOL   C31013708   7.455   1.348   7.904  0.4627 -0.1690  0.2929
   30MOL   C31113709   7.451   1.492   7.950  0.1775  0.2665 -0.0103
   30MOL   O31213710   7.538   1.571   7.912  0.4432  0.5975  0.4095
   30MOL   O31313711   7.353   1.523   8.036 -0.2549  0.2896 -0.1333
   30MOL   C31413712   7.351   1.253   7.933  0.2039  0.2297  0.1176
   30MOL   C31513713   7.362   1.116   7.889  0.1181 -0.4417 -0.2882
   30MOL   H31613714   7.269   0.697   7.903  0.7776 -1.4595 -1.0302
   30MOL   H31713715   7.433   0.743   7.956 -0.0168 -0.6927  1.3770
   30MOL   H31813716   7.289   0.700   7.682  1.4915 -1.6513  0.0211
   30MOL   H31913717   7.463   0.698   7.689  0.1165 -0.4176 -1.0676
   30MOL   H32013718   7.650   1.154   7.717 -3.1492  0.7375 -4.3835
   30MOL   H32113719   7.638   1.368   7.793 -0.3801  0.8576  1.1464
   30MOL   H32213720   7.273   1.286   8.000 -0.8750 -1.9708  0.0045
   30MOL   H32313721   7.285   1.047   7.920  1.3411 -1.9061 -0.4373
   30MOL   O32413722   7.373   1.654   8.100  0.4224  0.1307  0.0785
   30MOL   C32513723   7.277   1.738   8.040 -0.0007 -0.0940 -0.3218
   30MOL   C32613724   7.317   1.888   8.075 -0.3248 -0.1648 -0.0950
   30MOL   O32713725   7.264   1.983   7.990 -0.5787 -0.7140 -0.1817
   30MOL   C32813726   7.137   2.007   7.985  0.0263  1.0702 -0.3495
   30MOL   O32913727   7.049   1.948   8.057  0.7545 -0.5848  0.0958
   30MOL   C33013728   7.104   2.116   7.890 -0.0204  0.1385  1.2705
   30MOL   C33113729   6.969   2.156   7.880 -0.3096 -0.6687  0.8542
   30MOL   C33213730   6.932   2.259   7.793 -0.2078  0.4787 -0.2154
   30MOL   C33313731   7.023   2.314   7.706 -0.0108 -0.2759  0.0579
   30MOL   C33413732   6.978   2.427   7.616  0.0528  0.8376 -0.4351
   30MOL   O33513733   6.864   2.471   7.629 -0.0654  0.1112 -0.0482
   30MOL   O33613734   7.070   2.475   7.533  0.2847 -0.5063 -0.0095
   30MOL   C33713735   7.155   2.261   7.703  0.4194  0.2296  0.3973
   30MOL   C33813736   7.199   2.169   7.799 -0.9335 -0.2937  0.0238
   30MOL   H33913737   7.289   1.742   7.931  0.8900 -0.9683 -0.2575
   30MOL   H34013738   7.174   1.704   8.054  0.0600 -0.0830  0.1541
   30MOL   H34113739   7.424   1.902   8.058 -0.6026  0.7343 -1.1039
   30MOL   H34213740   7.300   1.907   8.181  2.2961  2.6107 -0.1067
   30MOL   H34313741   6.894   2.113   7.945  0.6009 -2.8545  0.5128
   30MOL   H34413742   6.829   2.291   7.798 -0.5587 -0.7586  0.6408
   30MOL   H34513743   7.222   2.288   7.623 -2.2008  0.8136 -1.6929
   30MOL   H34613744   7.304   2.144   7.806 -0.5433  0.7980 -1.8852
   30MOL   O34713745   7.029   2.601   7.456 -0.4210  0.7308  0.1481
   30MOL   C34813746   6.996   2.556   7.324 -0.1343 -0.2485 -0.7889
   30MOL   C34913747   7.122   2.555   7.232  0.9881  0.0924  0.3585
   30MOL   O35013748   7.145   2.683   7.174  0.5766 -0.5243 -0.4052
   30MOL   C35113749   7.260   2.713   7.099  1.0312  0.1172 -0.4579
   30MOL   O35213750   7.349   2.631   7.078 -0.4266 -0.9206 -0.3058
   30MOL   C35313751   7.263   2.857   7.058 -0.3396  0.9990  0.2436
   30MOL   C35413752   7.381   2.912   7.013 -0.1934 -0.0861  0.0596
   30MOL   C35513753   7.383   3.047   6.972 -0.4294  0.8132  0.1475
   30MOL   C35613754   7.263   3.123   6.970  0.2815  0.7724 -0.0337
   30MOL   C35713755   7.270   3.256   6.917  0.0413  0.1858  0.4762
   30MOL   O35813756   7.376   3.315   6.893  0.4780  0.2714 -0.5445
   30MOL   O35913757   7.149   3.315   6.911  0.2712  0.3522  0.1010
   30MOL   C36013758   7.147   3.067   7.018  1.3534 -0.3650  0.2157
   30MOL   C36113759   7.149   2.937   7.072 -0.1837  0.6463  0.2958
   30MOL   H36213760   6.959   2.455   7.339 -2.0972  0.4169 -1.0660
   30MOL   H36313761   6.918   2.622   7.286  0.0370 -0.2878 -1.2166
   30MOL   H36413762   7.110   2.482   7.152  1.2675  0.6338 -0.1772
   30MOL   H36513763   7.197   2.504   7.292 -1.9888 -2.9859  1.6221
   30MOL   H36613764   7.471   2.853   7.004 -0.7003 -1.0537  1.0803
   30MOL   H36713765   7.480   3.084   6.944  0.7639 -1.2849  1.4027
   30MOL   H36813766   7.057   3.126   7.030  1.5084 -0.1288  0.2277
   30MOL   H36913767   7.062   2.897   7.123 -0.1347 -1.7611 -1.4494
   30MOL   O37013768   7.158   3.455   6.873  0.4761  0.5995 -0.0575
   30MOL   C37113769   7.155   3.463   6.728  0.2268 -0.1183  0.2743
   30MOL   C37213770   7.176   3.608   6.681  0.2206 -0.0174 -0.3934
   30MOL   O37313771   7.246   3.624   6.557  0.0538  0.3320  0.3798
   30MOL   C37413772   7.189   3.579   6.437 -1.0075  0.0926 -0.4133
   30MOL   O37513773   7.079   3.524   6.428  0.0065  0.0608 -0.1705
   30MOL   C37613774   7.267   3.615   6.311  0.1447 -1.0609 -0.2988
   30MOL   C37713775   7.369   3.714   6.321 -0.2788  0.3729 -0.2560
   30MOL   C37813776   7.442   3.746   6.205 -0.3147 -0.8163 -0.0346
   30MOL   C37913777   7.416   3.684   6.085  0.2180 -0.1302  0.3647
   30MOL   C38013778   7.499   3.722   5.961 -0.6155 -0.1218  1.0012
   30MOL   O38113779   7.513   3.653   5.863  0.0947 -0.1174  0.2231
   30MOL   O38213780   7.566   3.841   5.973 -0.1150 -0.5081  0.2842
   30MOL   C38313781   7.316   3.584   6.068  0.7299 -0.7639 -0.0375
   30MOL   C38413782   7.245   3.550   6.183 -0.0480 -0.1966 -0.3665
   30MOL   H38513783   7.233   3.396   6.692  1.8397  1.8761  0.0289
   30MOL   H38613784   7.057   3.434   6.690 -0.6237  1.7048  1.0061
   30MOL   H38713785   7.235   3.666   6.752 -0.8410  0.0655  0.4175
   30MOL   H38813786   7.078   3.656   6.679  0.1848  0.0546  2.1435
   30MOL   H38913787   7.394   3.767   6.412  0.6954 -0.4532 -0.0306
   30MOL   H39013788   7.524   3.814   6.223 -0.8654 -0.0712 -0.2815
   30MOL   H39113789   7.297   3.528   5.978  0.5786 -0.8253  0.0324
   30MOL   H39213790   7.169   3.474   6.176  0.8874 -1.2484  0.6422
   30MOL   O39313791   7.657   3.890   5.860 -0.2722 -0.2766  0.7194
   30MOL   C39413792   7.785   3.875   5.905  0.1876 -0.5421  0.3707
   30MOL   C39513793   7.878   3.886   5.794 -0.0881 -1.6438  0.1288
   30MOL   O39613794   7.855   3.770   5.710  0.3658 -0.3205 -0.0487
   30MOL   C39713795   7.932   3.666   5.726  0.2882 -0.1196  0.3219
   30MOL   O39813796   8.009   3.665   5.816 -0.1223  0.6567  0.4162
   30MOL   C39913797   7.907   3.548   5.640 -0.6801 -0.3119 -0.0381
   30MOL   C40013798   8.004   3.444   5.635 -0.0794 -0.8841 -0.3883
   30MOL   C40113799   7.989   3.339   5.545  0.1032 -0.3893 -0.6561
   30MOL   C40213800   7.874   3.330   5.464 -0.1468 -0.1177  0.3292
   30MOL   C40313801   7.867   3.217   5.372 -0.4324 -0.1804 -0.0571
   30MOL   O40413802   7.951   3.131   5.360  0.2332 -0.6755 -0.1238
   30MOL   O40513803   7.766   3.222   5.290 -0.2344 -0.1206  0.3366
   30MOL   C40613804   7.772   3.423   5.483 -0.1948  0.2143 -0.1439
   30MOL   C40713805   7.790   3.536   5.559  0.2420  0.0226  0.0094
   30MOL   H40813806   7.798   3.957   5.976 -4.7062  1.1136 -0.4956
   30MOL   H40913807   7.805   3.784   5.963  1.8235  0.2720  1.1393
   30MOL   H41013808   7.976   3.899   5.841 -2.1549  0.9579  3.9139
   30MOL   H41113809   7.858   3.978   5.739 -1.6404 -0.1631  3.0702
   30MOL   H41213810   8.093   3.451   5.696 -1.4315  1.7149  1.3600
   30MOL   H41313811   8.067   3.265   5.539 -1.4925 -2.4944  2.9529
   30MOL   H41413812   7.682   3.411   5.425 -0.8338 -1.6136  1.1873
   30MOL   H41513813   7.713   3.612   5.553 -0.3945 -0.7022 -1.3673
   30MOL   O41613814   7.769   3.119   5.175 -0.5711  0.0855  0.1400
   30MOL   C41713815   7.688   3.003   5.213 -0.1096 -0.0262 -0.2280
   30MOL   C41813816   7.710   2.874   5.123  0.1354 -0.8816  0.0694
   30MOL   O41913817   7.651   2.887   4.996  0.7333  0.2124 -0.2208
   30MOL   C42013818   7.717   2.942   4.898  0.4953  0.4722 -0.9709
   30MOL   O42113819   7.826   2.986   4.898 -0.4366  0.5555  0.1145
   30MOL   C42213820   7.630   2.951   4.776  0.5507 -1.0073  0.4970
   30MOL   C42313821   7.686   3.012   4.661  0.2704  0.4643  0.2647
   30MOL   C42413822   7.612   3.027   4.542 -0.6574 -0.3523 -0.6190
   30MOL   C42513823   7.485   2.964   4.531 -0.1454  0.6264  0.1841
   30MOL   C42613824   7.397   2.971   4.409 -0.0259  0.2932  0.4195
   30MOL   O42713825   7.300   2.896   4.397  1.1609  0.3838  0.2998
   30MOL   O42813826   7.456   3.046   4.312 -0.4563 -0.2687 -0.1464
   30MOL   C42913827   7.437   2.897   4.645  0.2025 -0.5269 -0.6783
   30MOL   C43013828   7.506   2.886   4.765 -0.5349  0.1628  0.6666
   30MOL   H43113829   7.696   2.971   5.317  0.9560  0.0648 -0.2788
   30MOL   H43213830   7.585   3.039   5.210 -0.0083  0.3089  0.1915
   30MOL   H43313831   7.676   2.783   5.171  0.0505 -0.5209  0.7098
   30MOL   H43413832   7.818   2.860   5.112  0.3421  0.7168 -0.0679
   30MOL   H43513833   7.780   3.065   4.655  0.0778  0.7146 -0.4726
   30MOL   H43613834   7.649   3.089   4.462  1.2739 -0.2075  0.3520
   30MOL   H43713835   7.352   2.835   4.620 -0.8018  0.4644  0.2236
   30MOL   H43813836   7.477   2.812   4.839 -2.2563 -0.7493 -0.8742
   30MOL   O43913837   7.408   3.018   4.169 -0.1329  0.4941 -1.0622
   30MOL   C44013838   7.488   2.917   4.113 -0.0390 -0.1236  0.2790
   30MOL   C44113839   7.466   2.880   3.960 -0.2220 -0.8737  0.2189
   30MOL   O44213840   7.356   2.794   3.946 -0.0861  0.2805  0.0744
   30MOL   C44313841   7.232   2.841   3.951  0.7754  0.6644 -0.5912
   30MOL   O44413842   7.200   2.960   3.938 -0.4375  0.6051  0.0608
   30MOL   C44513843   7.132   2.736   3.974  0.1581  0.6170  0.1068
   30MOL   C44613844   6.995   2.764   3.956 -0.0047 -0.6128 -0.0956
   30MOL   C44713845   6.898   2.668   3.980 -0.0827  0.3808 -0.1359
   30MOL   C44813846   6.935   2.541   4.031 -0.2763 -0.1050  0.6118
   30MOL   C44913847   6.833   2.436   4.073 -0.8452 -1.1026 -0.8265
   30MOL   O45013848   6.861   2.320   4.104  0.0029  0.1516 -0.5396
   30MOL   O45113849   6.711   2.482   4.069  0.3135  0.3607  0.7251
   30MOL   C45213850   7.074   2.506   4.038 -0.5226 -0.5591  0.4383
   30MOL   C45313851   7.169   2.606   4.012  0.0138 -0.1577  0.3234
   30MOL   H45413852   7.591   2.950   4.124  0.6725 -2.2087  0.1729
   30MOL   H45513853   7.477   2.828   4.176  2.8110  0.0720  1.1013
   30MOL   H45613854   7.556   2.830   3.924  0.3521  0.7201 -0.6407
   30MOL   H45713855   7.460   2.971   3.899  2.0474 -0.3238  0.7936
   30MOL   H45813856   6.959   2.857   3.914  0.7798 -0.5824 -0.7296
   30MOL   H45913857   6.792   2.686   3.966 -0.5826 -0.7807  2.0137
   30MOL   H46013858   7.099   2.406   4.072  0.5094 -0.3193  0.3910
   30MOL   H46113859   7.272   2.584   4.035  0.3590  0.5115 -0.5517
   30MOL   H46213860   6.650   2.412   4.083  1.5437 -0.8991 -0.1337
   31MOL     O113861   5.235   2.682   3.409 -0.2728 -0.0572 -0.6070
   31MOL     C213862   5.299   2.572   3.342 -0.3414  0.6236  0.7954
   31MOL     C313863   5.445   2.617   3.327 -0.1799  0.2161 -0.1790
   31MOL     O413864   5.459   2.693   3.206 -0.1046 -0.6332 -0.1194
   31MOL     C513865   5.519   2.637   3.100  0.0139  0.2450 -0.1111
   31MOL     O613866   5.598   2.543   3.115 -0.1800  0.3229  0.6155
   31MOL     C713867   5.487   2.701   2.970  0.0481  0.1690 -0.2096
   31MOL     C813868   5.566   2.679   2.853  0.4765  0.1111 -0.0835
   31MOL     C913869   5.517   2.724   2.729 -0.3840  0.4822 -0.9302
   31MOL    C1013870   5.397   2.793   2.718  0.3964 -0.3676 -0.3487
   31MOL    C1113871   5.347   2.839   2.584  0.4464  0.2048 -0.2901
   31MOL    O1213872   5.229   2.864   2.569 -0.9836  0.1505  0.2558
   31MOL    O1313873   5.441   2.840   2.490 -0.1926  0.3490  0.3027
   31MOL    C1413874   5.324   2.824   2.834 -0.3481 -0.4553  0.2292
   31MOL    C1513875   5.369   2.775   2.957  0.5918 -0.5069  0.4333
   31MOL    H1613876   5.291   2.490   3.413  0.2726 -0.1987 -0.0706
   31MOL    H1713877   5.256   2.541   3.247  1.5655  0.4011 -0.0245
   31MOL    H1813878   5.508   2.528   3.330  0.5517  0.7932  1.6016
   31MOL    H1913879   5.474   2.677   3.413  0.6366  0.5816 -0.7103
   31MOL    H2013880   5.650   2.615   2.877 -1.4410 -1.9440  1.3590
   31MOL    H2113881   5.574   2.711   2.638 -0.7789 -3.9416 -0.6644
   31MOL    H2213882   5.235   2.882   2.817 -0.4799 -0.6934  0.1014
   31MOL    H2313883   5.305   2.797   3.041  1.8657  0.1702  1.2449
   31MOL    H2413884   5.200   2.745   3.348  0.0810  0.3510 -0.3878
   31MOL    O2513885   5.391   2.865   2.354  0.3355  0.4739 -0.7415
   31MOL    C2613886   5.407   2.742   2.277 -0.1707  0.4649 -0.4336
   31MOL    C2713887   5.367   2.766   2.132 -0.5493 -0.0001 -0.2532
   31MOL    O2813888   5.228   2.729   2.107  0.3247 -0.0335  0.3590
   31MOL    C2913889   5.124   2.813   2.136 -0.4044 -0.5007 -0.7332
   31MOL    O3013890   5.138   2.933   2.159 -0.1532 -0.5923  0.1230
   31MOL    C3113891   4.993   2.745   2.140  0.2116  0.4744  0.5064
   31MOL    C3213892   4.880   2.832   2.129 -0.2822  0.4337 -0.5957
   31MOL    C3313893   4.747   2.775   2.125 -0.1822 -0.5593  0.4867
   31MOL    C3413894   4.728   2.630   2.134  0.0656 -0.5394  0.5628
   31MOL    C3513895   4.597   2.566   2.157  0.2040  0.0721 -0.2264
   31MOL    O3613896   4.581   2.449   2.179  0.7017 -0.1300  0.0536
   31MOL    O3713897   4.500   2.660   2.154  0.3264 -0.6639 -0.1492
   31MOL    C3813898   4.841   2.550   2.151 -0.2616  0.0202  0.1313
   31MOL    C3913899   4.968   2.610   2.154 -0.3351  0.3697 -0.1887
   31MOL    H4013900   5.514   2.721   2.281  0.1380  2.2217  1.2960
   31MOL    H4113901   5.361   2.656   2.325 -0.3578  1.4938  1.2414
   31MOL    H4213902   5.419   2.694   2.069 -0.2843  0.5878 -0.7067
   31MOL    H4313903   5.391   2.864   2.092 -1.5882 -0.4174 -1.9748
   31MOL    H4413904   4.892   2.939   2.119  2.5001  0.1676 -0.2290
   31MOL    H4513905   4.669   2.849   2.112 -1.3214 -1.8282  0.0694
   31MOL    H4613906   4.832   2.443   2.156  2.4232 -0.3457 -2.1281
   31MOL    H4713907   5.057   2.550   2.166 -1.1692 -0.7136  0.6974
   31MOL    O4813908   4.375   2.623   2.228 -0.0293 -0.2748  0.4135
   31MOL    C4913909   4.279   2.561   2.137 -0.6382  0.0315  0.2241
   31MOL    C5013910   4.144   2.626   2.156 -0.1655 -0.1661 -0.0715
   31MOL    O5113911   4.117   2.610   2.291 -0.2911 -0.5917 -0.1036
   31MOL    C5213912   3.994   2.630   2.355  0.3914 -0.0228  0.3019
   31MOL    O5313913   3.897   2.678   2.294 -0.0800  0.2102 -0.3072
   31MOL    C5413914   4.001   2.610   2.504 -0.5944  0.1373 -0.3069
   31MOL    C5513915   3.907   2.669   2.585  0.6179 -0.1895 -0.1054
   31MOL    C5613916   3.927   2.669   2.727 -0.0293  0.3323 -0.5668
   31MOL    C5713917   4.042   2.604   2.791 -0.0929  0.2583  0.5501
   31MOL    C5813918   4.065   2.597   2.935  0.9393 -0.2816 -0.4615
   31MOL    O5913919   3.976   2.623   3.025  0.9395  0.0598  0.1475
   31MOL    O6013920   4.187   2.556   2.967  0.2673  0.5423  0.1562
   31MOL    C6113921   4.137   2.549   2.702 -0.2055  0.2912  1.0397
   31MOL    C6213922   4.116   2.554   2.560 -0.8312 -0.7432 -0.2847
   31MOL    H6313923   4.305   2.586   2.034  0.4904 -1.9232  0.0091
   31MOL    H6413924   4.279   2.455   2.164  0.1779 -0.1696 -0.5580
   31MOL    H6513925   4.064   2.574   2.103 -0.5968 -0.0148  0.4239
   31MOL    H6613926   4.139   2.731   2.128 -0.1725  0.2977  1.6265
   31MOL    H6713927   3.822   2.721   2.544 -2.2569 -1.6109  3.8418
   31MOL    H6813928   3.856   2.710   2.797 -1.2780 -2.4928 -0.0972
   31MOL    H6913929   4.234   2.510   2.729  0.9950  2.5842  0.2407
   31MOL    H7013930   4.198   2.516   2.501  1.1603  1.3666  1.0404
   31MOL    O7113931   4.200   2.537   3.123  0.4610  0.0135  0.2094
   31MOL    C7213932   4.163   2.404   3.162  0.2027  0.6070  0.1945
   31MOL    C7313933   4.192   2.397   3.315 -0.4904 -0.7121 -0.3662
   31MOL    O7413934   4.180   2.258   3.344  0.0535  0.0159  0.2658
   31MOL    C7513935   4.101   2.213   3.444  0.3570  0.1021 -0.9610
   31MOL    O7613936   4.034   2.294   3.507 -0.6992 -0.7240  0.3931
   31MOL    C7713937   4.101   2.069   3.467 -0.2156  0.8264 -0.6169
   31MOL    C7813938   4.177   1.976   3.390 -0.5902 -0.2753 -0.2524
   31MOL    C7913939   4.167   1.841   3.427  0.2397 -0.0358 -0.0628
   31MOL    C8013940   4.094   1.789   3.539  0.1977  0.5462  0.4092
   31MOL    C8113941   4.075   1.650   3.574  0.6665  0.0377 -0.7468
   31MOL    O8213942   4.075   1.565   3.484  0.0679  0.1321  0.3913
   31MOL    O8313943   4.057   1.629   3.706 -0.1963  0.5048 -0.2351
   31MOL    C8413944   4.019   1.890   3.608 -0.2874 -0.1127 -0.1096
   31MOL    C8513945   4.025   2.022   3.574  0.2763 -0.4030 -0.0019
   31MOL    H8613946   4.057   2.381   3.153  0.8530 -3.4221  1.7523
   31MOL    H8713947   4.225   2.331   3.110 -0.5440 -0.4552  0.7779
   31MOL    H8813948   4.140   2.466   3.382 -0.0481 -0.5146 -0.2257
   31MOL    H8913949   4.298   2.416   3.331 -0.5476  0.2220 -1.0143
   31MOL    H9013950   4.236   2.006   3.304 -0.2014 -1.5105 -0.4225
   31MOL    H9113951   4.228   1.771   3.372  0.4483  0.4735 -0.4883
   31MOL    H9213952   3.962   1.862   3.696 -0.4845 -3.0277 -1.0920
   31MOL    H9313953   3.973   2.091   3.638 -0.4700  1.4531 -2.5357
   31MOL    O9413954   4.066   1.485   3.751 -0.7372 -0.4625  0.2460
   31MOL    C9513955   4.209   1.444   3.747  0.7595  0.4250 -0.1119
   31MOL    C9613956   4.220   1.333   3.849  0.3087 -0.1589  0.0656
   31MOL    O9713957   4.209   1.385   3.980  0.1877  0.5291 -0.1364
   31MOL    C9813958   4.315   1.381   4.061 -0.2664  0.3153  0.1048
   31MOL    O9913959   4.419   1.317   4.035  0.0768 -0.3358 -0.3210
   31MOL   C10013960   4.297   1.445   4.198 -0.1670 -0.1745  0.4210
   31MOL   C10113961   4.187   1.533   4.220  0.0108  0.4565 -0.3611
   31MOL   C10213962   4.171   1.593   4.344  0.4024  0.4011 -0.2814
   31MOL   C10313963   4.266   1.574   4.441 -0.2879  0.2910  0.1450
   31MOL   C10413964   4.250   1.633   4.568  1.1409 -0.1598 -0.6769
   31MOL   O10513965   4.192   1.737   4.591 -0.1143 -0.1960 -0.1130
   31MOL   O10613966   4.300   1.554   4.673 -0.8586  0.6479 -0.1709
   31MOL   C10713967   4.383   1.495   4.416 -0.1764  0.8846 -0.3857
   31MOL   C10813968   4.388   1.422   4.301  0.5605 -0.1142 -0.3976
   31MOL   H10913969   4.229   1.395   3.651  1.1079 -0.0529  0.1983
   31MOL   H11013970   4.282   1.522   3.769  0.7354  1.1482 -2.5265
   31MOL   H11113971   4.322   1.302   3.828  0.6328  1.2978 -0.6032
   31MOL   H11213972   4.145   1.256   3.832  1.1657 -0.2858 -3.3306
   31MOL   H11313973   4.123   1.558   4.137  1.1804 -0.5920 -1.5996
   31MOL   H11413974   4.085   1.658   4.354 -1.1909 -1.8089  0.8199
   31MOL   H11513975   4.460   1.489   4.492 -0.7890 -0.2079  0.1615
   31MOL   H11613976   4.468   1.351   4.286  1.8306  0.7732  1.9052
   31MOL   O11713977   4.236   1.577   4.807 -0.2131  1.2813  0.2729
   31MOL   C11813978   4.304   1.683   4.875  0.8015  0.5321  0.0799
   31MOL   C11913979   4.263   1.683   5.021 -0.1296  0.0511  0.4868
   31MOL   O12013980   4.361   1.600   5.091  0.1638 -0.2265 -0.7112
   31MOL   C12113981   4.424   1.638   5.200  0.1398  0.5223  0.0305
   31MOL   O12213982   4.417   1.760   5.234  0.3174 -0.2267  0.6137
   31MOL   C12313983   4.500   1.531   5.267  0.3186 -0.3137 -0.4021
   31MOL   C12413984   4.545   1.553   5.403 -0.8399  0.1511 -0.1501
   31MOL   C12513985   4.623   1.454   5.465  0.1221 -0.3325  0.5440
   31MOL   C12613986   4.655   1.331   5.391 -0.4107 -0.1526  0.4044
   31MOL   C12713987   4.750   1.241   5.469 -0.3384  0.6660 -0.4257
   31MOL   O12813988   4.778   1.252   5.589 -0.1477 -0.6761  0.6792
   31MOL   O12913989   4.798   1.134   5.397 -0.4592 -0.4605  0.4570
   31MOL   C13013990   4.606   1.316   5.257 -0.8239  0.2321  0.0041
   31MOL   C13113991   4.531   1.416   5.195  0.1995  0.1498 -0.3515
   31MOL   H13213992   4.412   1.675   4.867  0.8207 -0.4324  1.2256
   31MOL   H13313993   4.276   1.779   4.831 -1.0177 -0.1011 -0.1997
   31MOL   H13413994   4.160   1.654   5.039  0.0045 -0.4565  0.4480
   31MOL   H13513995   4.271   1.782   5.068  1.6628  0.0237  0.2954
   31MOL   H13613996   4.519   1.647   5.449  0.4077  0.3765  0.1230
   31MOL   H13713997   4.661   1.475   5.564  0.2877  0.0508  0.4032
   31MOL   H13813998   4.627   1.224   5.204 -0.7285 -0.4224  1.1490
   31MOL   H13913999   4.493   1.404   5.094 -0.4192  0.0214 -0.1000
   31MOL   O14014000   4.902   1.041   5.470  0.2346  0.0046  0.6481
   31MOL   C14114001   4.836   0.930   5.518  0.6075 -0.0379 -0.8259
   31MOL   C14214002   4.807   0.826   5.400  0.0205  0.1043 -0.5230
   31MOL   O14314003   4.663   0.800   5.392  0.1584  0.1751 -0.2024
   31MOL   C14414004   4.615   0.757   5.268 -0.1400 -0.0639  0.2542
   31MOL   O14514005   4.683   0.751   5.169 -0.0798 -0.4783 -0.2370
   31MOL   C14614006   4.470   0.720   5.272  0.4696  0.5266 -0.0401
   31MOL   C14714007   4.388   0.713   5.387 -0.0096  0.5657 -0.3145
   31MOL   C14814008   4.262   0.652   5.376 -0.4909 -0.1912 -0.0972
   31MOL   C14914009   4.218   0.586   5.260 -0.4438 -0.3065 -0.1802
   31MOL   C15014010   4.092   0.496   5.255 -0.4283 -0.2055  0.1683
   31MOL   O15114011   4.065   0.416   5.166 -0.2078 -0.3086 -0.1404
   31MOL   O15214012   4.015   0.501   5.369  0.3669 -0.5975  0.3829
   31MOL   C15314013   4.297   0.597   5.141 -0.0309  0.0299  0.6497
   31MOL   C15414014   4.423   0.660   5.150  0.3421 -0.1178  0.0635
   31MOL   H15514015   4.893   0.876   5.594  0.0497  0.5940  0.0455
   31MOL   H15614016   4.749   0.976   5.565  2.6071  1.3935  1.6047
   31MOL   H15714017   4.848   0.728   5.423 -0.6413 -0.0467  0.0489
   31MOL   H15814018   4.843   0.853   5.301 -0.6512 -0.7633 -1.0149
   31MOL   H15914019   4.417   0.756   5.482  2.0341 -1.2522 -0.0584
   31MOL   H16014020   4.196   0.657   5.462  0.0583 -0.5537  0.3469
   31MOL   H16114021   4.276   0.551   5.045 -1.2008  2.9423 -0.5284
   31MOL   H16214022   4.489   0.678   5.066  0.3250 -0.1590  0.0412
   31MOL   O16314023   3.898   0.413   5.372 -0.3154  0.2008 -0.1624
   31MOL   C16414024   3.928   0.315   5.465  0.2607 -0.3748 -0.3825
   31MOL   C16514025   3.933   0.356   5.609  0.5385 -0.5325  0.3841
   31MOL   O16614026   3.896   0.257   5.699 -0.5480 -0.2023  0.3854
   31MOL   C16714027   3.986   0.143   5.716 -0.7271  0.2279 -0.1961
   31MOL   O16814028   4.087   0.120   5.648  0.1083  0.5525  0.1779
   31MOL   C16914029   3.926   0.043   5.811  0.6232  0.4888  0.9070
   31MOL   C17014030   3.990   8.197   5.829 -0.3058  0.8441 -0.6401
   31MOL   C17114031   3.940   8.097   5.920 -0.1514 -0.0350  0.8498
   31MOL   C17214032   3.823   8.118   5.993  0.1294  0.3770  0.3603
   31MOL   C17314033   3.774   8.013   6.088 -0.1225 -0.2323 -0.2282
   31MOL   O17414034   3.664   8.008   6.150  0.0317  0.7701  0.2934
   31MOL   O17514035   3.868   7.915   6.103  0.4993 -0.3307 -0.4148
   31MOL   C17614036   3.761   8.243   5.983  0.4895 -0.8308  0.0660
   31MOL   C17714037   3.814   0.068   5.899 -0.3485 -0.7835  0.2495
   31MOL   H17814038   3.838   0.255   5.451  0.9759 -1.8454  1.1489
   31MOL   H17914039   4.015   0.254   5.438  0.5290 -0.3733  0.4683
   31MOL   H18014040   3.863   0.438   5.621  2.5867  1.3276  0.0082
   31MOL   H18114041   4.035   0.383   5.638  1.4817 -4.2721  0.8331
   31MOL   H18214042   4.087   8.187   5.783 -0.3008  1.8464 -0.8680
   31MOL   H18314043   3.991   8.002   5.922 -1.1338 -0.5627  1.1535
   31MOL   H18414044   3.683   8.264   6.055  0.3821  0.5123 -0.4223
   31MOL   H18514045   3.750   0.154   5.886 -0.9640 -1.4626 -1.5280
   31MOL   O18614046   3.838   7.806   6.197 -0.8243 -0.1483 -0.4342
   31MOL   C18714047   3.887   7.833   6.329 -0.2002 -0.0337  0.6918
   31MOL   C18814048   4.040   7.825   6.338  0.7234  0.0697 -0.4199
   31MOL   O18914049   4.116   7.907   6.250 -0.1092  0.0395 -0.2390
   31MOL   C19014050   4.116   8.044   6.252 -0.8186  0.4325 -0.4986
   31MOL   O19114051   4.046   8.114   6.325  0.2061  0.5802 -0.4970
   31MOL   C19214052   4.215   8.103   6.158  0.1101 -0.1745  0.8103
   31MOL   C19314053   4.241   8.242   6.158 -0.3589  0.2990  0.4590
   31MOL   C19414054   4.330   0.030   6.065 -0.3571 -0.6986 -0.2292
   31MOL   C19514055   4.397   8.222   5.974 -0.0594  0.3203 -1.2974
   31MOL   C19614056   4.491   8.269   5.874 -0.0243  0.3518 -0.1183
   31MOL   O19714057   4.567   8.196   5.815  0.3060  0.2152  0.0162
   31MOL   O19814058   4.493   0.127   5.860  0.0052  0.3407  1.0120
   31MOL   C19914059   4.375   8.080   5.979  0.3761  0.5278 -0.1466
   31MOL   C20014060   4.289   8.020   6.068 -0.2198 -0.3027 -0.2069
   31MOL   H20114061   3.847   7.931   6.354 -0.4413  0.2747 -0.8621
   31MOL   H20214062   3.850   7.750   6.390  1.7871 -0.2137  1.7185
   31MOL   H20314063   4.079   7.724   6.328 -1.4583 -0.8376  0.0562
   31MOL   H20414064   4.079   7.850   6.436 -0.7135  0.3765  0.0826
   31MOL   H20514065   4.186   0.034   6.222 -0.8660 -0.7928  1.1801
   31MOL   H20614066   4.346   0.137   6.062 -1.1412 -0.5875 -0.6585
   31MOL   H20714067   4.430   8.024   5.905  2.5575 -0.4520  2.1452
   31MOL   H20814068   4.287   7.913   6.052  0.6226 -0.1470 -1.4859
   31MOL   O20914069   4.619   0.175   5.789  0.1200 -0.1625 -0.6046
   31MOL   C21014070   4.718   0.214   5.884  0.4044 -0.5853 -0.6743
   31MOL   C21114071   4.855   0.198   5.824  0.2876 -0.7096 -0.2073
   31MOL   O21214072   4.944   0.294   5.879 -0.1625 -0.1780 -0.1842
   31MOL   C21314073   4.985   0.274   6.008  0.5050 -0.3903  0.0157
   31MOL   O21414074   4.955   0.173   6.079  0.4487 -0.1712  0.0526
   31MOL   C21514075   5.079   0.375   6.063 -0.5456  0.0918 -0.0356
   31MOL   C21614076   5.140   0.474   5.977 -0.3186 -0.1040  0.2475
   31MOL   C21714077   5.219   0.575   6.020 -0.6560  0.3955  0.1037
   31MOL   C21814078   5.250   0.580   6.158 -0.3714  0.4652 -0.1917
   31MOL   C21914079   5.344   0.688   6.217  0.9974  0.0035 -0.4387
   31MOL   O22014080   5.364   0.708   6.333 -0.1246 -0.4870 -0.0775
   31MOL   O22114081   5.397   0.762   6.126 -0.9286 -0.2038 -0.4591
   31MOL   C22214082   5.199   0.481   6.247 -0.6080  0.0015 -0.5302
   31MOL   C22314083   5.114   0.379   6.197  0.3389 -0.4577 -0.4676
   31MOL   H22414084   4.693   0.313   5.920  1.5477 -0.1719 -0.9864
   31MOL   H22514085   4.703   0.156   5.975  0.3830  0.0501 -0.2757
   31MOL   H22614086   4.845   0.223   5.719  0.8881 -0.3338 -0.1811
   31MOL   H22714087   4.896   0.097   5.834  0.0143 -0.7622  0.4192
   31MOL   H22814088   5.118   0.474   5.871  0.1511  0.4842  0.1457
   31MOL   H22914089   5.260   0.643   5.947  1.4451  0.8155  1.6105
   31MOL   H23014090   5.220   0.494   6.352  1.2206  0.2108 -0.8906
   31MOL   H23114091   5.069   0.309   6.266 -1.0616 -0.5633 -1.4856
   31MOL   O23214092   5.478   0.878   6.195 -0.2052 -0.4236 -0.0935
   31MOL   C23314093   5.406   0.997   6.194 -0.2156 -0.3745  0.6058
   31MOL   C23414094   5.336   1.028   6.326  0.1790  0.2788 -0.2632
   31MOL   O23514095   5.439   1.069   6.413  0.5835  0.6826  0.1653
   31MOL   C23614096   5.419   1.082   6.546 -0.2537 -0.7622 -0.4064
   31MOL   O23714097   5.311   1.072   6.605  0.7668  0.1523 -0.5322
   31MOL   C23814098   5.542   1.124   6.616  1.1746  0.2219 -0.0752
   31MOL   C23914099   5.670   1.122   6.566 -0.2636  0.4370 -0.0438
   31MOL   C24014100   5.782   1.160   6.645 -0.0740 -0.2179  0.2049
   31MOL   C24114101   5.773   1.212   6.776 -0.6538  1.0619  0.2317
   31MOL   C24214102   5.906   1.242   6.838 -0.4174  0.3489 -0.1016
   31MOL   O24314103   6.014   1.235   6.781 -0.4510  0.1517 -0.0705
   31MOL   O24414104   5.898   1.268   6.967  0.5806 -0.3933  0.2429
   31MOL   C24514105   5.641   1.212   6.834  0.2646  1.3040  0.6528
   31MOL   C24614106   5.532   1.162   6.753 -0.0982 -0.1058 -0.0205
   31MOL   H24714107   5.468   1.082   6.166 -0.0401 -0.3870  0.9498
   31MOL   H24814108   5.334   0.993   6.112  1.8711 -0.1311 -1.2582
   31MOL   H24914109   5.301   0.938   6.376  1.6947  0.1077  0.5013
   31MOL   H25014110   5.261   1.107   6.316  0.1709  0.1897 -0.9372
   31MOL   H25114111   5.686   1.095   6.463 -1.6065  0.6667 -0.3190
   31MOL   H25214112   5.881   1.150   6.603 -0.5637  0.9151 -1.2573
   31MOL   H25314113   5.628   1.236   6.938  2.3258 -2.0052  1.7472
   31MOL   H25414114   5.433   1.166   6.795 -0.3212 -0.0413 -0.5583
   31MOL   O25514115   6.025   1.319   7.028  0.4426 -0.4861 -0.0011
   31MOL   C25614116   6.027   1.457   7.009 -0.7428  0.0543  0.1389
   31MOL   C25714117   6.160   1.529   7.046  0.5494  0.1534 -0.0379
   31MOL   O25814118   6.153   1.665   7.023  0.2560  0.2232  0.2216
   31MOL   C25914119   6.096   1.744   7.118  0.5964  1.0571  0.4447
   31MOL   O26014120   6.035   1.696   7.213 -0.0131 -0.1319 -0.5845
   31MOL   C26114121   6.116   1.886   7.089  0.1190 -0.8211  0.4967
   31MOL   C26214122   6.093   1.983   7.188 -0.2407 -0.2723  0.4350
   31MOL   C26314123   6.108   2.122   7.156 -0.2145 -0.0998 -0.3353
   31MOL   C26414124   6.153   2.170   7.031 -0.4152  0.1466 -0.1153
   31MOL   C26514125   6.183   2.315   7.007 -0.1814 -0.3924 -0.0649
   31MOL   O26614126   6.237   2.347   6.899 -0.5502 -0.3334  0.0103
   31MOL   O26714127   6.153   2.396   7.103 -0.0207  0.3139 -0.7399
   31MOL   C26814128   6.169   2.078   6.929  0.0344  0.0528 -0.3742
   31MOL   C26914129   6.152   1.936   6.960 -0.4373  0.4791 -0.2166
   31MOL   H27014130   6.028   1.468   6.901  0.6344  1.9141  0.3182
   31MOL   H27114131   5.939   1.511   7.045 -0.6319  0.0923  0.3537
   31MOL   H27214132   6.238   1.482   6.985  2.0214  0.8996  1.2479
   31MOL   H27314133   6.192   1.502   7.146 -0.9083  1.3387  0.7649
   31MOL   H27414134   6.067   1.953   7.289  3.0693  0.0139  1.4200
   31MOL   H27514135   6.088   2.181   7.243 -1.4014 -3.9702  2.1597
   31MOL   H27614136   6.183   2.116   6.829  1.7873 -1.0151 -0.5454
   31MOL   H27714137   6.147   1.866   6.877  0.7363 -1.3118  1.1720
   31MOL   O27814138   6.224   2.526   7.099 -0.8501  0.3869  0.1931
   31MOL   C27914139   6.129   2.627   7.081  0.3516  0.0816 -0.0140
   31MOL   C28014140   6.200   2.760   7.052  0.4071  0.2147 -0.0738
   31MOL   O28114141   6.242   2.828   7.168 -0.0646 -0.0718 -0.2886
   31MOL   C28214142   6.305   2.942   7.159 -0.4311  0.1180 -0.0639
   31MOL   O28314143   6.345   2.984   7.049  0.2280 -0.1778 -0.6777
   31MOL   C28414144   6.325   3.012   7.288  0.0064 -0.1850  0.0276
   31MOL   C28514145   6.364   3.147   7.298  0.6081  0.3530 -0.0974
   31MOL   C28614146   6.390   3.208   7.419 -0.3157  0.5066  0.0926
   31MOL   C28714147   6.388   3.132   7.540 -0.4118  0.2508  0.0995
   31MOL   C28814148   6.437   3.174   7.671 -0.1237 -0.7080  1.0780
   31MOL   O28914149   6.463   3.103   7.771 -0.0540 -0.3422 -0.0501
   31MOL   O29014150   6.461   3.310   7.671 -0.8217 -0.0633  0.2258
   31MOL   C29114151   6.337   2.999   7.536 -0.4792 -0.4155  0.4634
   31MOL   C29214152   6.306   2.942   7.414  0.2922  0.3338 -0.3532
   31MOL   H29314153   6.063   2.592   7.001 -1.5434  0.9592  1.1339
   31MOL   H29414154   6.063   2.629   7.167  0.9707 -0.6980  0.4835
   31MOL   H29514155   6.142   2.837   7.001  0.8457  0.1015 -0.7511
   31MOL   H29614156   6.291   2.731   6.999  1.5518  2.9577  0.2619
   31MOL   H29714157   6.363   3.201   7.204  0.2185  1.0700  0.3219
   31MOL   H29814158   6.432   3.307   7.426  1.3854 -0.0749 -1.5216
   31MOL   H29914159   6.330   2.932   7.620 -0.2418  0.9892  1.6130
   31MOL   H30014160   6.283   2.837   7.412  1.3094  0.0961  0.1485
   31MOL   O30114161   6.503   3.370   7.797  0.5538  0.0427 -0.0273
   31MOL   C30214162   6.640   3.377   7.797 -0.2943  0.5335 -0.4615
   31MOL   C30314163   6.690   3.376   7.938  0.2842  0.2447  0.0751
   31MOL   O30414164   6.685   3.249   8.004 -0.3077 -0.3843 -0.1005
   31MOL   C30514165   6.744   3.239   8.128  0.0742 -0.5359 -0.4131
   31MOL   O30614166   6.820   3.324   8.173  0.3629  0.2786 -1.0770
   31MOL   C30714167   6.706   3.118   8.204  0.9556  0.1670 -0.9235
   31MOL   C30814168   6.782   3.064   0.037 -0.2729 -0.1975  0.5658
   31MOL   C30914169   6.742   2.956   0.113  0.0458 -0.2635  0.0377
   31MOL   C31014170   6.620   2.894   0.086  0.4508  0.7527  0.3156
   31MOL   C31114171   6.576   2.768   0.164  0.1627 -0.1157  0.1978
   31MOL   O31214172   6.466   2.706   0.153  0.2964 -0.3096  0.0003
   31MOL   O31314173   6.667   2.736   0.258 -0.3866  0.1765  0.2469
   31MOL   C31414174   6.541   2.948   8.262  0.3196  0.0063 -0.0776
   31MOL   C31514175   6.583   3.058   8.181  0.2809 -0.2240  0.1120
   31MOL   H31614176   6.680   3.289   7.746  0.0915  0.9705 -0.9172
   31MOL   H31714177   6.671   3.468   7.746 -1.2767  0.1715 -1.7256
   31MOL   H31814178   6.653   3.456   8.002 -0.6407  0.3195 -0.5468
   31MOL   H31914179   6.795   3.398   7.925  0.6123 -1.9424 -1.2404
   31MOL   H32014180   6.875   3.110   0.068 -0.0362  1.5879 -2.5261
   31MOL   H32114181   6.817   2.917   0.180  0.5860  1.4363  0.4444
   31MOL   H32214182   6.447   2.900   8.239  2.1261 -3.5222 -0.3124
   31MOL   H32314183   6.514   3.086   8.103  0.9185  1.5058  0.1574
   31MOL   O32414184   6.603   2.636   0.356 -0.2600  0.0739  0.0819
   31MOL   C32514185   6.675   2.511   0.351 -0.2903 -0.5694 -0.3739
   31MOL   C32614186   6.662   2.436   0.228 -0.3736  0.4695  0.5353
   31MOL   O32714187   6.758   2.488   0.135  0.3595 -0.1266 -0.1490
   31MOL   C32814188   6.754   2.449   0.009  0.3793  0.2234 -0.5112
   31MOL   O32914189   6.688   2.352   8.252  0.9344  0.2288 -0.4610
   31MOL   C33014190   6.837   2.535   8.196  0.4099 -0.7809  0.5555
   31MOL   C33114191   6.815   2.527   8.056 -0.2212  0.0440  0.1068
   31MOL   C33214192   6.892   2.605   7.968  0.2191 -0.5010 -0.2077
   31MOL   C33314193   6.981   2.698   8.015 -0.3762  0.1127  0.1287
   31MOL   C33414194   7.052   2.786   7.917  0.0592  0.3801 -0.2317
   31MOL   O33514195   7.066   2.770   7.798 -0.1738  0.3419 -0.2213
   31MOL   O33614196   7.087   2.899   7.979  0.8311 -0.2427  0.5394
   31MOL   C33714197   6.998   2.710   8.154 -0.1602 -0.7473  0.3827
   31MOL   C33814198   6.926   2.635   8.250 -0.1310  0.5511  0.3179
   31MOL   H33914199   6.778   2.534   0.379 -0.8050  1.7646 -0.3032
   31MOL   H34014200   6.643   2.456   0.440 -0.5626  1.1240  0.6032
   31MOL   H34114201   6.559   2.445   0.192  0.0177 -2.9170 -1.6897
   31MOL   H34214202   6.686   2.329   0.232  0.6483  0.5591 -2.1605
   31MOL   H34314203   6.740   2.456   8.022  0.0354 -0.0719 -0.2225
   31MOL   H34414204   6.878   2.574   7.866 -0.7018  1.3423 -0.6484
   31MOL   H34514205   7.065   2.786   8.193  0.3034 -0.5786 -0.7203
   31MOL   H34614206   6.943   2.649   0.080 -0.3479 -2.3734  0.7776
   31MOL   O34714207   7.217   2.949   7.927  0.1129 -0.0238 -0.1639
   31MOL   C34814208   7.199   3.057   7.838 -0.4409 -0.3107  0.6677
   31MOL   C34914209   7.137   3.184   7.901 -0.0303  0.1178 -1.0523
   31MOL   O35014210   7.110   3.283   7.806  0.0059 -0.5058  0.0770
   31MOL   C35114211   6.990   3.277   7.726 -0.0508 -0.2171  0.3191
   31MOL   O35214212   6.904   3.185   7.732  0.8324  0.3233  0.0612
   31MOL   C35314213   6.979   3.386   7.620  0.2462 -0.2124  0.6265
   31MOL   C35414214   7.072   3.490   7.620 -0.1085 -0.2018  0.0788
   31MOL   C35514215   7.075   3.582   7.513 -0.2519  0.1945  0.3147
   31MOL   C35614216   6.978   3.572   7.404  0.0892 -0.0876 -0.1910
   31MOL   C35714217   6.970   3.677   7.300 -0.6677  0.6801  0.7889
   31MOL   O35814218   6.881   3.687   7.217 -0.2608 -0.0072  0.5897
   31MOL   O35914219   7.070   3.775   7.321  0.4418  0.4091 -0.6566
   31MOL   C36014220   6.881   3.469   7.412  0.6516  0.6514 -0.7429
   31MOL   C36114221   6.883   3.381   7.518 -0.2642 -1.2377  0.0570
   31MOL   H36214222   7.292   3.087   7.789 -1.3193  0.2349 -0.6945
   31MOL   H36314223   7.132   3.029   7.757 -0.2100  0.3390  0.2468
   31MOL   H36414224   7.205   3.225   7.975  0.5404  2.2119 -2.6734
   31MOL   H36514225   7.038   3.163   7.942  0.6260 -2.9512 -0.9813
   31MOL   H36614226   7.147   3.507   7.696 -0.6347 -0.2626  0.6202
   31MOL   H36714227   7.142   3.666   7.525 -1.6140  0.9758  2.7350
   31MOL   H36814228   6.803   3.461   7.337 -0.0214  0.2331 -0.0089
   31MOL   H36914229   6.817   3.296   7.525 -1.7377 -0.0898  0.2717
   31MOL   O37014230   7.081   3.890   7.216  0.2315 -0.3523  0.6513
   31MOL   C37114231   7.173   3.849   7.108 -0.2117 -0.1988 -1.0964
   31MOL   C37214232   7.201   3.978   7.026 -0.1372 -0.1043  0.3054
   31MOL   O37314233   7.083   4.035   6.971  0.0579  0.1040  0.2326
   31MOL   C37414234   7.051   4.000   6.851 -0.0404  0.2110 -0.4959
   31MOL   O37514235   7.124   3.940   6.777 -0.3740  0.7947  0.1529
   31MOL   C37614236   6.920   4.050   6.805 -0.9338  0.4983 -0.3045
   31MOL   C37714237   6.900   4.072   6.666 -0.1753  0.5679 -0.2384
   31MOL   C37814238   6.778   4.120   6.617 -0.3305 -0.1644 -0.3254
   31MOL   C37914239   6.667   4.138   6.702  0.0179  0.0612 -0.1660
   31MOL   C38014240   6.540   4.174   6.642  0.6329  0.1197 -0.2317
   31MOL   O38114241   6.530   4.227   6.539  0.0036 -0.5126 -0.3651
   31MOL   O38214242   6.434   4.147   6.717  0.2164  0.9478  0.6460
   31MOL   C38314243   6.677   4.110   6.844  0.2649  0.2564 -0.3182
   31MOL   C38414244   6.802   4.069   6.892 -0.4261 -0.6014  0.1279
   31MOL   H38514245   7.265   3.819   7.158  2.1772  2.9374 -3.4159
   31MOL   H38614246   7.131   3.767   7.050 -1.6799  1.4899 -2.4814
   31MOL   H38714247   7.271   3.958   6.946  2.0066  1.2500  1.7829
   31MOL   H38814248   7.250   4.050   7.091 -0.4175  0.8344 -0.5257
   31MOL   H38914249   6.980   4.062   6.594 -1.4158 -1.1091 -1.4442
   31MOL   H39014250   6.781   4.141   6.511 -0.1599 -0.7714 -0.4426
   31MOL   H39114251   6.594   4.128   6.910  0.5796  0.2745  0.0712
   31MOL   H39214252   6.813   4.057   6.999  1.5156 -3.6488 -0.3639
   31MOL   O39314253   6.302   4.159   6.647  0.3655 -0.1719  0.4180
   31MOL   C39414254   6.235   4.283   6.673 -0.5617 -0.3297 -0.0366
   31MOL   C39514255   6.102   4.286   6.609  0.1088 -0.1272  0.2933
   31MOL   O39614256   6.039   4.163   6.639 -0.0122 -0.6280  0.1158
   31MOL   C39714257   5.989   4.138   6.761 -0.2333 -0.4513  0.3380
   31MOL   O39814258   5.962   4.223   6.847  0.4114 -0.0302 -0.3987
   31MOL   C39914259   5.965   3.995   6.784  0.1771  0.7197 -0.4032
   31MOL   C40014260   5.954   3.943   6.913  0.1829 -0.2637  0.0311
   31MOL   C40114261   5.933   3.804   6.931  0.7385 -0.4942  0.5087
   31MOL   C40214262   5.928   3.721   6.815 -0.4055  0.0938 -0.1193
   31MOL   C40314263   5.889   3.576   6.820  0.6296  0.1066 -0.5522
   31MOL   O40414264   5.910   3.502   6.913  0.3613 -0.0852 -0.4988
   31MOL   O40514265   5.825   3.542   6.711  0.0463 -0.0049  0.4748
   31MOL   C40614266   5.937   3.777   6.684 -0.1665 -0.3752  0.1700
   31MOL   C40714267   5.965   3.911   6.666  0.7364  0.0680  0.2316
   31MOL   H40814268   6.243   4.287   6.781 -1.2543  0.8635 -0.0303
   31MOL   H40914269   6.299   4.359   6.628 -0.6534 -1.3867 -2.0449
   31MOL   H41014270   6.115   4.300   6.502  0.8493  1.3414  0.5532
   31MOL   H41114271   6.043   4.373   6.638  0.0502  0.0231 -0.2741
   31MOL   H41214272   5.948   4.015   6.993  2.9667 -0.0734  0.1093
   31MOL   H41314273   5.909   3.762   7.027  2.0380 -1.6078  0.3633
   31MOL   H41414274   5.935   3.711   6.598  1.7760 -0.4653  0.1721
   31MOL   H41514275   5.977   3.942   6.564 -0.2054 -0.4722 -0.0420
   31MOL   O41614276   5.802   3.395   6.688  0.0966 -0.4606 -0.3031
   31MOL   C41714277   5.665   3.374   6.639  0.7143 -0.0232  0.1748
   31MOL   C41814278   5.633   3.413   6.492  0.2988  0.1153 -0.1135
   31MOL   O41914279   5.608   3.551   6.493  0.8295 -0.2629 -0.3056
   31MOL   C42014280   5.686   3.638   6.438 -0.2336 -0.4696 -0.1561
   31MOL   O42114281   5.802   3.613   6.401  0.6312 -0.7417  0.1226
   31MOL   C42214282   5.636   3.772   6.438  0.1485  0.1562 -0.4030
   31MOL   C42314283   5.500   3.798   6.485 -0.2747 -0.4151 -0.6622
   31MOL   C42414284   5.438   3.920   6.470  0.1125 -0.3163  0.5360
   31MOL   C42514285   5.508   4.029   6.413  0.4517 -0.4798  0.2042
   31MOL   C42614286   5.443   4.160   6.376  0.6904  0.1986 -0.3217
   31MOL   O42714287   5.503   4.263   6.348  0.1297  0.0348 -0.2615
   31MOL   O42814288   5.314   4.157   6.374 -0.1451  0.0934  0.1083
   31MOL   C42914289   5.638   4.004   6.373 -0.1599  0.5596 -0.3358
   31MOL   C43014290   5.708   3.881   6.386 -0.0373 -0.4684  0.0825
   31MOL   H43114291   5.643   3.268   6.652 -0.8645  0.2494 -0.1553
   31MOL   H43214292   5.600   3.423   6.711 -1.2683  1.2189 -2.4046
   31MOL   H43314293   5.542   3.369   6.452 -0.0690  1.8222 -1.1883
   31MOL   H43414294   5.716   3.379   6.429  0.9459 -1.7465  1.6846
   31MOL   H43514295   5.446   3.717   6.532 -0.3902  0.3357  0.5297
   31MOL   H43614296   5.335   3.939   6.495  0.2745  2.9656 -1.0340
   31MOL   H43714297   5.695   4.087   6.334  2.7830 -0.7964  0.9310
   31MOL   H43814298   5.813   3.875   6.362 -0.0155 -2.4735  0.5410
   31MOL   O43914299   5.242   4.290   6.357  0.3134  0.1885  0.5498
   31MOL   C44014300   5.145   4.305   6.456  0.5882 -0.1024  0.2042
   31MOL   C44114301   5.029   4.205   6.453  0.3937 -0.1540  0.4164
   31MOL   O44214302   4.923   4.258   6.517  0.9935  0.3326 -0.5848
   31MOL   C44314303   4.797   4.207   6.510 -0.3299 -0.4723 -0.0768
   31MOL   O44414304   4.768   4.106   6.448  0.1158 -0.0173 -0.1089
   31MOL   C44514305   4.704   4.286   6.585  0.1763 -0.3577  0.0673
   31MOL   C44614306   4.567   4.279   6.552 -0.1488  0.1912  0.5520
   31MOL   C44714307   4.472   4.363   6.616 -0.0014  0.5053  0.3041
   31MOL   C44814308   4.511   4.463   6.710  0.2361  0.7131  0.1176
   31MOL   C44914309   4.408   4.551   6.774 -0.3216  0.2593 -0.3550
   31MOL   O45014310   4.434   4.653   6.842 -0.3474  0.3218  0.1107
   31MOL   O45114311   4.280   4.512   6.748  0.4590 -0.1410  0.1794
   31MOL   C45214312   4.646   4.472   6.737  0.1879 -0.2803  0.1369
   31MOL   C45314313   4.741   4.387   6.678 -0.1931 -0.2728 -0.0536
   31MOL   H45414314   5.200   4.292   6.550  0.1676 -0.8331  0.3527
   31MOL   H45514315   5.105   4.406   6.452 -0.8603 -0.6442  0.7539
   31MOL   H45614316   5.074   4.120   6.504  0.5942 -1.9877 -2.7326
   31MOL   H45714317   4.987   4.180   6.356 -0.1709  0.7391  0.4228
   31MOL   H45814318   4.522   4.208   6.484  0.3484 -0.1523  0.5806
   31MOL   H45914319   4.367   4.346   6.596 -0.2053 -0.5463  2.1642
   31MOL   H46014320   4.682   4.544   6.810  3.1841 -0.4104 -1.1381
   31MOL   H46114321   4.845   4.396   6.706 -0.0475 -0.1308 -0.6259
   31MOL   H46214322   4.219   4.582   6.767 -0.7748 -0.4117 -2.5617
   32MOL     O114323   3.614   6.392   5.921 -0.7047  0.1384  0.2447
   32MOL     C214324   3.740   6.384   5.865  0.2424 -0.5700  0.2773
   32MOL     C314325   3.824   6.509   5.903 -0.0711  0.1957  0.0793
   32MOL     O414326   3.952   6.510   5.833  0.3126 -0.3055 -0.1110
   32MOL     C514327   3.964   6.545   5.704 -0.1383  0.5009  0.2351
   32MOL     O614328   3.862   6.568   5.637  0.1624  0.4564 -0.1046
   32MOL     C714329   4.093   6.542   5.646 -0.4319  0.2307  0.4692
   32MOL     C814330   4.108   6.557   5.508  0.6119 -0.6085  0.1522
   32MOL     C914331   4.232   6.538   5.451 -0.6062 -0.9459  0.6760
   32MOL    C1014332   4.352   6.517   5.526 -0.5284  0.0338 -0.0445
   32MOL    C1114333   4.492   6.509   5.467  0.7795 -0.9915 -0.8397
   32MOL    O1214334   4.510   6.507   5.345 -0.6405 -0.5444  0.1768
   32MOL    O1314335   4.588   6.513   5.559  0.3657 -0.0471 -0.1398
   32MOL    C1414336   4.338   6.510   5.663  0.0672  0.9769 -0.7957
   32MOL    C1514337   4.212   6.526   5.726 -0.6193  0.0063  0.3175
   32MOL    H1614338   3.794   6.297   5.903  2.0226  0.9682  1.3213
   32MOL    H1714339   3.730   6.375   5.757  2.0164  3.8812 -0.3699
   32MOL    H1814340   3.838   6.522   6.010  0.3499 -1.1921  0.2001
   32MOL    H1914341   3.768   6.599   5.876  1.7906  0.9552 -1.3703
   32MOL    H2014342   4.023   6.568   5.442  0.0815  0.3823  0.9854
   32MOL    H2114343   4.208   6.536   5.346 -1.5263  1.5496  0.8040
   32MOL    H2214344   4.423   6.493   5.726  0.6332 -2.1738 -2.3291
   32MOL    H2314345   4.202   6.528   5.833  0.5460  0.0620  0.4370
   32MOL    H2414346   3.628   6.354   6.007 -1.3602  1.4932  0.9683
   32MOL    O2514347   4.725   6.490   5.500  0.2935  0.6026 -0.3324
   32MOL    C2614348   4.801   6.604   5.532 -0.0986 -0.2237  0.2847
   32MOL    C2714349   4.916   6.628   5.438 -0.2266  0.6547  0.4640
   32MOL    O2814350   4.989   6.507   5.443  0.0377 -0.0184 -0.0616
   32MOL    C2914351   5.093   6.476   5.366  0.0731  0.6686 -0.3752
   32MOL    O3014352   5.140   6.556   5.290  0.0088  0.0795  0.7338
   32MOL    C3114353   5.151   6.344   5.386  0.4204 -0.5029  0.8054
   32MOL    C3214354   5.091   6.251   5.475 -0.3844 -0.8628 -0.4619
   32MOL    C3314355   5.144   6.129   5.504  0.6597  0.6643 -0.0773
   32MOL    C3414356   5.258   6.088   5.428 -0.5956  0.6165 -0.6040
   32MOL    C3514357   5.325   5.957   5.463  0.5674  0.2452 -0.2955
   32MOL    O3614358   5.434   5.917   5.420  0.2285 -0.1131 -0.4430
   32MOL    O3714359   5.261   5.882   5.550  0.3143 -0.0285  0.6182
   32MOL    C3814360   5.325   6.183   5.345  0.4712 -0.1263  0.4961
   32MOL    C3914361   5.268   6.309   5.317  0.0121 -0.0033  0.0707
   32MOL    H4014362   4.738   6.692   5.543 -2.4021 -1.0473 -4.9555
   32MOL    H4114363   4.835   6.587   5.635 -1.0884  1.3745  0.8985
   32MOL    H4214364   4.977   6.711   5.471 -0.7202  0.5560  1.6476
   32MOL    H4314365   4.876   6.635   5.336  2.4075  0.3989 -0.6244
   32MOL    H4414366   4.992   6.265   5.516  0.2476 -2.6975  1.7956
   32MOL    H4514367   5.099   6.064   5.577  1.9012 -2.0249 -1.6184
   32MOL    H4614368   5.415   6.164   5.288 -0.6588  2.2526 -2.1757
   32MOL    H4714369   5.320   6.384   5.258 -0.0259 -0.0832 -0.0645
   32MOL    O4814370   5.351   5.783   5.616 -0.0328 -0.9384 -1.1921
   32MOL    C4914371   5.324   5.661   5.554  0.2393 -0.0129 -0.0244
   32MOL    C5014372   5.387   5.549   5.636  0.1761  0.0865 -1.1256
   32MOL    O5114373   5.297   5.501   5.731  1.2259 -0.5407  0.5839
   32MOL    C5214374   5.331   5.401   5.817  0.8017 -0.4303 -0.2451
   32MOL    O5314375   5.438   5.340   5.801 -0.2761  0.2406  0.4655
   32MOL    C5414376   5.231   5.367   5.920  0.3590  0.6029 -0.6573
   32MOL    C5514377   5.261   5.266   6.018  0.3897 -0.8284 -0.0112
   32MOL    C5614378   5.171   5.219   6.116  0.1357 -0.3414 -0.0111
   32MOL    C5714379   5.036   5.283   6.126 -0.2254  0.5994  0.7769
   32MOL    C5814380   4.934   5.233   6.219  0.2130 -0.0758  0.1744
   32MOL    O5914381   4.949   5.135   6.291 -0.0321  0.2112  0.2646
   32MOL    O6014382   4.825   5.314   6.227 -0.1474  0.1918 -0.1618
   32MOL    C6114383   5.007   5.381   6.020  0.4068  0.1047  0.7959
   32MOL    C6214384   5.105   5.424   5.925  0.1949  0.4528  0.4545
   32MOL    H6314385   5.217   5.643   5.565 -0.4085  1.6874 -2.8435
   32MOL    H6414386   5.334   5.663   5.445  0.6214 -0.7227 -0.0043
   32MOL    H6514387   5.477   5.586   5.684  0.5797 -1.5992 -0.5470
   32MOL    H6614388   5.423   5.464   5.577 -0.8913 -2.7711  2.1756
   32MOL    H6714389   5.360   5.222   6.014  0.1939 -1.3983  0.9865
   32MOL    H6814390   5.194   5.137   6.182 -0.6002  0.6220  1.4772
   32MOL    H6914391   4.912   5.431   6.027 -0.7368 -1.6723 -1.5570
   32MOL    H7014392   5.070   5.488   5.845 -1.8003  2.5520  2.9242
   32MOL    O7114393   4.724   5.273   6.333 -0.0219 -0.0174 -0.6362
   32MOL    C7214394   4.741   5.365   6.441  0.5137  0.2398 -0.3271
   32MOL    C7314395   4.705   5.511   6.394 -0.8190 -0.3460 -0.4080
   32MOL    O7414396   4.670   5.577   6.511  0.0647  0.1488  0.6236
   32MOL    C7514397   4.680   5.705   6.518  0.0903 -0.2043  0.1485
   32MOL    O7614398   4.697   5.784   6.427  0.5623  0.1451 -0.5611
   32MOL    C7714399   4.700   5.742   6.665 -0.2318  0.6694 -0.2768
   32MOL    C7814400   4.700   5.640   6.766  1.1721  0.1591  0.2741
   32MOL    C7914401   4.711   5.683   6.896  0.2408 -0.0661  0.0540
   32MOL    C8014402   4.723   5.816   6.938  1.1211 -0.0917  0.3940
   32MOL    C8114403   4.721   5.835   7.084 -0.4340 -0.5773 -0.3015
   32MOL    O8214404   4.669   5.750   7.163  0.0834 -0.3149 -0.1851
   32MOL    O8314405   4.776   5.952   7.121 -0.0723 -0.2227 -0.1984
   32MOL    C8414406   4.740   5.921   6.841 -0.1459  0.7911 -0.1713
   32MOL    C8514407   4.728   5.879   6.703 -0.4186  0.0405  0.3356
   32MOL    H8614408   4.674   5.344   6.524  0.5697 -1.6762 -0.7440
   32MOL    H8714409   4.843   5.366   6.479  1.0103  2.2675 -1.6238
   32MOL    H8814410   4.618   5.506   6.329 -0.4896 -0.0679 -0.8755
   32MOL    H8914411   4.791   5.559   6.346  0.2627 -0.8498  0.9937
   32MOL    H9014412   4.687   5.536   6.740  1.9037  0.5844 -1.8926
   32MOL    H9114413   4.704   5.595   6.959  1.0021 -2.4344 -3.0306
   32MOL    H9214414   4.754   6.028   6.853  0.9652  0.3642  2.5898
   32MOL    H9314415   4.723   5.956   6.627  0.5633 -1.1532 -0.9799
   32MOL    O9414416   4.817   5.967   7.268 -0.0471  0.0463  0.0884
   32MOL    C9514417   4.709   6.028   7.331 -0.3600 -0.1369 -0.9385
   32MOL    C9614418   4.677   6.178   7.291 -0.7959 -0.3987 -0.4986
   32MOL    O9714419   4.594   6.192   7.180 -0.0605 -0.6004 -1.0936
   32MOL    C9814420   4.610   6.278   7.079  0.5604  0.4121  0.3330
   32MOL    O9914421   4.719   6.328   7.056  0.0329 -0.1608 -0.4235
   32MOL   C10014422   4.491   6.301   6.993 -0.1557  0.2999  0.0921
   32MOL   C10114423   4.386   6.204   6.993 -0.0390  0.2868  0.0243
   32MOL   C10214424   4.268   6.231   6.922 -0.9095  0.4921 -0.2565
   32MOL   C10314425   4.249   6.354   6.856 -0.8593  1.0759 -0.0081
   32MOL   C10414426   4.122   6.374   6.779 -0.1063 -0.4141 -0.4003
   32MOL   O10514427   4.044   6.280   6.762 -0.2673 -0.1386  0.2139
   32MOL   O10614428   4.111   6.493   6.716  0.4570  0.3959  0.4132
   32MOL   C10714429   4.350   6.453   6.866  0.4232 -0.3526  0.3346
   32MOL   C10814430   4.472   6.424   6.928  0.3822 -1.3262  0.2359
   32MOL   H10914431   4.616   5.974   7.317 -1.2800  1.8892 -2.9519
   32MOL   H11014432   4.720   6.037   7.439 -1.7749  0.5135 -0.8317
   32MOL   H11114433   4.770   6.227   7.261 -1.1203  2.2389  2.5584
   32MOL   H11214434   4.639   6.236   7.375 -0.4475  0.1803 -0.7339
   32MOL   H11314435   4.389   6.106   7.038 -1.8700  0.6791  1.0551
   32MOL   H11414436   4.194   6.154   6.907  0.0660 -0.4761 -0.1174
   32MOL   H11514437   4.336   6.550   6.821 -1.4074 -1.7962 -2.4112
   32MOL   H11614438   4.548   6.500   6.930  0.5644 -1.5070  0.2909
   32MOL   O11714439   3.986   6.500   6.641 -0.0629  0.2950  0.2094
   32MOL   C11814440   3.889   6.580   6.709  0.1198  0.0967 -0.4574
   32MOL   C11914441   3.918   6.732   6.688 -0.3491 -0.0060  0.5652
   32MOL   O12014442   3.969   6.811   6.788 -0.2217 -0.0354  0.3701
   32MOL   C12114443   4.101   6.835   6.796 -0.0802 -0.1658 -0.1263
   32MOL   O12214444   4.188   6.784   6.726  0.4750  0.5716 -0.0834
   32MOL   C12314445   4.130   6.945   6.895  0.0531  0.0331  0.3632
   32MOL   C12414446   4.025   7.002   6.975  0.1740  0.2876 -0.1759
   32MOL   C12514447   4.052   7.104   7.070 -0.3707  0.0511 -0.1146
   32MOL   C12614448   4.186   7.144   7.093  0.2308 -0.7160 -0.2628
   32MOL   C12714449   4.217   7.251   7.194  0.5287 -0.8397  0.3053
   32MOL   O12814450   4.145   7.268   7.290  0.3938  0.2769  0.3111
   32MOL   O12914451   4.331   7.313   7.178  0.2286 -0.3323 -0.7504
   32MOL   C13014452   4.288   7.093   7.011  0.5530  0.2196 -0.6985
   32MOL   C13114453   4.262   6.996   6.913  0.0310  0.0725  0.9773
   32MOL   H13214454   3.801   6.569   6.646  0.6018 -0.6436 -1.0106
   32MOL   H13314455   3.872   6.537   6.807  0.2167  0.6290 -0.2104
   32MOL   H13414456   3.820   6.773   6.662 -0.1048 -0.0823 -0.4956
   32MOL   H13514457   3.979   6.752   6.600  0.3129 -1.0469  0.7777
   32MOL   H13614458   3.921   6.971   6.966  0.6384 -1.1363 -0.7548
   32MOL   H13714459   3.970   7.147   7.125 -1.4321 -1.8509 -0.1554
   32MOL   H13814460   4.391   7.124   7.015  0.6575 -0.1053 -0.8214
   32MOL   H13914461   4.342   6.952   6.856 -0.1567  1.6169 -0.5215
   32MOL   O14014462   4.369   7.395   7.299  0.4422  0.5373 -1.2132
   32MOL   C14114463   4.354   7.530   7.258 -0.3720  0.5092 -1.2879
   32MOL   C14214464   4.417   7.624   7.363 -0.0128 -0.6210 -0.1207
   32MOL   O14314465   4.330   7.660   7.472  0.1470  0.0469 -0.1999
   32MOL   C14414466   4.368   7.759   7.554  0.5755 -0.4323  0.5751
   32MOL   O14514467   4.476   7.818   7.545  0.7185 -0.3834 -0.4818
   32MOL   C14614468   4.260   7.793   7.654  0.0934  0.0442  0.3699
   32MOL   C14714469   4.120   7.760   7.641 -0.7897  0.4215  0.1639
   32MOL   C14814470   4.031   7.798   7.744 -0.3894 -0.0914  0.4100
   32MOL   C14914471   4.079   7.864   7.862  0.2490  0.4956 -0.2983
   32MOL   C15014472   3.998   7.874   7.983 -0.1985  0.8931 -0.3380
   32MOL   O15114473   3.890   7.829   7.996  0.3330 -0.2875 -0.0738
   32MOL   O15214474   4.060   7.937   8.086  0.2522  0.8798  0.2167
   32MOL   C15314475   4.217   7.896   7.878 -0.5964 -0.1774  0.1134
   32MOL   C15414476   4.304   7.856   7.773  0.6539  0.1017  0.6158
   32MOL   H15514477   4.414   7.547   7.168 -0.0607 -0.8077 -1.3392
   32MOL   H15614478   4.252   7.562   7.240 -1.6379 -2.2994  0.6299
   32MOL   H15714479   4.433   7.717   7.309  1.5374  0.0113  1.3980
   32MOL   H15814480   4.513   7.587   7.400  0.7899 -1.4132 -2.8803
   32MOL   H15914481   4.075   7.720   7.551  0.6312  0.4958 -0.5789
   32MOL   H16014482   3.929   7.770   7.726  0.0482 -1.0590 -0.6083
   32MOL   H16114483   4.255   7.952   7.962 -0.9304  1.7836 -1.0245
   32MOL   H16214484   4.410   7.868   7.790  0.9592 -0.2812 -0.9157
   32MOL   O16314485   3.983   7.953   8.213  0.7389  0.0379 -0.6734
   32MOL   C16414486   4.017   7.838   0.018 -0.1395  0.0491 -0.0821
   32MOL   C16514487   3.937   7.822   0.149 -0.4327  0.0869 -0.4449
   32MOL   O16614488   4.015   7.873   0.258  0.2961  0.4315  0.4596
   32MOL   C16714489   3.975   7.969   0.333 -0.4485 -0.0347 -0.0696
   32MOL   O16814490   3.892   8.048   0.291 -0.2576 -0.2867 -0.6118
   32MOL   C16914491   4.045   7.959   0.466 -0.6727 -0.3730 -0.0341
   32MOL   C17014492   4.024   8.066   0.553  0.1562  0.1155  0.4286
   32MOL   C17114493   4.086   8.061   0.680 -0.5278 -0.3257 -0.2822
   32MOL   C17214494   4.178   7.965   0.721  0.3270  0.0675 -0.4084
   32MOL   C17314495   4.248   7.958   0.850 -0.0249 -0.5626  0.7644
   32MOL   O17414496   4.352   7.898   0.873  0.2726  0.2143 -0.5125
   32MOL   O17514497   4.184   8.034   0.947  0.0850 -0.3034  0.0989
   32MOL   C17614498   4.201   7.862   0.631 -0.6277 -0.3901 -0.0426
   32MOL   C17714499   4.133   7.852   0.507 -0.2898 -0.4804 -0.2947
   32MOL   H17814500   3.987   7.751   8.235  0.8760 -0.0705 -0.4279
   32MOL   H17914501   4.124   7.832   0.037 -0.2128  1.6154  0.9505
   32MOL   H18014502   3.916   7.718   0.173 -0.9163  0.1224 -0.7043
   32MOL   H18114503   3.840   7.870   0.139 -0.4439  0.5617  1.7001
   32MOL   H18214504   3.966   8.154   0.529  1.1309  1.0814  1.5503
   32MOL   H18314505   4.059   8.136   0.753  1.6792 -1.5808  1.9302
   32MOL   H18414506   4.262   7.778   0.659 -0.7805 -0.8208 -0.9587
   32MOL   H18514507   4.133   7.759   0.452 -2.4846 -2.1603  2.4366
   32MOL   O18614508   4.268   8.056   1.070  0.0338  0.1688  0.0375
   32MOL   C18714509   4.211   7.984   1.175 -0.0498 -0.3787 -0.6078
   32MOL   C18814510   4.310   7.976   1.292 -0.0419  0.2506  0.6915
   32MOL   O18914511   4.439   7.944   1.238  0.6376 -0.4234 -0.6150
   32MOL   C19014512   4.485   7.817   1.221  0.8914  0.4999  0.4188
   32MOL   O19114513   4.414   7.717   1.237 -0.5954 -0.1737 -0.0440
   32MOL   C19214514   4.625   7.816   1.184  0.4234  0.6013 -0.0081
   32MOL   C19314515   4.705   7.933   1.168  0.7409  0.8807 -0.3920
   32MOL   C19414516   4.839   7.920   1.138 -0.4948 -0.4866 -0.3165
   32MOL   C19514517   4.896   7.787   1.125 -1.1222 -0.3171 -0.5095
   32MOL   C19614518   5.043   7.755   1.124  0.5460  0.2530  0.0972
   32MOL   O19714519   5.099   7.652   1.089  0.1246 -0.2483 -0.3912
   32MOL   O19814520   5.109   7.860   1.161 -0.1250  0.0080  0.2991
   32MOL   C19914521   4.813   7.678   1.115 -0.2521 -0.3909  0.2936
   32MOL   C20014522   4.681   7.687   1.155 -0.2566  0.2140 -0.2905
   32MOL   H20114523   4.123   8.036   1.214  0.9097 -0.6031  1.9404
   32MOL   H20214524   4.187   7.887   1.131  0.5898 -0.3873 -0.9391
   32MOL   H20314525   4.294   7.910   1.377 -2.1548  0.4800  0.4902
   32MOL   H20414526   4.310   8.067   1.352  1.0829  0.3673  0.5250
   32MOL   H20514527   4.654   8.028   1.172 -1.9718 -0.5553  0.4068
   32MOL   H20614528   4.907   8.002   1.121 -0.5558  0.0075  1.6711
   32MOL   H20714529   4.858   7.581   1.099  1.8494  0.1043  2.9477
   32MOL   H20814530   4.627   7.594   1.149  0.8609 -0.5823  1.5943
   32MOL   O20914531   5.258   7.840   1.165 -0.0541  0.0056 -0.0583
   32MOL   C21014532   5.305   7.881   1.037 -0.0026  0.1072 -0.2038
   32MOL   C21114533   5.331   8.031   1.023 -0.0109 -0.3873 -0.7655
   32MOL   O21214534   5.204   8.092   1.015  0.2236  0.4423 -0.5145
   32MOL   C21314535   5.195   8.222   0.991  0.3281 -0.3514  0.5050
   32MOL   O21414536   5.294   0.022   0.992  0.0398  0.2113 -0.3098
   32MOL   C21514537   5.059   0.005   0.961 -0.4116 -0.2874 -0.3789
   32MOL   C21614538   5.038   0.146   0.954 -0.2914  0.3424 -0.7998
   32MOL   C21714539   4.911   0.198   0.932  0.3416  0.8914 -0.2320
   32MOL   C21814540   4.801   0.115   0.916 -0.1135  0.8106 -0.0471
   32MOL   C21914541   4.660   0.185   0.888 -0.5527  0.0455  0.3037
   32MOL   O22014542   4.638   0.307   0.869  0.5202 -0.2418 -0.0465
   32MOL   O22114543   4.567   0.092   0.892  0.6861 -0.2774 -0.7771
   32MOL   C22214544   4.820   8.250   0.918  0.3434  0.0812 -0.5042
   32MOL   C22314545   4.945   8.201   0.955  0.3062 -0.7301 -0.0987
   32MOL   H22414546   5.405   7.840   1.022 -0.3035 -0.4678 -0.6790
   32MOL   H22514547   5.246   7.842   0.954  0.8729 -3.6143  0.8199
   32MOL   H22614548   5.385   8.053   0.932  1.1329 -1.8383 -0.4613
   32MOL   H22714549   5.387   8.073   1.106 -0.8226  3.0884 -1.9148
   32MOL   H22814550   5.122   0.209   0.980 -0.3896  0.4315 -0.6981
   32MOL   H22914551   4.898   0.303   0.912 -1.6534  1.2071  2.5991
   32MOL   H23014552   4.739   8.180   0.906  1.0354 -0.4368 -2.2989
   32MOL   H23114553   4.961   8.094   0.954 -1.2899 -1.0266  2.2085
   32MOL   O23214554   4.432   0.142   0.846 -0.6189  0.0770 -0.3437
   32MOL   C23314555   4.361   0.161   0.964 -0.1104 -0.0155 -0.1559
   32MOL   C23414556   4.210   0.169   0.918  0.2376 -0.1060 -0.3679
   32MOL   O23514557   4.122   0.152   1.023 -0.3808 -0.2726 -0.0045
   32MOL   C23614558   4.073   0.257   1.093  0.2412 -0.1666  0.1128
   32MOL   O23714559   4.114   0.371   1.082  0.4318  0.7598 -0.1611
   32MOL   C23814560   3.960   0.219   1.180 -0.2559  0.1801 -0.3321
   32MOL   C23914561   3.902   0.322   1.260 -0.3519 -0.1367  0.9644
   32MOL   C24014562   3.797   0.289   1.350  0.0920 -0.1943 -0.0583
   32MOL   C24114563   3.749   0.160   1.350  0.6509  0.2847 -0.0284
   32MOL   C24214564   3.629   0.128   1.435  0.2924 -0.1847  0.2121
   32MOL   O24314565   3.569   0.215   1.495  0.5120 -0.2159  0.0855
   32MOL   O24414566   3.595   8.274   1.427 -0.0455  0.7278 -0.2423
   32MOL   C24514567   3.811   0.060   1.278  0.0342 -0.0937  0.5536
   32MOL   C24614568   3.917   0.089   1.189 -0.0913 -0.6691 -0.5462
   32MOL   H24714569   4.364   0.076   1.033 -0.7031  1.6835  2.0445
   32MOL   H24814570   4.388   0.248   1.023 -0.9344  0.1155  0.0436
   32MOL   H24914571   4.199   0.080   0.856  1.5539 -1.6719  1.5412
   32MOL   H25014572   4.189   0.251   0.850 -0.3316  0.4421  0.4575
   32MOL   H25114573   3.947   0.420   1.249  2.4198 -1.5304 -0.3814
   32MOL   H25214574   3.758   0.360   1.421 -0.3507 -0.3701 -0.1261
   32MOL   H25314575   3.774   8.234   1.286 -1.5886  0.4168 -0.1878
   32MOL   H25414576   3.955   0.004   1.134  0.0302 -2.5044  2.2945
   32MOL   O25514577   3.467   8.242   1.488 -0.3187  0.7864 -0.1433
   32MOL   C25614578   3.475   8.200   1.621  0.4292 -0.1702  0.7621
   32MOL   C25714579   3.335   8.227   1.675 -0.2424 -0.0060 -0.5299
   32MOL   O25814580   3.315   0.093   1.674  0.5747 -0.3631 -0.2644
   32MOL   C25914581   3.329   0.155   1.793  0.0669  0.1514  0.2958
   32MOL   O26014582   3.340   0.092   1.900 -0.4210 -0.4846 -0.0380
   32MOL   C26114583   3.333   0.302   1.784  0.5540  0.3582  0.6585
   32MOL   C26214584   3.320   0.385   1.900 -0.3334  0.2921 -0.3063
   32MOL   C26314585   3.318   0.528   1.888 -0.5987 -0.2021  0.5044
   32MOL   C26414586   3.331   0.592   1.759 -0.5680  0.2082 -0.0893
   32MOL   C26514587   3.345   0.740   1.760  0.5020 -0.0849 -0.6578
   32MOL   O26614588   3.354   0.806   1.860  0.2424  0.3705  0.0955
   32MOL   O26714589   3.334   0.791   1.634 -0.2900 -0.3559 -0.0367
   32MOL   C26814590   3.352   0.509   1.649  0.3429  0.2189  0.2214
   32MOL   C26914591   3.345   0.369   1.659  0.6543  0.0491 -0.5362
   32MOL   H27014592   3.515   8.100   1.634 -0.0679 -0.8741 -2.5633
   32MOL   H27114593   3.536   8.265   1.683 -0.0085 -0.0221  1.0352
   32MOL   H27214594   3.319   8.172   1.767  2.2520  1.0997  0.6289
   32MOL   H27314595   3.276   8.179   1.597  0.3785  1.0284 -1.6741
   32MOL   H27414596   3.307   0.329   1.992  2.7354  0.1522  0.0648
   32MOL   H27514597   3.300   0.587   1.977  1.9097  0.0888  0.8590
   32MOL   H27614598   3.362   0.553   1.551 -2.7891  2.4055  0.7821
   32MOL   H27714599   3.342   0.313   1.567  0.5995 -0.2313 -0.3636
   32MOL   O27814600   3.329   0.936   1.621  0.0044 -0.5221 -0.6670
   32MOL   C27914601   3.454   0.980   1.560  0.0859 -0.4426 -0.1616
   32MOL   C28014602   3.463   0.926   1.419 -0.3729 -0.3414 -0.1363
   32MOL   O28114603   3.572   0.994   1.350  0.1200 -0.3057 -0.0220
   32MOL   C28214604   3.550   1.098   1.271 -0.4386 -0.4549  0.1338
   32MOL   O28314605   3.440   1.125   1.230  0.0097 -1.1321  0.1168
   32MOL   C28414606   3.672   1.179   1.242  0.8093 -0.2811  0.1081
   32MOL   C28514607   3.662   1.299   1.170  0.3354 -0.3597 -0.4883
   32MOL   C28614608   3.782   1.368   1.133 -0.9289 -0.2175 -0.1141
   32MOL   C28714609   3.913   1.321   1.166  0.5076 -0.2708 -0.0880
   32MOL   C28814610   4.034   1.382   1.119  0.1865  0.1451  0.6610
   32MOL   O28914611   4.030   1.476   1.039 -0.4937 -0.0349 -0.4217
   32MOL   O29014612   4.145   1.336   1.164 -0.8224  0.0566 -0.0834
   32MOL   C29114613   3.914   1.202   1.246 -0.7916 -0.5084  0.2739
   32MOL   C29214614   3.802   1.134   1.275 -0.2223  0.1993 -0.6842
   32MOL   H29314615   3.449   1.088   1.554 -0.4897 -0.3196  1.9622
   32MOL   H29414616   3.542   0.945   1.614  1.3145  1.0208 -1.1665
   32MOL   H29514617   3.363   0.945   1.379 -0.9867  0.8625  1.8741
   32MOL   H29614618   3.473   0.817   1.422  0.9582 -0.2358 -0.2667
   32MOL   H29714619   3.566   1.331   1.133  1.2104  0.8375 -1.7825
   32MOL   H29814620   3.770   1.458   1.075 -0.7013 -0.7078 -0.9371
   32MOL   H29914621   4.009   1.159   1.275  0.6443  1.0373 -1.8907
   32MOL   H30014622   3.816   1.043   1.332 -0.1560  0.1885 -0.7174
   32MOL   O30114623   4.275   1.395   1.097  0.8488  0.7862 -0.1864
   32MOL   C30214624   4.314   1.313   0.982  0.0346  0.2139  0.0304
   32MOL   C30314625   4.343   1.165   1.002 -0.1113  0.3546 -0.9684
   32MOL   O30414626   4.304   1.092   0.885 -0.3456  0.4749  0.3778
   32MOL   C30514627   4.397   1.066   0.792 -1.4465  0.3979 -0.1066
   32MOL   O30614628   4.513   1.114   0.803 -0.0849 -0.1104  0.3487
   32MOL   C30714629   4.350   0.980   0.677  0.0533  0.5485  0.1200
   32MOL   C30814630   4.434   0.958   0.564 -0.2298  0.1551  0.5892
   32MOL   C30914631   4.394   0.870   0.459 -0.5473  0.0340 -0.9052
   32MOL   C31014632   4.269   0.803   0.466  0.3002  0.4430 -0.9130
   32MOL   C31114633   4.225   0.705   0.363 -0.1652 -0.3182 -0.1352
   32MOL   O31214634   4.111   0.654   0.359 -0.3053 -0.2807  0.3777
   32MOL   O31314635   4.323   0.676   0.269 -0.2111 -0.2309 -0.8006
   32MOL   C31414636   4.181   0.838   0.573 -0.5250 -0.1714 -0.5840
   32MOL   C31514637   4.219   0.929   0.673 -0.4307 -0.3119 -0.0559
   32MOL   H31614638   4.229   1.316   0.915  2.4888  0.3363 -3.1704
   32MOL   H31714639   4.393   1.372   0.936  0.7468 -0.0430  0.9093
   32MOL   H31814640   4.274   1.122   1.076  1.9523  0.8656  1.3260
   32MOL   H31914641   4.447   1.145   1.028  0.2549  0.5291 -2.2591
   32MOL   H32014642   4.532   1.003   0.555  0.1605 -0.5377  1.3299
   32MOL   H32114643   4.466   0.853   0.381  1.3318  1.0699  0.5777
   32MOL   H32214644   4.081   0.799   0.565 -1.0652  0.9087  0.6947
   32MOL   H32314645   4.154   0.955   0.755 -0.5034  2.5423 -0.9633
   32MOL   O32414646   4.282   0.561   0.181 -0.3927  1.0008  0.4676
   32MOL   C32514647   4.354   0.446   0.203 -0.5670  0.5249 -0.1786
   32MOL   C32614648   4.271   0.325   0.150 -0.4589 -0.5598  0.5767
   32MOL   O32714649   4.279   0.302   0.011 -0.6301 -0.2678  0.1507
   32MOL   C32814650   4.209   0.192   8.235  0.9224 -0.4479  0.9237
   32MOL   O32914651   4.133   0.127   0.033  0.5657  0.5116 -0.4531
   32MOL   C33014652   4.225   0.165   8.087  0.3811 -0.1129  0.4732
   32MOL   C33114653   4.169   0.048   8.031 -0.1735 -0.3323 -0.2796
   32MOL   C33214654   4.183   0.026   7.896  0.3804 -0.1167  0.4853
   32MOL   C33314655   4.259   0.112   7.810 -0.1829 -0.2814 -0.2834
   32MOL   C33414656   4.275   0.083   7.663  0.0873 -0.7235 -0.3264
   32MOL   O33514657   4.304   0.173   7.583 -0.1753 -0.3327 -0.5309
   32MOL   O33614658   4.237   8.242   7.627  0.5078 -0.2038 -0.9891
   32MOL   C33714659   4.311   0.227   7.870 -0.4377 -0.9669 -0.4929
   32MOL   C33814660   4.297   0.260   8.006  0.0500 -0.8600  0.1327
   32MOL   H33914661   4.456   0.439   0.163 -0.0174 -0.7179  1.3748
   32MOL   H34014662   4.356   0.424   0.309 -3.8928  0.0191 -0.1847
   32MOL   H34114663   4.170   0.330   0.190  0.1487  1.2175  1.9695
   32MOL   H34214664   4.321   0.242   0.200 -0.0744  0.8528  2.6197
   32MOL   H34314665   4.116   8.259   8.100 -1.1704  0.9742  0.2206
   32MOL   H34414666   4.139   8.216   7.847  0.8652  0.0106 -0.1813
   32MOL   H34514667   4.359   0.299   7.805 -2.2070 -0.7928 -1.6258
   32MOL   H34614668   4.328   0.356   8.043 -0.0380 -1.3404  1.5007
   32MOL   O34714669   4.232   8.222   7.478  0.9432  0.1864 -0.1916
   32MOL   C34814670   4.361   8.162   7.442 -0.5193 -0.2527 -0.5020
   32MOL   C34914671   4.355   8.110   7.297 -0.7544  0.8532 -0.5466
   32MOL   O35014672   4.274   7.993   7.277  0.1378  0.2788  0.2979
   32MOL   C35114673   4.286   7.919   7.162  0.3328 -0.6392  0.4831
   32MOL   O35214674   4.374   7.938   7.074  0.5689  0.2170 -0.2351
   32MOL   C35314675   4.176   7.821   7.150  0.2819 -0.4767 -0.4935
   32MOL   C35414676   4.181   7.719   7.048  0.1117 -0.0481  0.6524
   32MOL   C35514677   4.078   7.621   7.045  0.2737 -0.2190 -0.0994
   32MOL   C35614678   3.982   7.610   7.152  0.7120 -1.0890 -0.5370
   32MOL   C35714679   3.888   7.494   7.158 -0.3296  0.3044  0.9867
   32MOL   O35814680   3.886   7.403   7.075  0.0705 -0.2818  0.2430
   32MOL   O35914681   3.808   7.504   7.264  0.2831 -0.4186 -0.5405
   32MOL   C36014682   3.997   7.698   7.259  0.4205 -0.4744 -0.5133
   32MOL   C36114683   4.085   7.806   7.254 -0.1810 -0.0601 -0.4576
   32MOL   H36214684   4.442   8.233   7.458 -1.2680 -0.1334  3.4323
   32MOL   H36314685   4.381   8.080   7.511  1.8055 -0.0985 -0.9546
   32MOL   H36414686   4.461   8.095   7.277 -1.0068  1.6945 -2.6074
   32MOL   H36514687   4.313   8.182   7.227 -0.6141  1.2535 -0.2198
   32MOL   H36614688   4.258   7.731   6.973 -0.7801  2.4554  0.1010
   32MOL   H36714689   4.086   7.553   6.961 -0.2177  0.0565 -0.3783
   32MOL   H36814690   3.931   7.697   7.345 -0.0447  1.6438 -0.8099
   32MOL   H36914691   4.085   7.879   7.333 -0.6410  0.9819 -1.4049
   32MOL   O37014692   3.745   7.369   7.305  0.1360  0.7806  0.5594
   32MOL   C37114693   3.604   7.356   7.273 -0.3582 -0.8280  0.0865
   32MOL   C37214694   3.564   7.222   7.336  0.4571 -0.4685  0.4734
   32MOL   O37314695   3.429   7.193   7.307  0.4455  0.4990  0.5535
   32MOL   C37414696   3.331   7.185   7.405  0.1044  0.6630 -1.3336
   32MOL   O37514697   3.353   7.226   7.521  0.2153 -0.2249 -0.4187
   32MOL   C37614698   3.209   7.123   7.358  0.2629  0.3459  0.3440
   32MOL   C37714699   3.181   7.100   7.221  1.0924 -0.0864  0.2367
   32MOL   C37814700   3.068   7.034   7.175  0.1153 -0.7256 -0.4706
   32MOL   C37914701   2.964   7.003   7.270 -0.7193 -0.4442 -0.5841
   32MOL   C38014702   2.830   6.940   7.223  0.1922 -0.3052 -0.2585
   32MOL   O38114703   2.733   6.944   7.294 -0.2480 -0.1054 -0.3448
   32MOL   O38214704   2.845   6.872   7.109  0.0059 -0.0949 -0.1636
   32MOL   C38314705   2.992   7.024   7.407  0.2375 -0.7546 -0.0779
   32MOL   C38414706   3.119   7.074   7.454  0.2130 -0.1255  0.6759
   32MOL   H38514707   3.554   7.440   7.322  1.1979 -1.4481  2.8309
   32MOL   H38614708   3.602   7.364   7.165 -0.1871  3.1249  0.3147
   32MOL   H38714709   3.584   7.220   7.444  0.1525  1.6179  0.5817
   32MOL   H38814710   3.618   7.140   7.289  1.0868 -0.3907  1.0439
   32MOL   H38914711   3.255   7.127   7.147  2.9676 -0.4075  1.9268
   32MOL   H39014712   3.058   7.027   7.068 -0.0304 -1.3555 -0.4169
   32MOL   H39114713   2.912   7.008   7.477  0.9215 -1.9460  0.4423
   32MOL   H39214714   3.140   7.085   7.559 -1.4208 -0.0347  0.9975
   32MOL   O39314715   2.716   6.846   7.047 -0.9338  0.7149  0.7838
   32MOL   C39414716   2.711   6.705   7.028 -0.3560  0.0089 -0.0614
   32MOL   C39514717   2.634   6.646   7.149 -0.3028  0.1958  0.8882
   32MOL   O39614718   2.700   6.641   7.278  0.0755  0.1088 -0.0165
   32MOL   C39714719   2.645   6.586   7.391  0.0487  0.1255 -0.1600
   32MOL   O39814720   2.538   6.518   7.396 -0.6050 -0.0154  0.4982
   32MOL   C39914721   2.722   6.619   7.511  0.0321 -0.1289 -0.1661
   32MOL   C40014722   2.665   6.596   7.635 -0.7318  0.1044  0.7162
   32MOL   C40114723   2.738   6.625   7.754  0.7022 -0.7209  1.0583
   32MOL   C40214724   2.862   6.686   7.751 -0.2328 -0.2442  0.2207
   32MOL   C40314725   2.926   6.741   7.874  0.2659  0.2514 -0.6181
   32MOL   O40414726   3.046   6.778   7.876 -0.2676 -0.2440 -0.0812
   32MOL   O40514727   2.840   6.754   7.978  0.0982  0.4941 -0.0245
   32MOL   C40614728   2.912   6.723   7.622  0.2403 -0.4149 -0.3275
   32MOL   C40714729   2.848   6.684   7.503 -0.2053  0.0190  0.3836
   32MOL   H40814730   2.657   6.689   6.934  0.6858 -3.3624 -0.1531
   32MOL   H40914731   2.808   6.656   7.027  0.7796  2.2373 -0.8068
   32MOL   H41014732   2.604   6.543   7.132  1.5884  0.0538 -1.8983
   32MOL   H41114733   2.540   6.701   7.152 -1.0025 -1.0444  2.0381
   32MOL   H41214734   2.565   6.555   7.640 -1.3334  1.3813 -0.7442
   32MOL   H41314735   2.684   6.601   7.844  0.0473  0.5557  1.0205
   32MOL   H41414736   3.000   6.785   7.622 -0.6284  0.9075  1.6731
   32MOL   H41514737   2.889   6.701   7.404 -0.2904 -0.8990  0.1912
   32MOL   O41614738   2.896   6.805   8.109 -0.0338 -0.2191 -0.0680
   32MOL   C41714739   2.898   6.949   8.107  0.1182 -0.1657  0.6142
   32MOL   C41814740   2.754   7.014   8.123  0.1519  0.2783  0.9636
   32MOL   O41914741   2.763   7.102   8.231  0.2904 -0.5954 -0.1735
   32MOL   C42014742   2.768   7.233   8.214 -0.1190 -0.0549 -0.2202
   32MOL   O42114743   2.774   7.286   8.104  0.3724  0.0144  0.7434
   32MOL   C42214744   2.755   7.303   0.069  0.5618 -0.3664 -0.1696
   32MOL   C42314745   2.774   7.440   0.069  0.1856 -0.7917  0.0786
   32MOL   C42414746   2.750   7.518   0.187  0.1096  0.7577 -0.0927
   32MOL   C42514747   2.715   7.454   0.308  0.4985 -0.6932  0.4029
   32MOL   C42614748   2.663   7.520   0.427 -0.0187 -0.5126  0.3775
   32MOL   O42714749   2.619   7.468   0.533  0.3413  0.8743 -0.0044
   32MOL   O42814750   2.668   7.653   0.419  0.1760  0.4200  0.0126
   32MOL   C42914751   2.704   7.314   0.308  0.1032  0.2177  0.1149
   32MOL   C43014752   2.724   7.239   0.194 -0.1435 -0.2691 -0.1170
   32MOL   H43114753   2.944   6.970   8.203 -2.2812 -0.0208  1.7662
   32MOL   H43214754   2.956   6.999   8.030  0.1420 -1.4157 -0.1929
   32MOL   H43314755   2.669   6.946   8.132 -0.2047  0.9030  2.6011
   32MOL   H43414756   2.732   7.065   8.029  1.7918  0.5134  0.7014
   32MOL   H43514757   2.806   7.498   8.259  0.2331  2.3371  2.1467
   32MOL   H43614758   2.765   7.625   0.183  2.1116  0.4757 -0.9998
   32MOL   H43714759   2.674   7.254   0.393 -0.1288  0.6434  0.3313
   32MOL   H43814760   2.710   7.132   0.197 -0.4877 -0.1944  0.9076
   32MOL   O43914761   2.614   7.728   0.540 -0.2577  0.5151  0.4173
   32MOL   C44014762   2.496   7.788   0.496 -0.4725 -0.3691  0.1064
   32MOL   C44114763   2.495   7.891   0.392 -0.5562 -0.0204  0.0750
   32MOL   O44214764   2.417   8.005   0.413  0.4216 -0.1529 -0.2384
   32MOL   C44314765   2.292   8.001   0.358  0.3410 -0.0611 -0.1221
   32MOL   O44414766   2.235   7.895   0.328 -0.1028  0.5395 -0.3649
   32MOL   C44514767   2.228   8.135   0.337 -0.1487 -0.8820  0.0418
   32MOL   C44614768   2.309   8.250   0.317 -0.5736 -0.4591  0.0079
   32MOL   C44714769   2.252   0.098   0.300  0.5834  0.1206 -0.9287
   32MOL   C44814770   2.115   0.115   0.301 -0.4678  0.0477  0.0961
   32MOL   C44914771   2.053   0.251   0.286 -0.0033  0.5336  0.3974
   32MOL   O45014772   2.107   0.361   0.307 -0.6330 -0.2700 -0.1895
   32MOL   O45114773   1.926   0.238   0.238 -0.1391  0.0995 -0.5563
   32MOL   C45214774   2.034   8.271   0.312 -0.5696 -0.3393 -0.2564
   32MOL   C45314775   2.089   8.143   0.330  0.0337  0.7815  0.1599
   32MOL   H45414776   2.428   7.710   0.461 -0.9377  0.7072 -1.4429
   32MOL   H45514777   2.445   7.831   0.582 -1.6420 -0.6097 -0.4673
   32MOL   H45614778   2.485   7.858   0.288  1.2564  0.4661 -0.2895
   32MOL   H45714779   2.598   7.928   0.383 -0.9626  0.3715 -4.4136
   32MOL   H45814780   2.416   8.240   0.306 -0.6922 -0.8513 -0.8437
   32MOL   H45914781   2.319   0.181   0.284  0.9473 -0.0786 -0.4248
   32MOL   H46014782   1.928   0.014   0.317 -0.3725  0.5841  0.7609
   32MOL   H46114783   2.017   8.065   0.351  1.3965 -0.1656  1.3967
   32MOL   H46214784   1.876   0.317   0.252  1.8679  1.5930 -1.6516
   33MOL     O114785   5.715   0.373   6.598 -0.0233 -0.0059 -0.3647
   33MOL     C214786   5.832   0.333   6.670 -0.8870 -0.0214  0.1989
   33MOL     C314787   5.785   0.319   6.818 -0.4047 -0.9659 -0.8554
   33MOL     O414788   5.731   0.194   6.845  0.3399  0.0118 -0.3396
   33MOL     C514789   5.672   0.179   6.960  0.1827  0.1267 -0.7114
   33MOL     O614790   5.669   0.269   7.051  0.0910 -0.0002 -0.1500
   33MOL     C714791   5.614   0.045   6.976 -1.0692 -0.3098 -0.2332
   33MOL     C814792   5.564   0.013   7.108 -0.3841  0.1587 -0.0711
   33MOL     C914793   5.500   8.167   7.133  0.2390  0.1673  0.3471
   33MOL    C1014794   5.493   8.068   7.027  0.3338 -0.6826 -0.4454
   33MOL    C1114795   5.439   7.928   7.046  0.4887  0.3544 -0.6418
   33MOL    O1214796   5.397   7.854   6.954 -0.2906  0.0756 -0.3657
   33MOL    O1314797   5.439   7.895   7.174  0.3238 -0.5620  0.4813
   33MOL    C1414798   5.541   8.102   6.902 -0.0774  0.2079  0.3325
   33MOL    C1514799   5.596   8.230   6.873  0.2316  0.1123  0.6300
   33MOL    H1614800   5.872   0.243   6.624 -0.7666 -0.6313  1.4611
   33MOL    H1714801   5.906   0.412   6.656  0.0675 -1.0386 -0.5380
   33MOL    H1814802   5.725   0.404   6.853 -0.4988 -1.0189 -0.8882
   33MOL    H1914803   5.875   0.324   6.880 -0.6563  0.1885 -0.5726
   33MOL    H2014804   5.583   0.082   7.189  0.4327  1.2130 -1.1393
   33MOL    H2114805   5.476   8.144   7.236  1.9155 -0.8903  0.5276
   33MOL    H2214806   5.529   8.036   6.818  0.3216 -1.9101  1.9141
   33MOL    H2314807   5.615   8.253   6.770 -1.2960  2.2041  0.7890
   33MOL    H2414808   5.700   0.464   6.617 -0.2312  0.2462 -1.6944
   33MOL    O2514809   5.418   7.752   7.196 -0.0394 -0.2821 -0.2023
   33MOL    C2614810   5.279   7.730   7.214  0.2609 -0.0466  0.3484
   33MOL    C2714811   5.257   7.582   7.241 -0.2729  0.4112  0.2750
   33MOL    O2814812   5.121   7.553   7.270  0.3931 -0.0276 -0.1307
   33MOL    C2914813   5.077   7.565   7.390 -0.3371  0.3643 -0.0181
   33MOL    O3014814   5.129   7.642   7.476 -0.0291  0.5981  0.4665
   33MOL    C3114815   4.947   7.494   7.418 -0.3467  0.1524 -0.2898
   33MOL    C3214816   4.877   7.410   7.329 -0.2188  0.2859 -0.2135
   33MOL    C3314817   4.759   7.348   7.371  0.5195  0.5709 -0.6719
   33MOL    C3414818   4.719   7.363   7.503  0.6219  0.0200 -0.2004
   33MOL    C3514819   4.597   7.296   7.544 -0.2617 -0.3633  0.2481
   33MOL    O3614820   4.544   7.307   7.653  0.3550 -0.1867  0.2250
   33MOL    O3714821   4.541   7.213   7.454  0.1322  0.4843  0.2918
   33MOL    C3814822   4.793   7.436   7.597  0.6729  0.6291 -0.3332
   33MOL    C3914823   4.903   7.511   7.551  0.5909 -0.0784  0.1389
   33MOL    H4014824   5.246   7.788   7.300 -1.5683 -3.0835  1.7841
   33MOL    H4114825   5.217   7.765   7.131  0.2406  0.2153  0.4718
   33MOL    H4214826   5.331   7.554   7.316 -0.9184  1.2306  1.2240
   33MOL    H4314827   5.287   7.525   7.153 -1.9517  0.1864 -0.1664
   33MOL    H4414828   4.916   7.403   7.229  0.7931  2.4305  0.0023
   33MOL    H4514829   4.713   7.278   7.303 -0.1441  1.6533 -1.3572
   33MOL    H4614830   4.753   7.454   7.696  0.7562  0.9790 -0.3604
   33MOL    H4714831   4.960   7.568   7.623  1.2911  0.1634 -0.6034
   33MOL    O4814832   4.401   7.156   7.480 -0.5837  0.2810 -0.0278
   33MOL    C4914833   4.408   7.017   7.511 -0.9750  0.0839  0.8021
   33MOL    C5014834   4.445   6.943   7.380  0.1314 -0.0051  0.0720
   33MOL    O5114835   4.582   6.941   7.357 -0.4253 -0.0619 -0.3383
   33MOL    C5214836   4.638   6.992   7.245  0.3600 -0.0246 -0.1695
   33MOL    O5314837   4.571   7.007   7.146  0.1526 -0.1373 -0.3531
   33MOL    C5414838   4.787   7.031   7.264 -0.6597 -0.6219 -0.0190
   33MOL    C5514839   4.860   7.077   7.154  0.1101  0.3150 -0.4234
   33MOL    C5614840   4.990   7.131   7.158 -0.7969 -0.2625 -0.8499
   33MOL    C5714841   5.049   7.142   7.288 -0.4861  0.4996  0.8140
   33MOL    C5814842   5.191   7.195   7.288 -0.4761  0.2716  0.6216
   33MOL    O5914843   5.255   7.215   7.183  0.3040 -0.2565 -0.6922
   33MOL    O6014844   5.241   7.219   7.417 -0.3682 -0.2569  0.4894
   33MOL    C6114845   4.983   7.082   7.401 -0.4520 -0.3449  0.1539
   33MOL    C6214846   4.856   7.035   7.389  0.0178 -0.0163  0.0723
   33MOL    H6314847   4.472   6.996   7.597 -2.6958 -1.3900  1.7576
   33MOL    H6414848   4.309   6.994   7.551 -0.9837  0.0059  0.7368
   33MOL    H6514849   4.390   6.995   7.301 -0.8331 -1.3327 -0.1429
   33MOL    H6614850   4.415   6.839   7.385  1.7756 -0.5490 -0.9383
   33MOL    H6714851   4.806   7.086   7.061  1.3176  0.4609 -1.1217
   33MOL    H6814852   5.023   7.187   7.072  1.3151 -0.9915 -0.5494
   33MOL    H6914853   5.030   7.092   7.498 -0.0708 -0.3199 -0.0322
   33MOL    H7014854   4.800   7.000   7.474 -2.1464  0.1840 -1.2492
   33MOL    O7114855   5.385   7.274   7.412 -0.2960  0.1280 -0.0691
   33MOL    C7214856   5.460   7.218   7.524  0.5415 -0.4579  0.5661
   33MOL    C7314857   5.417   7.266   7.664  0.4816 -0.3993 -0.0872
   33MOL    O7414858   5.439   7.410   7.657  0.2493 -0.1692 -0.3285
   33MOL    C7514859   5.476   7.486   7.761 -0.4164 -0.3731 -0.1172
   33MOL    O7614860   5.516   7.437   7.868  1.0171  0.0071  0.7612
   33MOL    C7714861   5.451   7.630   7.742 -0.1610 -0.2646 -0.0621
   33MOL    C7814862   5.403   7.679   7.617 -0.0894  0.2683  0.4223
   33MOL    C7914863   5.386   7.816   7.596  0.5520 -0.1525  0.6299
   33MOL    C8014864   5.434   7.913   7.691  0.0530  0.2753  0.1526
   33MOL    C8114865   5.425   8.057   7.667  0.1349 -0.4217 -0.1358
   33MOL    O8214866   5.404   8.137   7.756 -0.2892 -0.3545 -0.2817
   33MOL    O8314867   5.445   8.081   7.538  0.2499  0.6068 -0.1727
   33MOL    C8414868   5.479   7.865   7.815  0.2230 -0.5381  1.0231
   33MOL    C8514869   5.485   7.727   7.840 -0.6134  0.0592 -0.2756
   33MOL    H8614870   5.445   7.111   7.510  2.4134 -0.6807  0.0292
   33MOL    H8714871   5.561   7.255   7.503  0.9299 -0.5632  2.1588
   33MOL    H8814872   5.480   7.217   7.738 -0.4517 -3.1008 -1.0370
   33MOL    H8914873   5.313   7.249   7.692  0.3742 -2.8051 -1.8044
   33MOL    H9014874   5.384   7.611   7.535  1.6089 -3.4628  2.9883
   33MOL    H9114875   5.348   7.860   7.505  0.9058  0.2933  0.6941
   33MOL    H9214876   5.509   7.934   7.893  1.0827 -1.5664  1.6217
   33MOL    H9314877   5.528   7.686   7.930 -1.0534  0.3766  0.0782
   33MOL    O9414878   5.416   8.222   7.495 -0.3811 -0.8441 -0.3264
   33MOL    C9514879   5.542   0.014   7.495 -0.0798  0.3297 -0.5087
   33MOL    C9614880   5.511   0.161   7.454  0.4025 -0.0294  0.0838
   33MOL    O9714881   5.455   0.241   7.562  0.2173  0.7923 -0.0179
   33MOL    C9814882   5.332   0.296   7.551  0.2046  0.1189  0.2945
   33MOL    O9914883   5.260   0.283   7.454  0.1652 -0.6066  0.1389
   33MOL   C10014884   5.289   0.366   7.673 -0.6501 -0.0192  0.2804
   33MOL   C10114885   5.162   0.424   7.688  0.3807 -0.1690  0.1693
   33MOL   C10214886   5.124   0.496   7.801 -0.0595 -1.3398  0.5098
   33MOL   C10314887   5.213   0.515   7.914  0.2298  0.0219 -0.0050
   33MOL   C10414888   5.169   0.584   8.040 -0.3826  1.2900 -0.1542
   33MOL   O10514889   5.240   0.638   8.126  0.1542  0.1820 -0.2885
   33MOL   O10614890   5.041   0.598   8.045 -0.1186 -0.4413  0.2308
   33MOL   C10714891   5.344   0.464   7.901  0.8391  0.9323 -0.1651
   33MOL   C10814892   5.378   0.390   7.784 -0.1348  0.0725 -0.6105
   33MOL   H10914893   5.591   0.016   7.593 -2.0297  1.3972  0.4669
   33MOL   H11014894   5.608   8.223   7.439  0.1788 -0.5511  0.8069
   33MOL   H11114895   5.450   0.169   7.363 -1.3815 -3.3548  0.9052
   33MOL   H11214896   5.603   0.207   7.419 -0.1485  0.7689 -0.3422
   33MOL   H11314897   5.088   0.427   7.610  0.3443  1.8271  0.2434
   33MOL   H11414898   5.040   0.563   7.808  1.8232  1.2314 -0.8711
   33MOL   H11514899   5.417   0.486   7.978  2.5665  2.1517 -2.0916
   33MOL   H11614900   5.480   0.355   7.775 -0.0208  0.2242  0.0247
   33MOL   O11714901   4.990   0.687   8.159  0.9171 -0.1654  0.8294
   33MOL   C11814902   4.963   0.807   8.099  0.4142 -0.0440  0.1881
   33MOL   C11914903   4.973   0.917   8.211  0.0080 -0.3581 -0.4958
   33MOL   O12014904   5.109   0.951   8.244 -0.3460  0.3370  0.4537
   33MOL   C12114905   5.136   1.010   0.083 -0.2300 -0.2033 -0.2973
   33MOL   O12214906   5.055   1.078   0.148 -0.1552 -0.6385  0.0080
   33MOL   C12314907   5.282   0.997   0.120  0.7929 -0.8731 -0.2043
   33MOL   C12414908   5.340   1.073   0.221 -0.1415 -0.4927 -1.1003
   33MOL   C12514909   5.473   1.050   0.261  0.0873 -0.1422 -0.0337
   33MOL   C12614910   5.549   0.949   0.197 -0.3147 -0.2425  0.0315
   33MOL   C12714911   5.688   0.926   0.242 -0.4176 -0.2748  0.0388
   33MOL   O12814912   5.732   0.979   0.341  0.0608  0.0779 -0.2117
   33MOL   O12914913   5.758   0.840   0.167 -0.0374 -0.1845 -0.0500
   33MOL   C13014914   5.494   0.877   0.089  0.3935  0.8812 -0.0876
   33MOL   C13114915   5.360   0.902   0.051 -0.7100  0.7835  0.4058
   33MOL   H13214916   5.042   0.824   8.026 -0.4599  2.0855 -0.3036
   33MOL   H13314917   4.870   0.800   8.042  0.6963  0.6766 -0.3841
   33MOL   H13414918   4.928   0.880   0.028 -1.1354  1.4837 -0.3029
   33MOL   H13514919   4.926   1.011   8.183  1.5173 -0.0592 -2.0624
   33MOL   H13614920   5.281   1.136   0.285  1.2233 -0.9617  0.6541
   33MOL   H13714921   5.512   1.093   0.352  1.3671 -0.6622 -0.3231
   33MOL   H13814922   5.558   0.805   0.041  2.1074  0.5295  2.6678
   33MOL   H13914923   5.316   0.843   8.247  1.3799 -1.2190  0.6816
   33MOL   O14014924   5.904   0.824   0.215  0.4445  0.6898 -0.3020
   33MOL   C14114925   5.989   0.920   0.155  0.7562  0.2093  0.2022
   33MOL   C14214926   6.125   0.876   0.211  0.6684  0.1571 -0.6043
   33MOL   O14314927   6.125   0.890   0.354 -0.2961  0.0945 -0.4234
   33MOL   C14414928   6.116   1.013   0.400 -0.4354 -0.1342  0.2681
   33MOL   O14514929   6.147   1.109   0.329  0.2635 -0.6607  0.0394
   33MOL   C14614930   6.087   1.013   0.543  0.4831 -0.5043 -0.8832
   33MOL   C14714931   6.017   0.911   0.608  0.6242 -0.3295  0.0601
   33MOL   C14814932   5.991   0.913   0.746  0.3600  0.0764  0.8501
   33MOL   C14914933   6.045   1.013   0.828 -0.5626 -0.1774 -0.2758
   33MOL   C15014934   6.009   1.020   0.977  0.1637  0.1231 -0.1515
   33MOL   O15114935   5.953   0.934   1.043  0.2469  0.2645  0.1906
   33MOL   O15214936   6.054   1.129   1.032 -0.1679 -0.0685  0.0295
   33MOL   C15314937   6.110   1.124   0.764  0.4677  0.6064 -0.3566
   33MOL   C15414938   6.130   1.120   0.624 -0.1848  0.6574  0.3991
   33MOL   H15514939   5.996   0.913   0.046  0.5191  0.6757  0.1583
   33MOL   H15614940   5.960   1.021   0.182  0.6575  0.7295 -1.7522
   33MOL   H15714941   6.197   0.949   0.173  2.4447 -1.4271 -0.3705
   33MOL   H15814942   6.161   0.779   0.176 -0.7744 -0.4639 -0.3921
   33MOL   H15914943   5.979   0.836   0.541  0.0006  0.9618 -1.0621
   33MOL   H16014944   5.936   0.834   0.796  1.1608 -0.8393  0.3109
   33MOL   H16114945   6.155   1.211   0.809  0.2492  0.6734 -0.2675
   33MOL   H16214946   6.183   1.200   0.575  2.6909 -1.0561  0.6261
   33MOL   O16314947   6.015   1.154   1.174  0.2792 -0.1134 -0.3369
   33MOL   C16414948   5.905   1.242   1.167 -0.7424 -0.1705  0.1271
   33MOL   C16514949   5.776   1.165   1.126 -0.1819 -0.6516 -0.6227
   33MOL   O16614950   5.740   1.179   0.988  0.2798  0.1164 -0.0496
   33MOL   C16714951   5.652   1.270   0.954  0.6156 -0.2061 -0.0557
   33MOL   O16814952   5.575   1.331   1.035 -0.3335  0.8794 -0.7434
   33MOL   C16914953   5.659   1.303   0.807 -0.0917 -0.0252 -0.3953
   33MOL   C17014954   5.757   1.241   0.730  0.1432  0.5442  0.3686
   33MOL   C17114955   5.771   1.274   0.592  0.9043  0.4046  0.2398
   33MOL   C17214956   5.683   1.366   0.530  0.1842 -0.4854  0.2440
   33MOL   C17314957   5.702   1.402   0.390 -0.1504  0.1994 -0.8281
   33MOL   O17414958   5.805   1.380   0.322  0.0316  0.4188 -0.6912
   33MOL   O17514959   5.598   1.465   0.336 -0.5092  0.3293 -0.3408
   33MOL   C17614960   5.579   1.421   0.603  0.7598  0.0072  0.0490
   33MOL   C17714961   5.567   1.388   0.741  0.6572 -0.1822  0.1799
   33MOL   H17814962   5.884   1.296   1.259  1.4324 -0.3838  0.7614
   33MOL   H17914963   5.941   1.323   1.103  2.3469 -0.4111  1.4838
   33MOL   H18014964   5.692   1.182   1.193  1.8694 -0.8037  2.1274
   33MOL   H18114965   5.793   1.059   1.146 -0.1717 -0.1715  2.1967
   33MOL   H18214966   5.833   1.180   0.777 -1.9201 -1.0007  1.7717
   33MOL   H18314967   5.854   1.227   0.542  0.6271 -0.6744  0.7912
   33MOL   H18414968   5.512   1.494   0.560  2.8772  2.3039  0.5441
   33MOL   H18514969   5.487   1.430   0.800 -0.3042 -1.7837  0.0517
   33MOL   O18614970   5.607   1.485   0.192  0.6719 -0.1742  0.2418
   33MOL   C18714971   5.509   1.400   0.129 -0.5757 -0.3822 -0.2115
   33MOL   C18814972   5.363   1.434   0.148  0.1967  0.1984 -0.3135
   33MOL   O18914973   5.323   1.391   0.281  0.0696 -0.7303  0.4769
   33MOL   C19014974   5.199   1.423   0.312  0.1551  0.1201 -0.1893
   33MOL   O19114975   5.116   1.473   0.232 -0.3134 -0.2730 -0.0150
   33MOL   C19214976   5.157   1.395   0.458 -0.2267 -0.2384 -0.5742
   33MOL   C19314977   5.036   1.450   0.499  0.3206  0.2872 -0.4549
   33MOL   C19414978   4.994   1.437   0.636 -0.1901  1.0298 -0.4269
   33MOL   C19514979   5.079   1.369   0.729  0.3343  0.9351 -0.6922
   33MOL   C19614980   5.052   1.369   0.864 -0.5936 -0.6699 -0.3350
   33MOL   O19714981   4.938   1.363   0.906 -0.0506  0.3446 -0.0484
   33MOL   O19814982   5.161   1.384   0.943  0.0479 -0.4116 -0.4032
   33MOL   C19914983   5.200   1.310   0.680  0.2444  0.1044  0.4030
   33MOL   C20014984   5.236   1.325   0.545  0.0265  0.2746 -0.0523
   33MOL   H20114985   5.531   1.404   0.023 -1.8603 -3.6504 -0.6725
   33MOL   H20214986   5.524   1.297   0.162 -2.8521 -0.8231 -0.4888
   33MOL   H20314987   5.302   1.377   0.078 -1.4381  0.7953  0.5941
   33MOL   H20414988   5.361   1.539   0.119 -2.1600 -0.3248 -2.1444
   33MOL   H20514989   4.981   1.522   0.441  0.4567  1.0853  0.4128
   33MOL   H20614990   4.909   1.494   0.670 -1.7050 -0.7761 -1.0784
   33MOL   H20714991   5.262   1.257   0.750  2.3955  1.9308 -0.0678
   33MOL   H20814992   5.324   1.277   0.506 -0.3535 -0.6935  0.2634
   33MOL   O20914993   5.128   1.366   1.088 -0.0382 -0.4342  0.0315
   33MOL   C21014994   5.099   1.491   1.150  0.0160  0.7822 -0.0080
   33MOL   C21114995   5.228   1.563   1.168  0.2018 -0.3252 -0.0601
   33MOL   O21214996   5.210   1.660   1.273  0.3568  0.0391 -0.0986
   33MOL   C21314997   5.146   1.772   1.248 -0.3369  0.0763 -0.6256
   33MOL   O21414998   5.102   1.803   1.136 -0.2113  0.0288 -0.3061
   33MOL   C21514999   5.126   1.857   1.366 -0.4182  0.5103  0.5646
   33MOL   C21615000   5.016   1.951   1.356  0.1754 -0.2297 -1.0270
   33MOL   C21715001   4.977   2.030   1.465  0.8830 -0.2057  0.3386
   33MOL   C21815002   5.051   2.022   1.588  0.1222  0.4198 -0.5539
   33MOL   C21915003   5.009   2.108   1.700  0.2000  0.5678  0.3269
   33MOL   O22015004   4.918   2.192   1.694  0.5538  0.3067 -0.1376
   33MOL   O22115005   5.088   2.087   1.811  0.0771  0.3823 -0.6853
   33MOL   C22215006   5.162   1.928   1.596 -0.2513 -0.4967 -0.4056
   33MOL   C22315007   5.197   1.841   1.488 -0.0343  0.6346 -0.6980
   33MOL   H22415008   5.021   1.536   1.089  0.3306 -0.0493 -1.0512
   33MOL   H22515009   5.054   1.468   1.246 -1.9281 -0.5046 -1.1765
   33MOL   H22615010   5.268   1.609   1.078  0.8267 -2.0774 -0.6898
   33MOL   H22715011   5.304   1.494   1.205 -0.6611  0.4199  3.2806
   33MOL   H22815012   4.953   1.966   1.269 -0.3317 -0.3258 -0.6757
   33MOL   H22915013   4.893   2.097   1.452  1.8241  0.9181 -0.0638
   33MOL   H23015014   5.223   1.919   1.685  0.6285  0.7647 -0.8694
   33MOL   H23115015   5.276   1.771   1.508 -1.0634 -0.7555 -1.4166
   33MOL   O23215016   5.032   2.141   1.940  0.2767 -0.2000  0.3150
   33MOL   C23315017   4.966   2.031   1.997 -0.0048  0.2784  0.4621
   33MOL   C23415018   4.886   2.052   2.120 -0.9747 -0.1131  0.0291
   33MOL   O23515019   4.914   1.946   2.209 -0.0727 -0.1345  0.1863
   33MOL   C23615020   4.856   1.958   2.329 -0.0499  0.3459 -0.2579
   33MOL   O23715021   4.767   2.037   2.358  0.2736  0.0294 -0.1543
   33MOL   C23815022   4.905   1.852   2.416 -0.0231  0.1328  0.8424
   33MOL   C23915023   4.855   1.849   2.547 -0.7370  0.3277 -1.0156
   33MOL   C24015024   4.898   1.759   2.647  0.2450  0.7718  0.2913
   33MOL   C24115025   4.996   1.661   2.608 -0.5928 -0.1836  0.2055
   33MOL   C24215026   5.068   1.573   2.698  0.0022 -0.1318  0.4161
   33MOL   O24315027   5.182   1.536   2.676 -0.5711 -0.4175  0.1615
   33MOL   O24415028   4.993   1.546   2.803 -0.3980 -0.3026 -0.1584
   33MOL   C24515029   5.042   1.662   2.471  0.3336 -0.6356  0.2915
   33MOL   C24615030   4.997   1.755   2.378 -0.0458 -0.8850  0.5526
   33MOL   H24715031   4.904   1.982   1.922  0.5390 -1.3776  1.0629
   33MOL   H24815032   5.053   1.973   2.028  1.4467 -0.0251 -3.9455
   33MOL   H24915033   4.781   2.064   2.095 -1.7270 -2.8654  1.6773
   33MOL   H25015034   4.915   2.140   2.178 -1.4205  0.0182  0.0516
   33MOL   H25115035   4.786   1.927   2.577 -2.2963 -0.6571 -1.9950
   33MOL   H25215036   4.880   1.775   2.752 -0.0605 -1.5252  0.6023
   33MOL   H25315037   5.116   1.591   2.438  1.0722  0.3540 -0.1990
   33MOL   H25415038   5.037   1.746   2.278 -0.7372 -0.4235  0.2298
   33MOL   O25515039   5.072   1.490   2.920 -0.4468 -0.2411  0.0597
   33MOL   C25615040   5.111   1.592   3.007  0.3307  0.2667  0.0592
   33MOL   C25715041   5.186   1.523   3.117  0.5902 -0.4114  0.6750
   33MOL   O25815042   5.316   1.479   3.082 -0.0662  0.0517 -0.5297
   33MOL   C25915043   5.387   1.422   3.181 -0.2927  0.1685  0.0927
   33MOL   O26015044   5.338   1.411   3.298  0.0530  0.3249  0.2100
   33MOL   C26115045   5.519   1.391   3.139 -0.6297  0.4322  0.2708
   33MOL   C26215046   5.553   1.394   3.000  0.2811  0.5152 -0.1662
   33MOL   C26315047   5.686   1.363   2.962  0.2337  0.4743  0.0085
   33MOL   C26415048   5.779   1.320   3.060  0.0895  0.2967  0.6878
   33MOL   C26515049   5.915   1.266   3.007  0.7907 -0.4278  0.0049
   33MOL   O26615050   5.953   1.276   2.889 -0.5405  0.1703  0.2431
   33MOL   O26715051   5.986   1.209   3.103 -0.5149 -0.8724  0.3060
   33MOL   C26815052   5.747   1.320   3.200 -0.1229  0.3770 -0.2942
   33MOL   C26915053   5.615   1.359   3.239  0.6174 -0.2856 -0.1871
   33MOL   H27015054   5.176   1.664   2.957  0.2506  1.9512  2.3307
   33MOL   H27115055   5.028   1.646   3.052 -1.3299 -1.8666 -0.3804
   33MOL   H27215056   5.121   1.442   3.150 -1.5613  1.2400  0.5749
   33MOL   H27315057   5.199   1.604   3.189 -4.0756  0.1376  1.0343
   33MOL   H27415058   5.484   1.412   2.918  1.8086  3.3424 -0.8928
   33MOL   H27515059   5.708   1.356   2.857  0.6433  1.0861  0.0549
   33MOL   H27615060   5.813   1.295   3.281 -1.1929 -1.3823  0.0610
   33MOL   H27715061   5.582   1.360   3.341 -2.1963  1.8524 -1.0315
   33MOL   O27815062   6.126   1.166   3.052  0.4751  0.8748  0.2407
   33MOL   C27915063   6.125   1.025   3.031  0.1677 -0.5186 -0.0022
   33MOL   C28015064   6.084   0.938   3.157 -0.3428 -0.0821  0.5842
   33MOL   O28115065   5.944   0.939   3.187  0.4161  0.7262  0.1029
   33MOL   C28215066   5.903   0.978   3.303 -0.2709 -0.6236 -0.2222
   33MOL   O28315067   5.978   1.001   3.395  0.0139  0.0999  0.0662
   33MOL   C28415068   5.756   0.992   3.308  0.2469 -0.3737 -0.6203
   33MOL   C28515069   5.678   0.996   3.190  0.2283 -0.1882  0.5307
   33MOL   C28615070   5.539   0.998   3.198  0.3559  0.1262  0.3401
   33MOL   C28715071   5.476   1.010   3.328 -0.2728  0.1139 -0.3988
   33MOL   C28815072   5.331   1.010   3.349 -0.7079 -0.5841  0.3426
   33MOL   O28915073   5.260   0.982   3.256  0.1361  0.3850  0.0367
   33MOL   O29015074   5.290   1.064   3.458  0.4592  0.1420 -0.6234
   33MOL   C29115075   5.559   1.015   3.442  0.9786  0.8429  0.0880
   33MOL   C29215076   5.699   1.006   3.435  0.1782  0.1618 -0.7889
   33MOL   H29315077   6.067   0.993   2.945 -0.9805 -2.1258  1.3295
   33MOL   H29415078   6.229   1.009   3.002  0.2761  1.8618 -1.0203
   33MOL   H29515079   6.150   0.963   3.241 -0.8479 -1.5120  1.4376
   33MOL   H29615080   6.111   0.835   3.132  0.5978  0.0851  0.8756
   33MOL   H29715081   5.725   0.971   3.095 -0.9625 -0.8284  0.1041
   33MOL   H29815082   5.475   0.986   3.112 -0.5788 -0.7969  1.1402
   33MOL   H29915083   5.509   1.015   3.538  1.1383 -0.1300  0.1792
   33MOL   H30015084   5.761   0.993   3.523 -1.4210 -0.8062  0.2120
   33MOL   O30115085   5.138   1.060   3.482 -0.0325 -0.3978 -0.3217
   33MOL   C30215086   5.106   0.951   3.571 -0.7942  0.3080 -0.1144
   33MOL   C30315087   4.954   0.949   3.605 -0.6589 -0.2806 -0.1363
   33MOL   O30415088   4.926   0.818   3.641  0.4758 -0.0587 -0.5320
   33MOL   C30515089   4.834   0.787   3.741  0.9782  0.2253  0.3706
   33MOL   O30615090   4.766   0.871   3.802 -0.2831 -0.0883  0.3542
   33MOL   C30715091   4.825   0.642   3.763 -0.5306  0.2964 -0.2191
   33MOL   C30815092   4.730   0.592   3.854  0.9101  0.3731 -0.0316
   33MOL   C30915093   4.719   0.459   3.882 -0.6675  0.8119 -0.1667
   33MOL   C31015094   4.818   0.368   3.838 -0.0122 -0.0820 -0.0708
   33MOL   C31115095   4.824   0.225   3.873 -0.2659 -0.2337  0.6269
   33MOL   O31215096   4.746   0.165   3.947 -0.0209  0.1054  0.0689
   33MOL   O31315097   4.918   0.158   3.804 -0.0391 -0.5271  0.5449
   33MOL   C31415098   4.918   0.422   3.751 -0.0104 -0.3892 -1.0663
   33MOL   C31515099   4.918   0.558   3.713 -0.8400 -0.6371 -0.8710
   33MOL   H31615100   5.141   0.857   3.528  1.3933  1.3707 -0.7381
   33MOL   H31715101   5.162   0.972   3.663  1.5659 -2.8481 -0.7046
   33MOL   H31815102   4.897   0.973   3.515  0.2450  0.5493 -0.4911
   33MOL   H31915103   4.924   1.022   3.680  1.5465 -0.9105  1.4207
   33MOL   H32015104   4.655   0.658   3.896  1.0727  0.1128  0.6669
   33MOL   H32115105   4.635   0.417   3.934 -0.9873  2.6236  0.7981
   33MOL   H32215106   5.004   0.364   3.720  0.2105 -1.1481  0.8934
   33MOL   H32315107   5.000   0.588   3.649  0.7613  0.9046  1.8178
   33MOL   O32415108   4.929   0.007   3.834  0.0460 -0.2786 -0.0999
   33MOL   C32515109   4.849   8.209   3.743 -0.6848 -0.4224 -0.1359
   33MOL   C32615110   4.860   8.058   3.746 -0.0892 -0.0958  0.6269
   33MOL   O32715111   4.979   8.021   3.679  0.4689  0.4916  0.7407
   33MOL   C32815112   5.050   7.920   3.722 -0.2210  0.0427  0.0074
   33MOL   O32915113   5.017   7.834   3.813 -0.0860  0.4073  0.4670
   33MOL   C33015114   5.187   7.923   3.673 -0.2118 -0.2791  0.8064
   33MOL   C33115115   5.252   8.046   3.625 -0.0632 -0.4625 -0.3842
   33MOL   C33215116   5.391   8.041   3.581  0.3978  0.1130  0.5278
   33MOL   C33315117   5.465   7.924   3.592 -0.5933  0.3422  0.5217
   33MOL   C33415118   5.607   7.920   3.549 -0.2398  0.0524  0.1749
   33MOL   O33515119   5.676   7.817   3.556  0.4049  0.5256 -0.2321
   33MOL   O33615120   5.657   8.037   3.507 -0.0316 -0.2973  1.0960
   33MOL   C33715121   5.400   7.804   3.626 -0.1344 -0.4095 -0.3998
   33MOL   C33815122   5.270   7.805   3.668 -0.9531 -0.4046  0.2831
   33MOL   H33915123   4.748   8.222   3.782 -0.6017 -0.1812 -0.0001
   33MOL   H34015124   4.854   8.242   3.639  0.3815 -2.2047 -0.6570
   33MOL   H34115125   4.784   7.991   3.706  1.2328 -1.5775  0.5363
   33MOL   H34215126   4.866   8.027   3.850 -1.2042  0.9634  1.0175
   33MOL   H34315127   5.201   8.141   3.625 -1.4780 -1.1948 -0.9651
   33MOL   H34415128   5.432   8.133   3.542 -4.2332  1.5793 -1.2561
   33MOL   H34515129   5.452   7.710   3.622  0.6951 -0.0048  0.4714
   33MOL   H34615130   5.228   7.717   3.714 -0.1021 -0.1509  1.6018
   33MOL   O34715131   5.811   8.040   3.504  0.5077  0.3266  0.4111
   33MOL   C34815132   5.853   8.061   3.373 -0.2144 -0.3726 -0.1357
   33MOL   C34915133   5.895   8.208   3.354  0.0472  0.1326  0.1602
   33MOL   O35015134   5.779   0.016   3.372  0.4021 -0.4459  0.4396
   33MOL   C35115135   5.684   0.017   3.279 -0.3584 -0.6296 -0.0170
   33MOL   O35215136   5.706   8.247   3.163 -0.4402 -0.1461  0.0262
   33MOL   C35315137   5.547   0.053   3.324  0.1445  0.0504 -0.4499
   33MOL   C35415138   5.531   0.080   3.460 -0.7078 -0.4830  0.2731
   33MOL   C35515139   5.412   0.134   3.514  0.4877  0.1077  0.2182
   33MOL   C35615140   5.304   0.143   3.419 -0.0340 -0.0078  0.0059
   33MOL   C35715141   5.168   0.174   3.477  0.0065 -0.4933 -0.2255
   33MOL   O35815142   5.146   0.192   3.593 -0.4632  0.0130 -0.7751
   33MOL   O35915143   5.070   0.169   3.392  0.3991 -0.7145  0.2739
   33MOL   C36015144   5.315   0.118   3.280 -0.4501 -0.0573  0.3142
   33MOL   C36115145   5.442   0.084   3.230 -0.2362 -0.2176  0.0108
   33MOL   H36215146   5.938   7.996   3.354 -0.2431 -1.6758  3.7464
   33MOL   H36315147   5.785   8.031   3.293 -0.3908  0.8277 -0.4457
   33MOL   H36415148   5.945   8.227   3.259 -2.1600  0.2297 -1.0146
   33MOL   H36515149   5.973   8.239   3.425  0.7413  0.2459 -0.6416
   33MOL   H36615150   5.608   0.053   3.532  0.6933  0.5094 -0.8076
   33MOL   H36715151   5.404   0.153   3.620 -0.1478  0.2326  0.1521
   33MOL   H36815152   5.240   0.123   3.202  0.8519  1.4710 -0.8787
   33MOL   H36915153   5.463   0.082   3.124 -1.0327  0.1507 -0.1611
   33MOL   O37015154   4.938   0.195   3.457 -0.0465  0.0101  0.0412
   33MOL   C37115155   4.893   0.315   3.394 -0.6962 -0.2963  0.1120
   33MOL   C37215156   4.736   0.330   3.415  0.1084  0.6086 -0.0803
   33MOL   O37315157   4.666   0.216   3.381  0.3563 -0.0016  0.3859
   33MOL   C37415158   4.638   0.123   3.474 -0.7564 -0.0650 -0.4709
   33MOL   O37515159   4.678   0.134   3.595  0.1610 -0.0435 -0.1700
   33MOL   C37615160   4.547   0.010   3.430 -0.1489  0.5260  0.9531
   33MOL   C37715161   4.523   8.169   3.511 -0.0578 -0.7987  0.3998
   33MOL   C37815162   4.435   8.066   3.472 -0.0944  0.6480  0.0713
   33MOL   C37915163   4.360   8.083   3.353  0.3724  0.4014 -0.8331
   33MOL   C38015164   4.260   7.987   3.307  0.4462  0.3883 -0.0765
   33MOL   O38115165   4.178   8.016   3.221  0.8948 -0.1385  0.0970
   33MOL   O38215166   4.271   7.866   3.359 -0.0076  0.1754 -0.4460
   33MOL   C38315167   4.374   8.208   3.285  0.0158  0.6732  0.2842
   33MOL   C38415168   4.472   0.026   3.315  0.2111  0.1443 -0.5961
   33MOL   H38515169   4.941   0.397   3.447 -0.7920 -0.1791  0.0183
   33MOL   H38615170   4.916   0.320   3.287  1.5319 -1.7724  0.4994
   33MOL   H38715171   4.706   0.414   3.352  0.9056  1.5712  0.7934
   33MOL   H38815172   4.717   0.371   3.514  1.3277  1.4084 -0.1621
   33MOL   H38915173   4.573   8.151   3.605 -3.1916  0.0391  2.3210
   33MOL   H39015174   4.431   7.974   3.530  0.4540  1.3783  1.2758
   33MOL   H39115175   4.311   8.215   3.197  0.0157  0.9929  0.3094
   33MOL   H39215176   4.491   0.105   3.244  2.5840 -1.0872 -1.3769
   33MOL   O39315177   4.172   7.765   3.303 -0.4224  0.2709 -0.5122
   33MOL   C39415178   4.054   7.754   3.391 -0.2068  0.5437  0.3598
   33MOL   C39515179   3.995   7.617   3.378 -0.1446  0.0914 -0.3093
   33MOL   O39615180   4.086   7.525   3.437 -0.4286 -0.2209  0.2059
   33MOL   C39715181   4.049   7.405   3.480 -0.0837  0.2021 -0.3133
   33MOL   O39815182   3.938   7.360   3.473  0.0270 -0.7316  0.3651
   33MOL   C39915183   4.165   7.341   3.554 -0.0143  0.5973 -0.0190
   33MOL   C40015184   4.270   7.420   3.608 -0.3860  0.1294  0.3564
   33MOL   C40115185   4.365   7.357   3.692 -0.2221 -0.1392 -0.4367
   33MOL   C40215186   4.353   7.221   3.739  0.3157  0.0197 -0.2395
   33MOL   C40315187   4.453   7.166   3.829  0.3262  0.3615 -0.4236
   33MOL   O40415188   4.450   7.052   3.872 -0.7256  0.0619  0.1097
   33MOL   O40515189   4.562   7.252   3.862  0.0651  0.3703  0.5025
   33MOL   C40615190   4.243   7.149   3.686  0.0178  0.7448 -0.2538
   33MOL   C40715191   4.156   7.206   3.596  0.7279  0.4224 -0.1797
   33MOL   H40815192   4.094   7.760   3.492 -0.6961 -0.9196  0.6400
   33MOL   H40915193   3.986   7.831   3.355 -0.0715  0.4570 -0.0864
   33MOL   H41015194   3.988   7.581   3.275 -0.3640  0.5120 -0.4429
   33MOL   H41115195   3.894   7.606   3.419  0.2383 -0.6704  0.4402
   33MOL   H41215196   4.281   7.526   3.590 -0.1769  0.3564  1.7282
   33MOL   H41315197   4.440   7.425   3.729  0.3114 -1.0345  0.1589
   33MOL   H41415198   4.222   7.045   3.708  0.8279  0.4078 -1.0616
   33MOL   H41515199   4.076   7.139   3.567  2.3194 -2.2925  1.4958
   33MOL   O41615200   4.668   7.191   3.948  0.1472 -0.2273 -0.0468
   33MOL   C41715201   4.642   7.233   4.084  0.4545 -0.0554  0.4219
   33MOL   C41815202   4.771   7.296   4.144 -0.1658 -0.4611 -0.3554
   33MOL   O41915203   4.871   7.201   4.179 -0.4801  0.9502  0.1445
   33MOL   C42015204   4.858   7.122   4.283  0.3576 -0.1059  0.2244
   33MOL   O42115205   4.762   7.132   4.362 -0.4346 -0.3142 -0.5626
   33MOL   C42215206   4.971   7.017   4.288  0.5502 -0.1608 -0.3056
   33MOL   C42315207   4.967   6.915   4.380 -0.0838 -0.4461  0.0386
   33MOL   C42415208   5.067   6.813   4.390  0.9242  0.8710  0.4044
   33MOL   C42515209   5.175   6.820   4.297 -0.4845 -0.1214  0.2724
   33MOL   C42615210   5.289   6.722   4.306 -0.6238 -0.2560  0.0325
   33MOL   O42715211   5.303   6.639   4.399  0.4299  0.3352 -0.4392
   33MOL   O42815212   5.365   6.722   4.198  0.0335  0.8520  0.5947
   33MOL   C42915213   5.172   6.922   4.195 -0.0939  0.5716 -0.2547
   33MOL   C43015214   5.069   7.018   4.191  0.3595 -0.4739  0.3742
   33MOL   H43115215   4.563   7.307   4.090 -1.7123 -2.0906 -1.6493
   33MOL   H43215216   4.596   7.152   4.141 -2.5143  0.0779 -1.6656
   33MOL   H43315217   4.750   7.342   4.241  0.0076  0.5458 -0.7963
   33MOL   H43415218   4.815   7.364   4.071 -2.2009  1.3968  0.0848
   33MOL   H43515219   4.884   6.918   4.450 -0.5524 -1.9637 -0.4291
   33MOL   H43615220   5.075   6.735   4.464  2.5966 -0.6537 -1.3521
   33MOL   H43715221   5.251   6.923   4.121 -0.3594 -0.1092 -0.5527
   33MOL   H43815222   5.063   7.087   4.108  0.5828  0.0232  0.7681
   33MOL   O43915223   5.462   6.601   4.189 -0.3957  0.5229  0.4261
   33MOL   C44015224   5.412   6.499   4.106  0.2492  0.2909  0.5461
   33MOL   C44115225   5.474   6.498   3.966 -0.0799 -0.4132 -0.1987
   33MOL   O44215226   5.552   6.377   3.950 -0.3780 -0.2733 -0.7171
   33MOL   C44315227   5.680   6.366   3.985  0.5994 -0.1106 -0.8341
   33MOL   O44415228   5.744   6.446   4.055  0.2628  0.4253 -0.1588
   33MOL   C44515229   5.745   6.242   3.939  0.3741  0.0152 -0.3256
   33MOL   C44615230   5.863   6.193   3.998 -0.7454 -0.2801  0.4426
   33MOL   C44715231   5.905   6.065   3.963  0.0317  0.4970 -0.3494
   33MOL   C44815232   5.837   5.981   3.871  0.2636 -0.4586  0.5273
   33MOL   C44915233   5.882   5.839   3.839 -0.3219  0.7071 -0.1861
   33MOL   O45015234   5.813   5.762   3.769 -0.7504 -0.0816 -0.1282
   33MOL   O45115235   6.008   5.812   3.880 -0.2529  0.2133  0.4306
   33MOL   C45215236   5.720   6.036   3.813  0.4201  0.0559 -0.1988
   33MOL   C45315237   5.674   6.168   3.845  0.9401  0.1850  0.4967
   33MOL   H45415238   5.438   6.407   4.157  0.5907 -0.0840 -0.3100
   33MOL   H45515239   5.303   6.498   4.096  0.2934  0.5223  0.0305
   33MOL   H45615240   5.531   6.590   3.961  0.3322 -0.5638  1.4567
   33MOL   H45715241   5.399   6.500   3.888  1.3914  1.7806 -1.5917
   33MOL   H45815242   5.914   6.249   4.075 -1.3328 -1.0904  1.4288
   33MOL   H45915243   5.997   6.027   4.004  0.1991  1.6156  0.3338
   33MOL   H46015244   5.652   5.984   3.747  1.5750 -2.0515  0.2116
   33MOL   H46115245   5.580   6.194   3.798  1.4470  1.4873  0.1951
   33MOL   H46215246   6.051   5.755   3.819  0.4225  0.7874  0.3527
   34MOL     O115247   6.041   5.037   2.052  0.4696  0.3896 -0.8891
   34MOL     C215248   6.058   5.056   1.920  0.3555  0.1620  0.6670
   34MOL     C315249   6.122   5.200   1.900  0.2704  0.0411  0.4751
   34MOL     O415250   6.114   5.228   1.764 -0.6665 -0.0808 -0.0018
   34MOL     C515251   6.216   5.212   1.682 -0.2432  0.9191 -0.0469
   34MOL     O615252   6.335   5.186   1.711 -0.5148 -0.4549  0.2761
   34MOL     C715253   6.179   5.248   1.541  0.1263  0.3218 -0.1208
   34MOL     C815254   6.043   5.247   1.496  0.2272 -0.1738  0.5697
   34MOL     C915255   6.006   5.290   1.363  0.0785 -0.2289 -0.0041
   34MOL    C1015256   6.108   5.335   1.273 -0.5800  0.9729  0.1508
   34MOL    C1115257   6.088   5.394   1.135  0.2188 -0.7663  0.0107
   34MOL    O1215258   6.182   5.408   1.058 -0.6449 -0.7660 -0.2819
   34MOL    O1315259   5.956   5.424   1.102 -0.1268  0.0618 -0.0365
   34MOL    C1415260   6.236   5.316   1.319 -0.2636 -0.6799 -0.1694
   34MOL    C1515261   6.276   5.275   1.449  0.1842 -0.4952 -0.2312
   34MOL    H1615262   6.115   4.973   1.879  1.5006 -0.3200  3.0893
   34MOL    H1715263   5.957   5.042   1.883  0.8208 -1.2590 -0.0969
   34MOL    H1815264   6.221   5.197   1.945 -0.0138 -1.6792  1.0505
   34MOL    H1915265   6.071   5.282   1.949  1.4117 -0.2249  2.1646
   34MOL    H2015266   5.966   5.201   1.556 -0.8305 -2.2254 -2.2510
   34MOL    H2115267   5.903   5.287   1.330 -0.0009  1.8289  0.0131
   34MOL    H2215268   6.312   5.355   1.253  1.2460  1.3167  2.6003
   34MOL    H2315269   6.378   5.272   1.483  0.2073  2.4236  0.0711
   34MOL    H2415270   5.985   4.963   2.067  0.6717  0.3791 -0.1650
   34MOL    O2515271   5.928   5.529   0.997 -0.3045 -1.1191 -0.1336
   34MOL    C2615272   5.925   5.662   1.055 -0.5671 -0.0498  0.3747
   34MOL    C2715273   5.792   5.679   1.122 -0.2784  0.2443 -0.7330
   34MOL    O2815274   5.786   5.632   1.257  0.1468  0.0503 -0.3324
   34MOL    C2915275   5.671   5.642   1.327 -0.9972 -0.3581 -0.4720
   34MOL    O3015276   5.567   5.680   1.275  0.9300  0.5290  0.0519
   34MOL    C3115277   5.699   5.605   1.469  0.2069 -0.6552  0.1621
   34MOL    C3215278   5.825   5.546   1.501 -0.1454  0.1579  0.3255
   34MOL    C3315279   5.848   5.502   1.633  0.3577  0.5827 -0.5402
   34MOL    C3415280   5.758   5.516   1.743  0.5319 -0.2933  0.3727
   34MOL    C3515281   5.799   5.481   1.885 -0.0132  0.2957  0.3521
   34MOL    O3615282   5.897   5.417   1.924 -0.0478 -0.2261  0.4285
   34MOL    O3715283   5.701   5.523   1.968 -0.0550 -0.0805  0.1713
   34MOL    C3815284   5.638   5.584   1.709  0.2979  0.5102  0.4315
   34MOL    C3915285   5.607   5.626   1.573  0.5992  0.0747  0.4470
   34MOL    H4015286   6.012   5.693   1.113 -0.2312  0.1009 -0.2091
   34MOL    H4115287   5.935   5.720   0.964  2.3350 -2.0208 -0.6248
   34MOL    H4215288   5.736   5.604   1.067  0.7559  0.2667 -1.8263
   34MOL    H4315289   5.751   5.780   1.125 -0.0702  0.2898  1.5964
   34MOL    H4415290   5.909   5.539   1.433 -1.2980 -2.1439 -0.9428
   34MOL    H4515291   5.946   5.461   1.651  0.5605  2.0869  1.9811
   34MOL    H4615292   5.567   5.608   1.787 -1.2544  0.3076 -0.8999
   34MOL    H4715293   5.510   5.669   1.554  1.1916  1.2131 -0.0326
   34MOL    O4815294   5.723   5.505   2.117 -0.1607  0.1578  0.5425
   34MOL    C4915295   5.796   5.615   2.175 -0.2264 -0.3937 -0.9465
   34MOL    C5015296   5.765   5.621   2.323 -0.5252  0.3991 -0.0216
   34MOL    O5115297   5.626   5.615   2.348 -0.2824 -0.8343  0.2182
   34MOL    C5215298   5.565   5.523   2.431  0.6786 -0.1880 -0.4228
   34MOL    O5315299   5.616   5.432   2.497  0.5912  0.3480 -0.3847
   34MOL    C5415300   5.421   5.552   2.441  0.4206  0.4013 -0.3147
   34MOL    C5515301   5.344   5.611   2.334  0.1546  0.2672 -0.3212
   34MOL    C5615302   5.208   5.651   2.361  0.8677  0.2915 -0.1363
   34MOL    C5715303   5.140   5.625   2.485 -0.2551  0.0676 -0.1939
   34MOL    C5815304   5.006   5.669   2.517 -0.3412 -0.4051 -0.3451
   34MOL    O5915305   4.959   5.648   2.626 -0.5770 -0.2669  0.3580
   34MOL    O6015306   4.944   5.740   2.424 -0.0959 -0.0244 -0.0787
   34MOL    C6115307   5.215   5.544   2.579  0.3184  0.5649  0.5661
   34MOL    C6215308   5.356   5.523   2.561  1.2455 -0.2175 -0.1095
   34MOL    H6315309   5.902   5.598   2.156  0.0708  0.1060  0.1585
   34MOL    H6415310   5.767   5.714   2.139 -2.5940 -0.5082  0.5475
   34MOL    H6515311   5.806   5.717   2.357  1.4099 -0.4168  0.0209
   34MOL    H6615312   5.824   5.552   2.383  0.6506  1.4778  0.0844
   34MOL    H6715313   5.398   5.640   2.245  0.0337 -2.7458 -1.4192
   34MOL    H6815314   5.149   5.699   2.284 -1.0889 -2.2869 -0.2984
   34MOL    H6915315   5.173   5.525   2.676 -2.0287 -1.1814 -0.7471
   34MOL    H7015316   5.414   5.477   2.640 -1.3673  0.2220  2.1318
   34MOL    O7115317   4.804   5.778   2.456  0.0082 -0.5269 -0.0911
   34MOL    C7215318   4.714   5.661   2.422  0.0618  0.4527  0.4560
   34MOL    C7315319   4.576   5.668   2.480  0.3955 -0.2076  0.8572
   34MOL    O7415320   4.563   5.611   2.607 -0.0142 -0.2993 -0.0475
   34MOL    C7515321   4.437   5.593   2.663 -0.9165 -0.8124  0.5564
   34MOL    O7615322   4.330   5.620   2.602 -0.2737  0.1120  0.0306
   34MOL    C7715323   4.429   5.526   2.795 -0.1599 -0.0116 -0.0366
   34MOL    C7815324   4.302   5.484   2.847  0.8530 -0.4422 -0.2920
   34MOL    C7915325   4.298   5.408   2.968 -0.2928  0.3522  0.5206
   34MOL    C8015326   4.410   5.383   3.048 -0.6404  0.3656 -0.1715
   34MOL    C8115327   4.403   5.317   3.182  0.0422 -0.7635 -0.5297
   34MOL    O8215328   4.299   5.321   3.246  0.5802 -0.0801 -0.5281
   34MOL    O8315329   4.518   5.264   3.220  0.4395  0.0276 -0.3239
   34MOL    C8415330   4.535   5.419   2.989 -0.6562 -0.2079 -0.0388
   34MOL    C8515331   4.543   5.497   2.868 -0.0837 -0.0346  0.8874
   34MOL    H8615332   4.711   5.665   2.313  1.9141  0.2775  0.3801
   34MOL    H8715333   4.760   5.565   2.442 -0.1802  0.0614 -0.8288
   34MOL    H8815334   4.504   5.623   2.412 -0.7322  1.4339  0.9247
   34MOL    H8915335   4.555   5.775   2.474  2.7264  0.1130 -2.8381
   34MOL    H9015336   4.211   5.500   2.792  0.6522  0.0530  0.1760
   34MOL    H9115337   4.211   5.381   3.025  0.8402 -2.3009  1.0456
   34MOL    H9215338   4.629   5.402   3.041 -0.2697  0.0470 -0.6456
   34MOL    H9315339   4.640   5.513   2.825 -0.8986  2.6110 -0.0838
   34MOL    O9415340   4.523   5.230   3.372 -0.2952 -0.4042  0.2132
   34MOL    C9515341   4.585   5.340   3.437  0.5470  0.2922  0.0577
   34MOL    C9615342   4.589   5.305   3.587  0.5542 -1.5460 -0.2812
   34MOL    O9715343   4.697   5.208   3.607 -0.3777 -0.5322  0.0718
   34MOL    C9815344   4.706   5.134   3.718 -0.2803  0.1776  1.1132
   34MOL    O9915345   4.617   5.144   3.810 -0.0999  0.0646  1.3150
   34MOL   C10015346   4.827   5.054   3.713 -0.1864 -0.2735 -0.0202
   34MOL   C10115347   4.903   5.034   3.598  0.4070  0.3826  0.3046
   34MOL   C10215348   5.035   4.980   3.605 -0.8838 -0.0956 -0.3478
   34MOL   C10315349   5.085   4.938   3.729  0.4538 -0.0569  0.1806
   34MOL   C10415350   5.215   4.871   3.724 -0.3315 -0.4676  0.1305
   34MOL   O10515351   5.309   4.914   3.659  0.0947  0.2434 -0.5885
   34MOL   O10615352   5.222   4.758   3.792  0.7619 -0.4294 -0.4654
   34MOL   C10715353   5.003   4.943   3.845  0.2135  0.5760  0.1021
   34MOL   C10815354   4.878   5.008   3.841 -0.3830 -0.2848  0.0928
   34MOL   H10915355   4.686   5.352   3.397  1.3833 -4.0826  0.4991
   34MOL   H11015356   4.522   5.423   3.408 -0.6682 -0.1913  1.2406
   34MOL   H11115357   4.489   5.276   3.620 -0.3266  2.0145  0.3545
   34MOL   H11215358   4.610   5.399   3.638  0.5086 -1.7504  0.1167
   34MOL   H11315359   4.864   5.069   3.503  2.1244  1.8955  0.1058
   34MOL   H11415360   5.094   4.967   3.516 -0.1633 -0.0432  0.1267
   34MOL   H11515361   5.033   4.895   3.937  2.4134 -0.5574 -1.1544
   34MOL   H11615362   4.822   5.031   3.930  1.4124  1.8127  0.7543
   34MOL   O11715363   5.359   4.703   3.805  0.4354  0.1010  0.4384
   34MOL   C11815364   5.407   4.723   3.935  0.0843  0.0931 -0.3337
   34MOL   C11915365   5.559   4.733   3.946  0.7315 -0.9626 -0.2706
   34MOL   O12015366   5.632   4.621   3.961  0.3404  0.9195 -0.1076
   34MOL   C12115367   5.709   4.598   4.072 -0.0383  0.2124 -0.5781
   34MOL   O12215368   5.712   4.676   4.169 -0.6353 -0.6409  0.4603
   34MOL   C12315369   5.803   4.483   4.053  0.3270  0.2678 -0.3713
   34MOL   C12415370   5.773   4.387   3.953 -0.1215 -0.1318  0.3589
   34MOL   C12515371   5.853   4.271   3.936  0.4404  0.0091 -0.0342
   34MOL   C12615372   5.964   4.249   4.021 -0.0020  0.1403 -0.7078
   34MOL   C12715373   6.061   4.135   4.010  0.5372 -0.0812 -0.3036
   34MOL   O12815374   6.114   4.082   4.106  0.7358  0.6562 -0.4530
   34MOL   O12915375   6.074   4.091   3.879  1.2697 -0.4750 -0.4137
   34MOL   C13015376   5.987   4.346   4.121  0.4810 -0.3311 -0.2716
   34MOL   C13115377   5.901   4.454   4.144  0.0851 -0.1994 -0.8961
   34MOL   H13215378   5.362   4.816   3.971  0.9055  0.1150  0.6752
   34MOL   H13315379   5.370   4.653   4.010 -0.4540 -1.3111 -1.8993
   34MOL   H13415380   5.588   4.807   4.021  1.3177 -2.5413  1.0989
   34MOL   H13515381   5.602   4.773   3.854  2.7184 -0.4907  0.8349
   34MOL   H13615382   5.697   4.408   3.879 -0.7534 -1.0200  0.7534
   34MOL   H13715383   5.827   4.205   3.856 -0.1721  1.7316 -1.2933
   34MOL   H13815384   6.075   4.336   4.183 -0.6062 -2.8064  0.9683
   34MOL   H13915385   5.915   4.524   4.225 -2.0995 -2.5534  1.6670
   34MOL   O14015386   6.174   3.979   3.864  0.7786 -0.3410  0.2150
   34MOL   C14115387   6.110   3.852   3.873 -0.3600  0.3103 -0.0480
   34MOL   C14215388   6.020   3.828   3.749  0.6562  0.1789  0.3521
   34MOL   O14315389   5.886   3.850   3.775 -0.2420  0.3841  0.6203
   34MOL   C14415390   5.793   3.764   3.725 -0.3189 -0.3516 -0.3664
   34MOL   O14515391   5.825   3.668   3.647  0.0145 -0.0722 -0.0788
   34MOL   C14615392   5.658   3.785   3.784  0.4430 -0.4592  0.3052
   34MOL   C14715393   5.544   3.727   3.726  0.7118 -0.6172 -0.2709
   34MOL   C14815394   5.421   3.731   3.798 -1.3004  0.2797  0.3378
   34MOL   C14915395   5.414   3.800   3.922  1.0748  0.0492 -0.6240
   34MOL   C15015396   5.286   3.811   3.993  0.9427  0.7387 -0.2174
   34MOL   O15115397   5.276   3.885   4.090 -0.3213 -0.3650 -0.3278
   34MOL   O15215398   5.187   3.745   3.940 -0.1315  0.5523 -0.1791
   34MOL   C15315399   5.528   3.857   3.978 -0.3077  0.3507 -0.7297
   34MOL   C15415400   5.651   3.849   3.911 -0.5466  0.2649  0.3324
   34MOL   H15515401   6.186   3.774   3.881 -0.2827  0.4481  0.5778
   34MOL   H15615402   6.053   3.850   3.967  0.1962 -1.1508  0.2720
   34MOL   H15715403   6.044   3.735   3.697  1.3895  1.6827 -2.0386
   34MOL   H15815404   6.061   3.906   3.685 -0.3644 -0.8022 -1.5459
   34MOL   H15915405   5.548   3.686   3.626  1.4468 -1.7759  0.2245
   34MOL   H16015406   5.335   3.683   3.753  0.4637 -4.1728  1.4049
   34MOL   H16115407   5.523   3.916   4.069  0.7272 -0.5612 -0.0572
   34MOL   H16215408   5.735   3.897   3.958  1.7693 -2.7962 -0.4720
   34MOL   O16315409   5.051   3.773   4.004  0.9170 -0.0103  0.1138
   34MOL   C16415410   5.016   3.662   4.089  0.2175 -0.5602  0.2608
   34MOL   C16515411   4.884   3.713   4.150  0.2939 -0.5484 -0.2544
   34MOL   O16615412   4.780   3.715   4.058 -0.3363  0.7489  0.2210
   34MOL   C16715413   4.651   3.722   4.098  0.4124  0.0529 -0.2998
   34MOL   O16815414   4.608   3.732   4.214 -0.0539 -0.5591 -0.6058
   34MOL   C16915415   4.560   3.728   3.987  0.1440  0.4645 -0.5311
   34MOL   C17015416   4.602   3.722   3.852 -0.1114 -0.2502  0.1313
   34MOL   C17115417   4.515   3.717   3.744  0.8770 -0.4424  0.3987
   34MOL   C17215418   4.373   3.702   3.770  0.4745  0.1009 -0.0138
   34MOL   C17315419   4.272   3.680   3.660  0.0487 -0.0814  0.0352
   34MOL   O17415420   4.306   3.663   3.545 -0.0061  0.2913  0.0940
   34MOL   O17515421   4.145   3.681   3.699  0.1203  0.2104 -0.5346
   34MOL   C17615422   4.326   3.720   3.906  0.0882 -0.9053  0.6989
   34MOL   C17715423   4.420   3.734   4.009  0.7389 -0.4640 -0.3779
   34MOL   H17815424   5.000   3.567   4.039 -1.9945 -0.7191  1.2271
   34MOL   H17915425   5.084   3.644   4.173  1.9646  2.7569 -0.3706
   34MOL   H18015426   4.891   3.811   4.197  1.4193  0.1570 -1.8557
   34MOL   H18115427   4.856   3.656   4.239 -0.5739 -0.7908 -0.6699
   34MOL   H18215428   4.706   3.725   3.823  0.6824 -0.6953  2.8008
   34MOL   H18315429   4.542   3.706   3.640  0.7020  0.5159  0.2478
   34MOL   H18415430   4.219   3.717   3.923 -0.0938  1.8318  0.2915
   34MOL   H18515431   4.389   3.743   4.112  0.3931 -0.8409 -0.4476
   34MOL   O18615432   4.051   3.663   3.584  0.6446 -0.4610 -0.3170
   34MOL   C18715433   3.989   3.783   3.565  1.1669  0.3200 -0.6057
   34MOL   C18815434   3.857   3.748   3.503 -0.0084  0.4825 -0.0745
   34MOL   O18915435   3.760   3.859   3.507 -0.2006 -0.6024 -0.3669
   34MOL   C19015436   3.677   3.865   3.611  0.2231  0.7664 -0.6448
   34MOL   O19115437   3.686   3.786   3.704  0.2807  0.0308  0.3895
   34MOL   C19215438   3.573   3.971   3.598 -0.1138  0.1569  0.2815
   34MOL   C19315439   3.475   3.987   3.696 -0.1527 -0.2786 -0.0424
   34MOL   C19415440   3.375   4.081   3.683  0.3371 -0.3611  0.3086
   34MOL   C19515441   3.365   4.157   3.561  0.1719 -1.2483 -0.3229
   34MOL   C19615442   3.246   4.248   3.536 -0.1841  0.3289 -0.4150
   34MOL   O19715443   3.234   4.323   3.444  0.5518  0.3013  0.5119
   34MOL   O19815444   3.153   4.233   3.638  0.2609  0.0884  0.5795
   34MOL   C19915445   3.465   4.147   3.464 -0.5566 -1.1791 -0.8637
   34MOL   C20015446   3.568   4.050   3.481  0.6717  0.3992 -0.1271
   34MOL   H20115447   3.979   3.827   3.664 -0.6768  1.1477 -1.1412
   34MOL   H20215448   4.042   3.844   3.492 -0.0111  0.0184 -1.7290
   34MOL   H20315449   3.818   3.663   3.560  2.6246  1.0079  2.6221
   34MOL   H20415450   3.855   3.716   3.399 -0.2093 -0.2653  0.1544
   34MOL   H20515451   3.488   3.926   3.783  2.2983 -1.3101 -1.0740
   34MOL   H20615452   3.296   4.090   3.755 -0.1388  2.3215 -0.4906
   34MOL   H20715453   3.457   4.207   3.375 -1.4620 -2.8939 -1.9600
   34MOL   H20815454   3.644   4.047   3.404  0.1358 -1.2738 -0.5958
   34MOL   O20915455   3.046   4.334   3.639 -0.0007 -1.1222 -0.6400
   34MOL   C21015456   2.932   4.279   3.576 -0.5156 -0.5727 -0.8957
   34MOL   C21115457   2.917   4.356   3.438 -0.0905  0.0372 -0.6159
   34MOL   O21215458   2.795   4.434   3.426 -0.0761  0.1665 -0.6610
   34MOL   C21315459   2.798   4.540   3.341  0.5326  0.0077 -0.5778
   34MOL   O21415460   2.899   4.567   3.275  0.1949 -0.2168 -0.1406
   34MOL   C21515461   2.671   4.616   3.328  0.3523  0.7316 -0.7342
   34MOL   C21615462   2.659   4.727   3.239 -1.2317 -0.4197 -0.3387
   34MOL   C21715463   2.547   4.811   3.237 -0.5637 -0.2362  1.0197
   34MOL   C21815464   2.439   4.779   3.320  0.1723 -0.5501  0.1033
   34MOL   C21915465   2.324   4.863   3.326  0.3954  0.2167  0.2365
   34MOL   O22015466   2.325   4.986   3.304  0.7913 -0.0395  0.2439
   34MOL   O22115467   2.209   4.793   3.359 -0.2789  0.2064 -0.5545
   34MOL   C22215468   2.448   4.666   3.407 -0.0508  0.4800  0.5238
   34MOL   C22315469   2.561   4.589   3.415 -0.0102  0.0191 -0.0705
   34MOL   H22415470   2.932   4.170   3.568 -3.2849 -0.8712  1.9657
   34MOL   H22515471   2.845   4.296   3.640  0.6677  3.0657 -0.1157
   34MOL   H22615472   2.931   4.290   3.352 -2.4146  1.5005 -2.1771
   34MOL   H22715473   3.010   4.413   3.438  1.3210 -2.1717 -1.7049
   34MOL   H22815474   2.745   4.759   3.182 -0.3217  1.3478  1.9389
   34MOL   H22915475   2.546   4.891   3.164 -0.3099 -2.0101 -0.9791
   34MOL   H23015476   2.367   4.638   3.472 -0.4535  0.5617  0.0555
   34MOL   H23115477   2.575   4.518   3.494  1.6812  0.1665 -0.2229
   34MOL   O23215478   2.081   4.877   3.368 -0.0301 -0.0098  0.3143
   34MOL   C23315479   2.039   4.865   3.499  0.4874 -0.5976  0.4578
   34MOL   C23415480   1.960   4.738   3.520 -0.1274  0.1338  0.1071
   34MOL   O23515481   1.889   4.738   3.648 -0.0586  0.0753 -0.4579
   34MOL   C23615482   1.866   4.621   3.719 -0.5088 -0.4489 -0.4697
   34MOL   O23715483   1.893   4.509   3.668  0.3465  0.2527 -0.5508
   34MOL   C23815484   1.806   4.639   3.859  0.8480 -0.0918 -0.0309
   34MOL   C23915485   1.719   4.750   3.894 -0.0139  0.7463 -0.1076
   34MOL   C24015486   1.671   4.764   4.024 -0.4902  0.6599 -0.4323
   34MOL   C24115487   1.698   4.662   4.123 -0.1451  0.1050  0.4837
   34MOL   C24215488   1.636   4.669   4.259  1.0688  0.2042 -0.1416
   34MOL   O24315489   1.683   4.606   4.355 -0.1312  0.5006  0.1520
   34MOL   O24415490   1.524   4.745   4.265 -0.2278  0.2027  0.5683
   34MOL   C24515491   1.781   4.551   4.080  0.0905  0.0281  0.0176
   34MOL   C24615492   1.840   4.544   3.952  0.9903  0.4355  0.1322
   34MOL   H24715493   2.124   4.869   3.567 -0.7722  0.3465  2.0377
   34MOL   H24815494   1.991   4.954   3.541  0.7191 -1.3243  2.2878
   34MOL   H24915495   2.017   4.646   3.509  1.1758  1.1872 -2.2915
   34MOL   H25015496   1.881   4.731   3.446  0.7699  2.6869 -1.1387
   34MOL   H25115497   1.683   4.822   3.823 -0.0003 -0.7220 -1.6264
   34MOL   H25215498   1.612   4.852   4.044 -0.9352  1.0256 -3.2168
   34MOL   H25315499   1.805   4.475   4.153 -1.1356  0.4937  0.9169
   34MOL   H25415500   1.908   4.465   3.924 -1.5468 -1.3098 -1.3970
   34MOL   O25515501   1.449   4.726   4.400 -0.1131  0.4814  0.0375
   34MOL   C25615502   1.353   4.624   4.389 -0.2671 -0.0715 -0.0815
   34MOL   C25715503   1.258   4.634   4.274 -0.2589  0.2167  0.1449
   34MOL   O25815504   1.315   4.575   4.160  0.2847  0.1491  0.0364
   34MOL   C25915505   1.228   4.521   4.067 -0.2441  0.2108 -0.1303
   34MOL   O26015506   1.106   4.508   4.073  0.0931 -0.3819 -0.3798
   34MOL   C26115507   1.301   4.467   3.949  0.1999 -0.1560  0.7695
   34MOL   C26215508   1.422   4.530   3.906 -0.2917  0.7123  0.0923
   34MOL   C26315509   1.486   4.488   3.788  0.3512  0.0216 -0.6131
   34MOL   C26415510   1.428   4.389   3.708  0.5065  0.3121  1.0492
   34MOL   C26515511   1.498   4.361   3.578 -0.5096 -0.2791 -0.0045
   34MOL   O26615512   1.613   4.402   3.554  0.2561 -0.0331 -0.0239
   34MOL   O26715513   1.424   4.287   3.498  0.0476  0.1806 -0.4517
   34MOL   C26815514   1.303   4.328   3.744 -0.9898  0.1623 -0.5919
   34MOL   C26915515   1.237   4.370   3.861 -0.8315 -0.5156  0.1985
   34MOL   H27015516   1.398   4.527   4.373  0.3018  0.0051  1.0161
   34MOL   H27115517   1.290   4.630   4.479  0.6117 -0.2912  0.5558
   34MOL   H27215518   1.239   4.740   4.255 -2.4620 -0.0044  0.9842
   34MOL   H27315519   1.176   4.571   4.306 -0.8875  1.2989  0.6699
   34MOL   H27415520   1.466   4.606   3.969 -0.1096  0.7918 -0.1321
   34MOL   H27515521   1.574   4.544   3.762 -0.8103  1.9936 -0.4187
   34MOL   H27615522   1.256   4.252   3.684 -0.5592 -1.3918  0.9813
   34MOL   H27715523   1.141   4.329   3.887  0.1824 -2.5898  0.7908
   34MOL   O27815524   1.470   4.264   3.358 -0.5086  0.3038  0.1849
   34MOL   C27915525   1.562   4.160   3.362 -0.3068  0.5267 -0.4228
   34MOL   C28015526   1.616   4.128   3.226  0.1861  0.2350 -0.2592
   34MOL   O28115527   1.735   4.051   3.250  0.9862 -0.1829 -0.1451
   34MOL   C28215528   1.731   3.934   3.290 -0.6520  0.0571  0.3491
   34MOL   O28315529   1.627   3.867   3.280  0.0371 -0.2237  0.3829
   34MOL   C28415530   1.861   3.877   3.323 -0.2678  0.0749 -0.1835
   34MOL   C28515531   1.872   3.737   3.343  0.9607  0.0212 -0.1524
   34MOL   C28615532   1.995   3.686   3.390  0.5205 -0.7271 -0.0065
   34MOL   C28715533   2.106   3.768   3.412 -0.7853  0.0010  0.3130
   34MOL   C28815534   2.217   3.698   3.483  0.2787 -0.1293 -0.0789
   34MOL   O28915535   2.239   3.578   3.474 -0.8537  0.0420 -0.1290
   34MOL   O29015536   2.301   3.784   3.537 -0.5351  0.1563  0.3668
   34MOL   C29115537   2.101   3.906   3.387 -0.0271 -0.2720 -0.4116
   34MOL   C29215538   1.977   3.957   3.347 -0.0056 -0.4849 -0.6813
   34MOL   H29315539   1.650   4.190   3.419 -0.2473 -0.0341 -0.2165
   34MOL   H29415540   1.518   4.084   3.427 -2.1470  1.3630 -0.6362
   34MOL   H29515541   1.632   4.219   3.168  0.5948  1.6664  2.0341
   34MOL   H29615542   1.543   4.070   3.169 -1.1438 -0.7715  2.4073
   34MOL   H29715543   1.797   3.660   3.343  0.3533  0.6102  0.7799
   34MOL   H29815544   2.004   3.583   3.422  0.2281 -1.4612 -2.2473
   34MOL   H29915545   2.178   3.977   3.412  1.1953 -2.0910  1.1503
   34MOL   H30015546   1.974   4.064   3.335 -0.1792 -0.3123  0.8281
   34MOL   O30115547   2.423   3.722   3.602  0.1508  0.2022  0.1763
   34MOL   C30215548   2.528   3.731   3.510 -0.5727 -0.5005 -0.3961
   34MOL   C30315549   2.656   3.671   3.563  0.4018 -0.2521 -0.2374
   34MOL   O30415550   2.752   3.638   3.470  0.1393 -0.2352  0.1859
   34MOL   C30515551   2.833   3.727   3.413 -0.4473 -0.4597  1.1754
   34MOL   O30615552   2.824   3.850   3.430  0.3742  0.3465 -0.0459
   34MOL   C30715553   2.941   3.661   3.329 -0.5475 -0.9096  0.6280
   34MOL   C30815554   3.031   3.743   3.257  0.2542  0.8438 -0.5226
   34MOL   C30915555   3.146   3.688   3.196  0.9161 -0.1483  0.0717
   34MOL   C31015556   3.160   3.546   3.186  0.3190 -0.3306 -0.1818
   34MOL   C31115557   3.276   3.472   3.137  0.2281  0.2379 -0.3259
   34MOL   O31215558   3.292   3.354   3.164  0.5605  0.7034 -0.9484
   34MOL   O31315559   3.355   3.543   3.052 -0.5948  0.1107 -0.1323
   34MOL   C31415560   3.062   3.470   3.251  0.3102 -0.3784  1.0900
   34MOL   C31515561   2.953   3.526   3.314  0.0804 -0.8556 -0.5174
   34MOL   H31615562   2.504   3.679   3.417  1.6028 -0.0349 -1.2562
   34MOL   H31715563   2.540   3.833   3.473  0.3405 -0.7084 -0.6878
   34MOL   H31815564   2.624   3.574   3.600 -0.5490 -0.0747 -0.5697
   34MOL   H31915565   2.695   3.740   3.638 -1.4382  0.4538  0.1131
   34MOL   H32015566   3.020   3.851   3.255 -0.7379  0.7717  0.6482
   34MOL   H32115567   3.218   3.761   3.163 -1.0628  2.2674  0.8966
   34MOL   H32215568   3.075   3.363   3.256  0.1455 -0.3871  1.4091
   34MOL   H32315569   2.883   3.453   3.349 -0.5884 -0.8791 -1.8892
   34MOL   O32415570   3.467   3.463   2.995  0.1337 -0.3163 -0.0056
   34MOL   C32515571   3.419   3.391   2.886 -0.4192  0.7521 -0.4120
   34MOL   C32615572   3.532   3.315   2.813 -0.2665 -0.0354  0.4293
   34MOL   O32715573   3.603   3.222   2.893 -0.4797 -0.0373  0.5816
   34MOL   C32815574   3.567   3.095   2.904 -0.1398 -0.4378  0.3109
   34MOL   O32915575   3.490   3.032   2.830  0.2834  0.1246  0.0006
   34MOL   C33015576   3.639   3.034   3.017  0.2265  0.0371  0.1799
   34MOL   C33115577   3.687   3.115   3.124  0.3350  0.2501  0.0156
   34MOL   C33215578   3.740   3.050   3.244  0.1726  0.4436 -0.3978
   34MOL   C33315579   3.747   2.906   3.244  0.0263  0.1862  0.1397
   34MOL   C33415580   3.805   2.837   3.361 -0.2911 -0.1529  0.0917
   34MOL   O33515581   3.839   2.896   3.458 -0.3289  0.0356 -0.2172
   34MOL   O33615582   3.820   2.705   3.345 -0.5719  0.2186  0.2733
   34MOL   C33715583   3.696   2.826   3.135 -0.4638 -0.4499 -0.4395
   34MOL   C33815584   3.645   2.895   3.022  0.0381 -0.1915  0.1173
   34MOL   H33915585   3.344   3.322   2.923 -0.0174  0.6072  0.1315
   34MOL   H34015586   3.364   3.458   2.820 -0.0734  0.2936 -1.1761
   34MOL   H34115587   3.610   3.385   2.785 -0.9066  0.2284 -0.7340
   34MOL   H34215588   3.495   3.267   2.722 -3.5629 -0.5466  1.9536
   34MOL   H34315589   3.665   3.220   3.133  2.5206  0.8237 -0.9512
   34MOL   H34415590   3.764   3.105   3.334 -0.5058  0.6722 -0.3539
   34MOL   H34515591   3.707   2.719   3.134 -0.8848 -0.4977 -1.5584
   34MOL   H34615592   3.616   2.838   2.934 -1.3650 -1.7776  1.5548
   34MOL   O34715593   3.862   2.636   3.466  0.0280 -0.1465  0.4371
   34MOL   C34815594   3.750   2.567   3.520  0.0413 -0.1616 -0.3791
   34MOL   C34915595   3.798   2.523   3.662  0.0855 -1.3096  0.5473
   34MOL   O35015596   3.683   2.478   3.733 -0.2325  0.1404 -0.2111
   34MOL   C35115597   3.635   2.357   3.694 -0.5492 -0.4975  0.6221
   34MOL   O35215598   3.695   2.286   3.613 -0.5625  1.1880 -0.0933
   34MOL   C35315599   3.501   2.331   3.745 -0.1375 -0.4583 -0.1334
   34MOL   C35415600   3.459   2.198   3.773 -0.2333  0.2556 -0.0434
   34MOL   C35515601   3.329   2.160   3.811 -0.7601  0.8691 -0.5034
   34MOL   C35615602   3.242   2.269   3.842  0.3059  0.1945  0.1649
   34MOL   C35715603   3.102   2.245   3.882  0.1800  0.1845 -0.0765
   34MOL   O35815604   3.050   2.132   3.896 -0.1692  0.5371 -0.0244
   34MOL   O35915605   3.027   2.357   3.894  0.5806  0.3890 -0.5311
   34MOL   C36015606   3.297   2.393   3.844 -0.5154 -0.1064  0.5014
   34MOL   C36115607   3.419   2.434   3.792  0.8428  0.2951 -0.1260
   34MOL   H36215608   3.655   2.618   3.502 -0.1163 -0.4462 -0.3534
   34MOL   H36315609   3.731   2.476   3.463  0.5951  0.1940 -1.1347
   34MOL   H36415610   3.840   2.607   3.716  2.3751 -2.0680  0.0084
   34MOL   H36515611   3.878   2.450   3.646  0.9145  0.4479 -3.9999
   34MOL   H36615612   3.529   2.116   3.764  0.4008  0.4151  2.9170
   34MOL   H36715613   3.299   2.057   3.821 -0.6747  0.8804 -0.1391
   34MOL   H36815614   3.238   2.474   3.883 -0.1488  0.8096 -0.7947
   34MOL   H36915615   3.450   2.537   3.787  0.9656  0.2929  0.5481
   34MOL   O37015616   2.882   2.342   3.896 -0.2765 -0.2257  0.1483
   34MOL   C37115617   2.838   2.373   4.029 -0.2193 -0.8718 -0.3094
   34MOL   C37215618   2.692   2.349   4.041  0.0107 -0.7164 -0.4093
   34MOL   O37315619   2.627   2.438   3.961 -0.1005 -0.5034  0.0883
   34MOL   C37415620   2.568   2.547   4.013 -0.5916 -0.4736 -0.0505
   34MOL   O37515621   2.525   2.549   4.128 -0.4925 -0.3273 -0.0227
   34MOL   C37615622   2.565   2.665   3.915  0.1324  0.4474 -0.0043
   34MOL   C37715623   2.487   2.779   3.942  0.4195 -0.4697  0.1051
   34MOL   C37815624   2.502   2.892   3.855  0.6695 -0.1959 -0.1593
   34MOL   C37915625   2.586   2.886   3.748  0.4749  0.6881 -0.1728
   34MOL   C38015626   2.614   3.004   3.663  0.3242 -0.1174 -0.2126
   34MOL   O38115627   2.680   2.991   3.563 -0.5364 -0.0671  0.2199
   34MOL   O38215628   2.575   3.127   3.714 -0.2915 -0.4178 -0.4091
   34MOL   C38315629   2.653   2.767   3.713 -0.3797  0.0868  0.4155
   34MOL   C38415630   2.645   2.657   3.803 -0.0586 -0.0193  0.1200
   34MOL   H38515631   2.901   2.306   4.088  0.1488 -2.4966 -2.4928
   34MOL   H38615632   2.875   2.468   4.067 -0.0626 -0.8274 -0.5764
   34MOL   H38715633   2.663   2.347   4.146 -0.6215 -0.4317 -0.5799
   34MOL   H38815634   2.668   2.249   4.005 -1.7010 -0.5691  0.2916
   34MOL   H38915635   2.419   2.779   4.026 -1.0417  0.8526 -1.0663
   34MOL   H39015636   2.438   2.976   3.876 -0.7543 -0.9224 -1.4825
   34MOL   H39115637   2.730   2.774   3.637 -1.1304  0.6755 -0.2920
   34MOL   H39215638   2.694   2.563   3.782  0.3424  0.1854  0.1240
   34MOL   O39315639   2.618   3.240   3.625 -0.6016  0.2296 -0.9958
   34MOL   C39415640   2.510   3.288   3.554  0.6624 -0.3253  0.9673
   34MOL   C39515641   2.566   3.338   3.417 -0.2352  0.0168  0.4666
   34MOL   O39615642   2.589   3.228   3.334  0.3006 -0.1872 -0.3778
   34MOL   C39715643   2.643   3.256   3.207  0.7632 -0.5133 -0.1649
   34MOL   O39815644   2.672   3.372   3.174 -0.3377  0.2867 -0.3140
   34MOL   C39915645   2.668   3.131   3.131 -0.1218  0.0736  0.6686
   34MOL   C40015646   2.681   3.133   2.988  0.7490  0.3844  0.7880
   34MOL   C40115647   2.698   3.010   2.919 -0.7003 -0.5545  0.1501
   34MOL   C40215648   2.702   2.884   2.989  0.3391 -0.5849  0.6512
   34MOL   C40315649   2.724   2.754   2.916 -0.0619  0.7783 -0.0483
   34MOL   O40415650   2.691   2.650   2.974  0.0393  0.2518 -0.0713
   34MOL   O40515651   2.778   2.759   2.794 -0.2199 -0.2662 -0.4206
   34MOL   C40615652   2.683   2.881   3.129 -0.0449  0.0048 -0.8031
   34MOL   C40715653   2.678   3.006   3.195  0.3451  0.3843 -0.2254
   34MOL   H40815654   2.439   3.207   3.538 -0.4913  0.5141  1.7525
   34MOL   H40915655   2.457   3.362   3.615 -0.7169 -0.0243 -0.5716
   34MOL   H41015656   2.651   3.405   3.432  1.0686 -1.3571 -0.5955
   34MOL   H41115657   2.484   3.388   3.365 -0.4639  1.9254  2.5445
   34MOL   H41215658   2.670   3.233   2.949 -1.8853 -0.0694  0.3098
   34MOL   H41315659   2.709   3.014   2.812  3.0008 -1.4998  0.4239
   34MOL   H41415660   2.678   2.790   3.186 -0.1520  0.4746 -0.0650
   34MOL   H41515661   2.660   3.005   3.301 -2.4753 -0.3296 -0.6673
   34MOL   O41615662   2.823   2.632   2.743  0.1942  0.1201  1.1122
   34MOL   C41715663   2.963   2.651   2.735  0.0715 -0.1358  0.6312
   34MOL   C41815664   3.039   2.530   2.675 -0.4375 -0.1221 -0.0370
   34MOL   O41915665   3.043   2.532   2.530 -0.4399  0.5140  0.0456
   34MOL   C42015666   3.005   2.427   2.463 -0.3265 -0.8469  0.6277
   34MOL   O42115667   2.981   2.321   2.517 -0.0211  0.0097  0.2601
   34MOL   C42215668   2.996   2.453   2.317 -0.4128 -0.0961  0.3112
   34MOL   C42315669   3.044   2.573   2.261 -0.1936 -0.1439 -0.0485
   34MOL   C42415670   3.028   2.600   2.121  0.3024  0.7121 -0.1697
   34MOL   C42515671   2.976   2.499   2.033 -0.0731 -0.3126 -1.2107
   34MOL   C42615672   2.978   2.522   1.877  0.4521 -0.2660 -0.4432
   34MOL   O42715673   2.998   2.637   1.827 -0.1966  0.4639 -0.3492
   34MOL   O42815674   2.987   2.413   1.804  0.9398  0.1301  0.5547
   34MOL   C42915675   2.938   2.371   2.088 -0.7230 -0.4721  0.2496
   34MOL   C43015676   2.954   2.354   2.228 -0.0015 -0.1385 -0.6273
   34MOL   H43115677   2.982   2.744   2.682  1.4473 -1.0547 -0.5092
   34MOL   H43215678   3.014   2.661   2.831 -0.5052  1.5344  0.7698
   34MOL   H43315679   2.997   2.441   2.721  1.2097 -1.4242 -0.9864
   34MOL   H43415680   3.141   2.535   2.714  0.3190 -1.0174 -1.8812
   34MOL   H43515681   3.081   2.648   2.328  3.2674 -0.1452 -1.8517
   34MOL   H43615682   3.051   2.697   2.081 -1.0474  1.7535  1.4975
   34MOL   H43715683   2.918   2.292   2.018 -1.2767 -0.3566  0.2748
   34MOL   H43815684   2.929   2.257   2.266 -1.7326  1.1880  1.7577
   34MOL   O43915685   3.041   2.433   1.663  0.1327 -0.4797 -0.4554
   34MOL   C44015686   2.930   2.447   1.568 -0.7104  0.0672  0.6656
   34MOL   C44115687   2.963   2.537   1.450  0.8470  0.4046  0.3384
   34MOL   O44215688   3.066   2.478   1.371  0.7329 -0.6551 -0.2441
   34MOL   C44315689   3.032   2.420   1.257 -0.4211  0.3884  0.2071
   34MOL   O44415690   2.910   2.397   1.222 -0.4069  0.0568  0.1128
   34MOL   C44515691   3.148   2.357   1.194  0.7559  0.9981  0.3732
   34MOL   C44615692   3.279   2.377   1.243  0.3638  0.9691  0.4886
   34MOL   C44715693   3.389   2.314   1.175 -1.2537  0.0084 -0.5870
   34MOL   C44815694   3.363   2.221   1.074  1.0419 -0.2008 -0.0505
   34MOL   C44915695   3.478   2.133   1.030 -0.4932 -0.0551  0.6325
   34MOL   O45015696   3.582   2.110   1.092 -0.6438  0.4489 -0.2411
   34MOL   O45115697   3.456   2.086   0.904 -0.0005  0.1729  0.1674
   34MOL   C45215698   3.229   2.205   1.028 -0.3113 -0.1205 -0.1019
   34MOL   C45315699   3.123   2.276   1.083 -0.3700  0.4897  0.5537
   34MOL   H45415700   2.899   2.350   1.529 -0.5400 -0.0797  0.8892
   34MOL   H45515701   2.843   2.486   1.620 -1.6245  0.1501 -0.8820
   34MOL   H45615702   2.995   2.635   1.484 -0.9154  1.1058  0.0441
   34MOL   H45715703   2.869   2.548   1.396  0.0154 -1.4762  1.3727
   34MOL   H45815704   3.303   2.440   1.327  2.4875 -0.0064  0.6466
   34MOL   H45915705   3.487   2.327   1.217 -1.8448 -0.1751  0.8737
   34MOL   H46015706   3.203   2.136   0.948 -0.0811  0.1991 -0.4514
   34MOL   H46115707   3.031   2.273   1.026 -0.5137  0.4672  0.7860
   34MOL   H46215708   3.468   1.992   0.900  1.3878  0.3946 -2.3318
   35MOL     O115709   0.680   7.112   8.017 -0.3603 -0.4077  0.1369
   35MOL     C215710   0.587   7.181   8.102 -0.1918  0.5377 -0.0493
   35MOL     C315711   0.457   7.102   8.103 -0.2657  0.6653 -0.0662
   35MOL     O415712   0.471   6.988   8.183  0.3916 -0.2186 -0.0225
   35MOL     C515713   0.469   6.994   0.039 -0.2718 -0.2970 -0.4266
   35MOL     O615714   0.442   7.099   0.100 -0.1523  0.3388  0.8011
   35MOL     C715715   0.516   6.870   0.110 -0.6622  0.5382  0.5501
   35MOL     C815716   0.582   6.763   0.040  0.1562  0.0132 -0.3464
   35MOL     C915717   0.617   6.642   0.104 -0.1623  0.6317 -0.0867
   35MOL    C1015718   0.582   6.629   0.240  0.7200  0.0037 -0.0908
   35MOL    C1115719   0.612   6.499   0.313 -0.5054  0.6360  0.4951
   35MOL    O1215720   0.698   6.421   0.271  0.1123 -0.0856  0.9505
   35MOL    O1315721   0.542   6.483   0.429  0.1863 -0.4420  0.2672
   35MOL    C1415722   0.534   6.735   0.312 -0.4616 -0.0447 -0.7478
   35MOL    C1515723   0.494   6.854   0.250 -0.6744 -0.0107 -0.0679
   35MOL    H1615724   0.635   7.183   8.200  0.6148  1.4233 -0.4547
   35MOL    H1715725   0.580   7.285   8.071 -1.2500  0.2539 -0.7964
   35MOL    H1815726   0.445   7.083   7.996  0.7256  2.8312 -0.6001
   35MOL    H1915727   0.373   7.165   8.132 -0.3130  0.1583  0.9186
   35MOL    H2015728   0.611   6.776   8.212 -1.4464  3.7071 -0.3971
   35MOL    H2115729   0.659   6.555   0.056  0.6411  1.6386 -1.2530
   35MOL    H2215730   0.524   6.725   0.419  0.7811 -1.5523 -0.7743
   35MOL    H2315731   0.453   6.934   0.310  2.8310  3.2594 -1.7831
   35MOL    H2415732   0.638   7.090   7.935  1.3653 -1.8138 -0.4010
   35MOL    O2515733   0.600   6.366   0.502 -0.5203 -0.2081  0.1754
   35MOL    C2615734   0.516   6.250   0.495  0.5144 -0.0042  0.4567
   35MOL    C2715735   0.515   6.182   0.351  0.0369 -0.2332 -0.7523
   35MOL    O2815736   0.432   6.254   0.264  0.1185  0.1676  0.2370
   35MOL    C2915737   0.413   6.208   0.144  0.2344  0.1321  0.1933
   35MOL    O3015738   0.441   6.092   0.110  0.3899  0.2884 -0.4178
   35MOL    C3115739   0.346   6.318   0.061 -0.4623  0.3868  0.7823
   35MOL    C3215740   0.301   6.438   0.113  0.1734  0.1714 -0.7418
   35MOL    C3315741   0.273   6.543   0.024  0.7614 -0.8719  0.4905
   35MOL    C3415742   0.268   6.519   8.164  0.1287 -0.0292  0.1836
   35MOL    C3515743   0.237   6.629   8.074  0.5103  0.5894 -0.1174
   35MOL    O3615744   0.207   6.603   7.957 -0.1377 -0.7778 -0.2199
   35MOL    O3715745   0.242   6.751   8.126  0.6409  0.2617 -0.9653
   35MOL    C3815746   0.301   6.394   8.108  0.2421  0.8036  0.4581
   35MOL    C3915747   0.335   6.292   8.195 -0.5870  0.6366 -0.3489
   35MOL    H4015748   0.548   6.183   0.574  1.8291 -0.1389 -0.1814
   35MOL    H4115749   0.417   6.287   0.523  0.5807 -1.0910  2.1889
   35MOL    H4215750   0.487   6.077   0.363  1.5183 -0.5103  0.4259
   35MOL    H4315751   0.616   6.178   0.310  0.5274 -1.1568  0.5116
   35MOL    H4415752   0.318   6.462   0.217 -0.6954 -0.2782 -0.4897
   35MOL    H4515753   0.254   6.641   0.065  2.0410 -0.3923 -0.0442
   35MOL    H4615754   0.309   6.380   8.001  2.0602 -0.5477  0.7569
   35MOL    H4715755   0.371   6.198   8.155 -2.0334  1.1610 -3.0136
   35MOL    O4815756   0.232   6.862   8.022 -0.4459  0.1246  0.2097
   35MOL    C4915757   0.100   6.910   8.034  0.2170  0.0084 -0.3509
   35MOL    C5015758   0.075   6.998   7.911  0.1135 -0.2898  0.4840
   35MOL    O5115759   0.090   6.921   7.789  0.1046  0.1835 -0.2280
   35MOL    C5215760   0.006   6.926   7.683 -0.0733  0.4115 -0.2185
   35MOL    O5315761   8.203   7.012   7.658 -0.1901 -0.2438 -0.7999
   35MOL    C5415762   0.010   6.797   7.607 -1.2373  0.2350  0.1353
   35MOL    C5515763   8.227   6.789   7.477  0.5126 -0.3225  0.4894
   35MOL    C5615764   8.227   6.668   7.398  0.4608  0.1153  0.0236
   35MOL    C5715765   0.002   6.550   7.456 -0.0977 -0.5169  0.0348
   35MOL    C5815766   8.274   6.437   7.367 -0.4324 -0.4368  0.5774
   35MOL    O5915767   8.254   6.447   7.248 -0.0209  0.0656 -0.0659
   35MOL    O6015768   0.027   6.318   7.429  0.2444 -0.0024 -0.1976
   35MOL    C6115769   0.063   6.556   7.578  0.3017  1.1313 -0.3627
   35MOL    C6215770   0.056   6.675   7.660  0.1183 -0.0977  0.6425
   35MOL    H6315771   0.023   6.832   8.033 -0.5605  0.7357  0.6969
   35MOL    H6415772   0.082   6.974   8.121 -0.6900  1.6033 -1.6839
   35MOL    H6515773   0.154   7.073   7.913 -0.8050  0.7729 -1.3171
   35MOL    H6615774   8.255   7.051   7.906 -0.2296 -0.9953 -0.7657
   35MOL    H6715775   8.184   6.875   7.427 -2.3298 -1.5990  0.6649
   35MOL    H6815776   8.186   6.672   7.299  0.0006 -0.2269  0.2000
   35MOL    H6915777   0.103   6.464   7.618  1.2762  0.8278 -1.9725
   35MOL    H7015778   0.095   6.667   7.761  2.0282  0.6776 -0.0337
   35MOL    O7115779   8.264   6.200   7.341 -0.6530  0.5616 -0.1484
   35MOL    C7215780   0.102   6.153   7.277 -0.0409 -0.3787  0.6318
   35MOL    C7315781   0.091   6.004   7.239 -0.3380  0.4794 -0.4531
   35MOL    O7415782   0.163   5.924   7.337 -0.6173 -0.4977 -0.5242
   35MOL    C7515783   0.219   5.801   7.294 -0.2533 -0.0743  0.3369
   35MOL    O7615784   0.193   5.750   7.186  0.5528  0.0975 -0.4956
   35MOL    C7715785   0.317   5.740   7.391 -0.3088 -0.3588 -0.1884
   35MOL    C7815786   0.378   5.824   7.484  0.7242  0.0461 -0.5970
   35MOL    C7915787   0.445   5.774   7.595  0.5693  0.4956  0.1766
   35MOL    C8015788   0.479   5.640   7.597 -0.9848  0.1553  0.2759
   35MOL    C8115789   0.560   5.593   7.713  0.1143 -0.3400 -0.4583
   35MOL    O8215790   0.581   5.663   7.811 -0.0367 -0.6937 -0.1637
   35MOL    O8315791   0.612   5.465   7.698  0.3072  0.1885  0.0704
   35MOL    C8415792   0.436   5.551   7.496 -0.2167 -0.6193 -0.5415
   35MOL    C8515793   0.350   5.605   7.395 -0.9190  0.1753 -1.1101
   35MOL    H8615794   0.106   6.207   7.182 -1.0480 -0.0631  0.7661
   35MOL    H8715795   0.196   6.162   7.331 -0.6020  1.2332  1.3603
   35MOL    H8815796   0.137   5.990   7.142  3.0847  0.2318  1.1178
   35MOL    H8915797   8.259   5.986   7.234 -0.2528  0.0633 -0.7756
   35MOL    H9015798   0.357   5.930   7.479 -0.1433  0.0341  2.0237
   35MOL    H9115799   0.489   5.834   7.672 -0.7903 -0.9252  2.1020
   35MOL    H9215800   0.467   5.448   7.507  2.2638 -0.1748 -2.7633
   35MOL    H9315801   0.315   5.524   7.332  0.6497 -1.5224  0.1647
   35MOL    O9415802   0.673   5.400   7.820  0.3507 -0.4876  0.4859
   35MOL    C9515803   0.569   5.318   7.877 -0.4907 -0.2325  0.4136
   35MOL    C9615804   0.609   5.266   8.014 -0.1896 -0.4593 -0.0663
   35MOL    O9715805   0.693   5.147   8.004  0.0801 -0.3501 -0.3286
   35MOL    C9815806   0.651   5.037   7.943  0.5324  0.4279 -0.0506
   35MOL    O9915807   0.534   5.018   7.909 -0.2650 -0.7023  0.6147
   35MOL   C10015808   0.763   4.946   7.919  0.2617  0.2054  0.4638
   35MOL   C10115809   0.745   4.809   7.911 -0.1279 -0.6989 -0.0415
   35MOL   C10215810   0.851   4.725   7.855  0.6987  1.1198 -0.8224
   35MOL   C10315811   0.977   4.773   7.835  0.4748  0.4517  0.7222
   35MOL   C10415812   1.093   4.690   7.803  0.3786 -0.3039  0.1709
   35MOL   O10515813   1.189   4.733   7.737  0.3608  0.7379  0.0764
   35MOL   O10615814   1.080   4.567   7.856 -0.8212  0.4328 -0.0266
   35MOL   C10715815   1.000   4.910   7.851 -0.0868 -0.3380  0.6394
   35MOL   C10815816   0.895   5.002   7.891  0.1666  0.5583  0.7374
   35MOL   H10915817   0.489   5.389   7.899 -3.5771 -3.1607 -0.8728
   35MOL   H11015818   0.540   5.239   7.807  0.5540 -0.6624  0.4588
   35MOL   H11115819   0.514   5.240   8.060 -1.6678 -1.7079 -3.6406
   35MOL   H11215820   0.655   5.338   8.082  0.9864 -0.2155 -1.0892
   35MOL   H11315821   0.646   4.768   7.924 -0.4454  0.2628  0.6544
   35MOL   H11415822   0.830   4.620   7.843 -0.6653  1.3871 -0.8917
   35MOL   H11515823   1.094   4.948   7.813  2.2198 -3.7818  2.5734
   35MOL   H11615824   0.917   5.107   7.890  1.6331  0.2648  0.7257
   35MOL   O11715825   1.210   4.483   7.860 -0.1369  0.2929 -0.1757
   35MOL   C11815826   1.229   4.429   7.728 -0.1102 -1.1674 -1.0762
   35MOL   C11915827   1.377   4.412   7.714 -0.1920 -0.2811 -0.0047
   35MOL   O12015828   1.408   4.375   7.581 -0.5902 -0.6713 -0.3900
   35MOL   C12115829   1.529   4.333   7.558 -0.2804 -0.3118  0.1266
   35MOL   O12215830   1.624   4.367   7.630  0.4699 -0.3195  0.2925
   35MOL   C12315831   1.552   4.259   7.427  0.6690  0.7160  0.3437
   35MOL   C12415832   1.678   4.233   7.384  0.2701 -0.5188 -0.3121
   35MOL   C12515833   1.701   4.151   7.277  0.1548 -0.0558 -0.0230
   35MOL   C12615834   1.594   4.096   7.203  0.0643 -0.0940  0.4221
   35MOL   C12715835   1.626   4.019   7.084 -0.1844 -0.6031  0.1414
   35MOL   O12815836   1.739   4.000   7.045 -0.1694  0.0936  0.3420
   35MOL   O12915837   1.516   3.975   7.019  0.1360 -0.2818 -0.0944
   35MOL   C13015838   1.469   4.133   7.239  0.2297  0.4075 -0.1034
   35MOL   C13115839   1.441   4.209   7.353  0.0419 -0.1648  0.7967
   35MOL   H13215840   1.180   4.332   7.735 -1.2732 -0.3547  2.5747
   35MOL   H13315841   1.199   4.491   7.643 -0.3235 -1.5339 -1.2689
   35MOL   H13415842   1.415   4.339   7.785  1.0204  0.9947  0.6695
   35MOL   H13515843   1.421   4.508   7.740  3.5587 -1.9822  0.1242
   35MOL   H13615844   1.771   4.260   7.432  0.0635  1.5664 -0.9952
   35MOL   H13715845   1.806   4.130   7.260  0.6985  0.0744  2.9162
   35MOL   H13815846   1.381   4.086   7.197  0.8861 -1.6469  0.7773
   35MOL   H13915847   1.341   4.231   7.388 -0.7916  1.5637 -2.4918
   35MOL   O14015848   1.556   3.876   6.912  0.6448 -1.0839  0.7279
   35MOL   C14115849   1.549   3.945   6.787 -0.1210 -0.5994  0.3935
   35MOL   C14215850   1.541   3.846   6.666 -0.6232 -0.3969 -0.4961
   35MOL   O14315851   1.566   3.907   6.544 -0.8506 -0.7355  0.1973
   35MOL   C14415852   1.700   3.930   6.511  0.7379 -0.0554  0.0595
   35MOL   O14515853   1.798   3.904   6.579  0.2509  0.9611 -0.4919
   35MOL   C14615854   1.713   4.015   6.383  0.0780 -0.2999  0.0396
   35MOL   C14715855   1.836   4.083   6.354 -0.4273  0.2323  0.1865
   35MOL   C14815856   1.857   4.149   6.229 -0.3460  0.4220 -0.1369
   35MOL   C14915857   1.756   4.154   6.139 -0.0151 -0.0253  0.1314
   35MOL   C15015858   1.768   4.236   6.017  0.4346 -0.3958 -0.0327
   35MOL   O15115859   1.858   4.315   6.004  0.1147 -0.5411  0.0643
   35MOL   O15215860   1.676   4.205   5.919  0.4679 -0.6468 -0.3699
   35MOL   C15315861   1.631   4.089   6.167 -0.4425 -0.0694 -0.1143
   35MOL   C15415862   1.614   4.013   6.283  0.1471  0.1316 -0.6821
   35MOL   H15515863   1.461   4.010   6.789 -0.7605 -1.3578 -1.7408
   35MOL   H15615864   1.633   4.014   6.775  0.5275 -1.3003  0.8409
   35MOL   H15715865   1.439   3.808   6.669 -0.1728 -1.6372 -0.3880
   35MOL   H15815866   1.604   3.761   6.695  1.8717  0.9875 -1.6932
   35MOL   H15915867   1.919   4.068   6.422 -1.0967 -2.5015  0.4600
   35MOL   H16015868   1.953   4.191   6.204 -0.3242 -0.7686 -2.1149
   35MOL   H16115869   1.551   4.098   6.095  1.3985  0.3764 -2.1832
   35MOL   H16215870   1.524   3.955   6.294  0.9596 -0.5566  2.6955
   35MOL   O16315871   1.696   4.285   5.793  0.1978 -0.5227  1.1434
   35MOL   C16415872   1.609   4.397   5.787  0.7165 -0.7350  0.8239
   35MOL   C16515873   1.636   4.461   5.653  0.9412  0.2452  0.2806
   35MOL   O16615874   1.757   4.528   5.648 -0.3446  0.2634  0.5874
   35MOL   C16715875   1.861   4.464   5.591 -0.8602 -0.2399  0.4351
   35MOL   O16815876   1.852   4.359   5.522 -0.3530  0.1722 -0.4575
   35MOL   C16915877   1.981   4.550   5.598 -0.5966  0.1315 -0.0401
   35MOL   C17015878   2.041   4.588   5.476  0.3071  0.1962 -0.8681
   35MOL   C17115879   2.149   4.682   5.477 -0.0905  0.1331 -0.6950
   35MOL   C17215880   2.203   4.728   5.599  0.8431 -0.1694  0.3235
   35MOL   C17315881   2.325   4.810   5.591 -0.4944  0.6561 -1.0076
   35MOL   O17415882   2.404   4.797   5.496 -0.0908  0.1773  0.1452
   35MOL   O17515883   2.350   4.889   5.693 -0.8264  0.7092 -0.2091
   35MOL   C17615884   2.142   4.688   5.724  0.8487  0.0938 -0.7439
   35MOL   C17715885   2.028   4.598   5.723  0.2489  0.2754 -0.8303
   35MOL   H17815886   1.505   4.367   5.801 -0.2641  1.5685 -1.1483
   35MOL   H17915887   1.640   4.461   5.870  0.4062  0.6049 -0.0808
   35MOL   H18015888   1.565   4.542   5.632 -1.6469 -1.5277  1.8888
   35MOL   H18115889   1.607   4.388   5.577  1.3643  0.1209  0.2380
   35MOL   H18215890   2.002   4.551   5.383 -0.6684  2.7039 -1.5095
   35MOL   H18315891   2.182   4.709   5.378 -0.0882  1.0111 -0.4554
   35MOL   H18415892   2.180   4.721   5.819 -1.0073 -1.9779  0.7580
   35MOL   H18515893   1.989   4.560   5.816  1.8455 -0.5138 -0.4698
   35MOL   O18615894   2.496   4.933   5.700  0.4956 -0.0350 -0.1649
   35MOL   C18715895   2.590   4.837   5.748 -0.2886 -0.1695  0.4842
   35MOL   C18815896   2.727   4.899   5.772  0.6002 -0.0381  0.2260
   35MOL   O18915897   2.828   4.801   5.755 -0.8694  0.3653  0.3208
   35MOL   C19015898   2.856   4.711   5.840 -0.3142  0.1321 -0.3055
   35MOL   O19115899   2.804   4.701   5.955  0.0916  0.1833 -0.1316
   35MOL   C19215900   2.962   4.612   5.794 -0.3405 -0.3015  0.8147
   35MOL   C19315901   3.040   4.640   5.679 -0.3233  0.3013  0.7133
   35MOL   C19415902   3.128   4.540   5.631 -0.6598 -0.2588 -0.2377
   35MOL   C19515903   3.141   4.411   5.694 -0.0559  0.0453 -0.1508
   35MOL   C19615904   3.231   4.308   5.646 -0.0572  0.1991  0.0814
   35MOL   O19715905   3.246   4.201   5.699 -0.3969  0.6411 -0.1639
   35MOL   O19815906   3.301   4.349   5.538 -0.2795 -0.2026  0.4939
   35MOL   C19915907   3.059   4.383   5.803  0.3528  0.2447  0.8768
   35MOL   C20015908   2.978   4.484   5.856 -0.4151 -0.3890 -0.6386
   35MOL   H20115909   2.548   4.784   5.833  0.9548  0.3895  1.4604
   35MOL   H20215910   2.595   4.752   5.681 -0.8450  1.0621 -1.1446
   35MOL   H20315911   2.737   4.957   5.863 -1.4978 -0.1872  0.5643
   35MOL   H20415912   2.746   4.967   5.689  0.8561 -1.5572 -0.9889
   35MOL   H20515913   3.024   4.734   5.629 -1.8458 -0.5086 -0.3760
   35MOL   H20615914   3.180   4.560   5.538 -1.3763 -1.4652 -0.9125
   35MOL   H20715915   3.046   4.292   5.860  0.7860 -0.2600  0.1803
   35MOL   H20815916   2.922   4.458   5.945  0.5498  2.0723  0.7645
   35MOL   O20915917   3.359   4.229   5.463 -0.0402  0.3464 -0.0608
   35MOL   C21015918   3.278   4.198   5.353 -1.0140 -0.1519  0.0098
   35MOL   C21115919   3.359   4.084   5.288  0.1070  0.8952 -0.7632
   35MOL   O21215920   3.351   3.965   5.360  0.0310  0.1557  0.3978
   35MOL   C21315921   3.441   3.936   5.449  0.4401 -0.0739  0.8496
   35MOL   O21415922   3.553   3.982   5.440  0.0133  0.1234  0.2881
   35MOL   C21515923   3.393   3.846   5.559 -0.6973  0.0860  0.4855
   35MOL   C21615924   3.478   3.791   5.653  0.6163 -0.7430  0.4246
   35MOL   C21715925   3.438   3.685   5.742  0.4615  0.0992  0.2851
   35MOL   C21815926   3.300   3.641   5.745 -0.4168  1.0196 -0.0388
   35MOL   C21915927   3.251   3.542   5.837 -0.4101 -0.3365  0.1326
   35MOL   O22015928   3.144   3.491   5.821  0.2496  0.0476 -0.5182
   35MOL   O22115929   3.338   3.510   5.936 -0.2379 -0.0296 -0.6012
   35MOL   C22215930   3.214   3.690   5.647 -0.1572 -0.7108  0.6332
   35MOL   C22315931   3.258   3.793   5.559 -0.1717 -0.2979  0.7322
   35MOL   H22415932   3.180   4.160   5.379 -0.7368  0.5268  2.1549
   35MOL   H22515933   3.276   4.291   5.296 -0.4231  0.3236  0.7488
   35MOL   H22615934   3.462   4.111   5.267  0.3208  0.7413  0.0669
   35MOL   H22715935   3.319   4.072   5.187 -1.4867 -0.1373 -0.0445
   35MOL   H22815936   3.582   3.821   5.663  0.6750 -0.5129 -0.8657
   35MOL   H22915937   3.510   3.651   5.815  0.7429 -1.0931 -0.5250
   35MOL   H23015938   3.114   3.652   5.637  0.1510 -1.8537  1.6454
   35MOL   H23115939   3.186   3.824   5.485 -0.8286 -1.4095  0.8985
   35MOL   O23215940   3.293   3.396   6.030 -0.0868  0.1655  0.3950
   35MOL   C23315941   3.367   3.279   6.000 -0.0707  0.6101 -0.6498
   35MOL   C23415942   3.521   3.302   6.024  0.2123  0.5005 -0.7907
   35MOL   O23515943   3.547   3.317   6.167 -0.1544  0.2264 -0.4961
   35MOL   C23615944   3.561   3.208   6.246 -0.1978  0.4225 -0.1853
   35MOL   O23715945   3.552   3.092   6.209  0.1227  0.3034  0.1215
   35MOL   C23815946   3.593   3.248   6.386  0.2765 -0.2915  0.1867
   35MOL   C23915947   3.594   3.381   6.440 -0.3781  0.4373 -0.7225
   35MOL   C24015948   3.650   3.408   6.566 -0.8422 -0.3325 -0.4060
   35MOL   C24115949   3.678   3.304   6.652  0.2603 -0.5656 -0.1056
   35MOL   C24215950   3.742   3.331   6.791 -0.3275  0.4623  0.6328
   35MOL   O24315951   3.776   3.236   6.868 -0.4146 -0.5824  0.0355
   35MOL   O24415952   3.767   3.463   6.813 -0.2154 -0.3532 -0.3640
   35MOL   C24515953   3.680   3.173   6.608 -0.1376  0.1072 -1.0811
   35MOL   C24615954   3.634   3.145   6.478 -0.5216 -0.7529 -0.0414
   35MOL   H24715955   3.330   3.206   6.073  1.2200  0.4092 -0.1713
   35MOL   H24815956   3.342   3.237   5.903  1.0598  0.7370 -1.0083
   35MOL   H24915957   3.548   3.395   5.976 -1.9538  0.3767 -2.3241
   35MOL   H25015958   3.579   3.219   5.984  0.9485 -0.6321  2.4445
   35MOL   H25115959   3.573   3.461   6.370  1.9478 -0.5686 -2.6541
   35MOL   H25215960   3.658   3.508   6.604 -2.0720 -0.1799 -0.5273
   35MOL   H25315961   3.705   3.100   6.683 -0.5503 -0.9812 -1.9885
   35MOL   H25415962   3.623   3.043   6.444  0.3995 -1.1128  0.7152
   35MOL   O25515963   3.819   3.493   6.952 -0.3757  0.5450  0.2307
   35MOL   C25615964   3.956   3.456   6.975  0.7342  0.5363  0.5258
   35MOL   C25715965   4.021   3.505   7.103  0.4423  0.0084  0.4506
   35MOL   O25815966   3.942   3.471   7.217  0.0016 -0.2022  0.1109
   35MOL   C25915967   3.939   3.348   7.258 -0.2903  0.2396  0.5320
   35MOL   O26015968   4.020   3.263   7.215  0.3208 -0.3002 -0.1339
   35MOL   C26115969   3.836   3.316   7.361  0.4599  0.5713 -0.0241
   35MOL   C26215970   3.820   3.186   7.408  0.6486 -0.6624  0.9468
   35MOL   C26315971   3.734   3.156   7.513  0.1095 -0.7592  0.3012
   35MOL   C26415972   3.657   3.265   7.573 -0.1770  0.8360 -0.0316
   35MOL   C26515973   3.557   3.233   7.680  0.4891 -0.3183  0.5130
   35MOL   O26615974   3.501   3.323   7.748  0.2405 -0.2444 -0.1969
   35MOL   O26715975   3.532   3.104   7.702  0.3753 -0.2595 -0.4585
   35MOL   C26815976   3.676   3.394   7.527 -0.6047 -0.7539  0.5108
   35MOL   C26915977   3.773   3.422   7.424  0.0092 -0.6764 -0.2676
   35MOL   H27015978   3.950   3.348   6.978  0.4900  0.5679  1.1831
   35MOL   H27115979   4.006   3.488   6.883  0.5321  0.1469  0.2784
   35MOL   H27215980   4.023   3.614   7.109 -0.1281  0.0532 -0.2175
   35MOL   H27315981   4.124   3.470   7.109  0.6828  0.8941  1.7148
   35MOL   H27415982   3.858   3.100   7.356  0.6925  0.4523 -0.9120
   35MOL   H27515983   3.727   3.056   7.554  0.1871 -0.1196  1.9143
   35MOL   H27615984   3.622   3.479   7.567 -1.4698 -2.0670  2.2107
   35MOL   H27715985   3.783   3.527   7.399 -2.8470  0.2648  2.2244
   35MOL   O27815986   3.424   3.090   7.798 -0.3796 -0.2837  0.1883
   35MOL   C27915987   3.320   3.024   7.731  0.3680 -0.0344 -0.4061
   35MOL   C28015988   3.218   2.976   7.836 -0.6454  0.1973  0.6076
   35MOL   O28115989   3.096   2.943   7.772  0.2949 -0.1446  0.0808
   35MOL   C28215990   3.068   2.819   7.721 -0.0342 -0.5116  0.6338
   35MOL   O28315991   3.158   2.739   7.701  0.5196 -0.1369  0.3324
   35MOL   C28415992   2.929   2.788   7.701 -0.6786  0.1658 -0.4162
   35MOL   C28515993   2.824   2.886   7.715 -0.4313 -0.3193 -0.0488
   35MOL   C28615994   2.695   2.853   7.677 -0.0699  0.8413  0.2155
   35MOL   C28715995   2.664   2.724   7.623  0.0308 -0.4799 -0.7801
   35MOL   C28815996   2.527   2.681   7.592  0.3769 -0.3861 -0.2759
   35MOL   O28915997   2.485   2.566   7.576  0.3956 -0.3318 -0.0579
   35MOL   O29015998   2.434   2.782   7.607 -0.1376  0.2024  0.0089
   35MOL   C29115999   2.768   2.629   7.609  0.1629  0.1467  0.2826
   35MOL   C29216000   2.899   2.661   7.644  0.1578 -0.1068  0.7881
   35MOL   H29316001   3.277   3.097   7.663  2.4452 -0.1443 -1.8763
   35MOL   H29416002   3.346   2.934   7.677  0.7465 -1.3118  1.8177
   35MOL   H29516003   3.208   3.058   7.907  2.2923  0.5098  0.7544
   35MOL   H29616004   3.248   2.889   7.895  3.9422  1.0530 -0.2729
   35MOL   H29716005   2.854   2.985   7.744  1.3876 -0.5338 -1.1315
   35MOL   H29816006   2.618   2.928   7.668 -2.1913 -1.3529 -0.5130
   35MOL   H29916007   2.750   2.530   7.568  1.0814 -0.2779  0.9009
   35MOL   H30016008   2.981   2.594   7.622  3.0497  3.1582  1.3708
   35MOL   O30116009   2.300   2.738   7.556 -0.5941 -0.1415 -0.1114
   35MOL   C30216010   2.213   2.768   7.660  0.1115  0.2312 -0.1624
   35MOL   C30316011   2.071   2.746   7.604 -0.1848  0.3577  0.6364
   35MOL   O30416012   1.983   2.822   7.679  0.0449 -0.1384 -0.4878
   35MOL   C30516013   1.908   2.766   7.773  1.2163  0.1775  0.6484
   35MOL   O30616014   1.898   2.647   7.795  0.1159  0.1593 -0.1653
   35MOL   C30716015   1.838   2.872   7.849  0.0256 -0.2450  0.0146
   35MOL   C30816016   1.889   3.001   7.858  0.3079 -0.2795  0.3254
   35MOL   C30916017   1.812   3.106   7.925 -0.2485  0.5730  0.4185
   35MOL   C31016018   1.683   3.080   7.969  1.1104  0.4973 -0.3102
   35MOL   C31116019   1.603   3.192   8.019 -0.2751 -0.0236 -0.2351
   35MOL   O31216020   1.626   3.311   8.011  0.5132 -0.3757  0.2302
   35MOL   O31316021   1.485   3.150   8.077  0.1559 -0.4859  0.2424
   35MOL   C31416022   1.634   2.949   7.971  0.3057 -0.6428  0.4782
   35MOL   C31516023   1.709   2.851   7.907 -0.5465  0.2433  0.6070
   35MOL   H31616024   2.226   2.711   7.751 -0.7571  0.2379 -0.0290
   35MOL   H31716025   2.228   2.872   7.687  0.5411 -0.7476  3.6266
   35MOL   H31816026   2.052   2.639   7.600 -0.3806  0.3796  0.9292
   35MOL   H31916027   2.075   2.784   7.502  1.6759 -2.0028 -0.1892
   35MOL   H32016028   1.978   3.027   7.802  0.6701 -2.1284  0.0071
   35MOL   H32116029   1.843   3.209   7.913 -0.4762  0.2597 -3.1853
   35MOL   H32216030   1.533   2.924   8.000 -0.7311  1.1684 -1.4238
   35MOL   H32316031   1.673   2.749   7.905 -1.7757  0.6803  0.3274
   35MOL   O32416032   1.390   3.260   8.123  0.2896 -0.0240 -0.0730
   35MOL   C32516033   1.301   3.293   8.017 -0.0358 -0.8744  0.3366
   35MOL   C32616034   1.196   3.183   8.000  0.0873  0.4076 -0.2378
   35MOL   O32716035   1.110   3.214   7.889  0.3927 -0.4039 -0.2073
   35MOL   C32816036   1.147   3.170   7.768  0.1283  0.0593  0.1193
   35MOL   O32916037   1.254   3.104   7.749  0.1980  0.5615 -0.6566
   35MOL   C33016038   1.061   3.234   7.663  0.3815 -0.2337  0.0015
   35MOL   C33116039   0.948   3.316   7.687 -0.8376  0.2227  0.2923
   35MOL   C33216040   0.876   3.360   7.578 -0.3266  0.5331 -0.4937
   35MOL   C33316041   0.927   3.341   7.449  0.7522  0.0800  0.4894
   35MOL   C33416042   0.856   3.408   7.333 -0.2326  0.3280 -0.1852
   35MOL   O33516043   0.880   3.374   7.216  0.1455  0.2216  0.0238
   35MOL   O33616044   0.758   3.491   7.371 -0.2361 -0.7686  0.0081
   35MOL   C33716045   1.029   3.252   7.419 -0.0236 -0.1465 -0.2540
   35MOL   C33816046   1.095   3.200   7.533  0.2045 -0.3351  0.1911
   35MOL   H33916047   1.261   3.389   8.049 -1.8635 -2.2776  2.4088
   35MOL   H34016048   1.369   3.312   7.934 -0.6385 -1.4613 -0.2991
   35MOL   H34116049   1.135   3.181   8.090  0.0414  1.2796 -0.2403
   35MOL   H34216050   1.253   3.092   7.984  0.8256  0.8058  0.0614
   35MOL   H34316051   0.928   3.348   7.788  1.7426  0.7415  0.6848
   35MOL   H34416052   0.800   3.433   7.600 -0.8407 -0.0687 -0.2784
   35MOL   H34516053   1.068   3.236   7.319  1.8334 -1.0912  0.5963
   35MOL   H34616054   1.182   3.138   7.518  1.9407  1.4779  2.3984
   35MOL   O34716055   0.724   3.591   7.266  0.0018  0.2635 -0.0337
   35MOL   C34816056   0.790   3.714   7.297 -0.3846  0.7629 -0.6940
   35MOL   C34916057   0.811   3.789   7.164  0.1365 -0.2768 -0.0844
   35MOL   O35016058   0.868   3.706   7.062  0.3375  0.1113  0.9003
   35MOL   C35116059   0.789   3.642   6.976  0.2089 -0.0065 -0.5105
   35MOL   O35216060   0.666   3.623   6.985 -0.0506  0.1986 -0.4059
   35MOL   C35316061   0.865   3.594   6.860 -0.6966  0.2570 -0.1333
   35MOL   C35416062   0.813   3.500   6.768 -0.6895 -0.8736 -0.6272
   35MOL   C35516063   0.890   3.444   6.658  0.1215 -0.1284 -0.2047
   35MOL   C35616064   1.015   3.504   6.621 -0.6118 -0.0556 -0.2359
   35MOL   C35716065   1.104   3.457   6.506  0.5702 -0.2847  0.2183
   35MOL   O35816066   1.218   3.494   6.489  0.5499 -0.6298  0.5133
   35MOL   O35916067   1.040   3.370   6.423 -0.2136 -0.5437 -0.1824
   35MOL   C36016068   1.066   3.601   6.711 -0.2956 -0.0484 -0.2283
   35MOL   C36116069   0.993   3.642   6.827  0.0706  0.0112 -0.1173
   35MOL   H36216070   0.738   3.766   7.377  2.3288  1.2724  0.8151
   35MOL   H36316071   0.886   3.695   7.344 -1.6964  0.2784  1.8623
   35MOL   H36416072   0.870   3.879   7.180 -0.9861  0.7579 -1.5948
   35MOL   H36516073   0.708   3.816   7.140  0.2032 -0.5602 -0.7111
   35MOL   H36616074   0.718   3.455   6.792  0.5099 -3.1643 -0.0228
   35MOL   H36716075   0.838   3.373   6.596 -0.5701  2.6562 -2.9055
   35MOL   H36816076   1.167   3.640   6.703 -0.0960 -0.4288  0.4691
   35MOL   H36916077   1.044   3.718   6.883 -1.3031  0.6620  0.2481
   35MOL   O37016078   1.128   3.306   6.323 -0.8549 -0.3786  0.3459
   35MOL   C37116079   1.092   3.356   6.191 -0.1126  0.7339 -0.2069
   35MOL   C37216080   1.123   3.504   6.172 -0.7906  0.2124  0.2272
   35MOL   O37316081   1.173   3.527   6.047 -0.2235 -0.1703  0.2373
   35MOL   C37416082   1.099   3.573   5.949 -0.3485 -0.9940 -0.6739
   35MOL   O37516083   0.978   3.579   5.955 -0.0447 -1.2746 -0.0219
   35MOL   C37616084   1.177   3.619   5.830  0.0407  0.1401 -0.3678
   35MOL   C37716085   1.117   3.672   5.713 -0.1065 -0.0718  0.8779
   35MOL   C37816086   1.191   3.727   5.609 -0.0184 -0.2130  0.4060
   35MOL   C37916087   1.334   3.707   5.604 -0.2158 -0.3238 -0.7975
   35MOL   C38016088   1.407   3.757   5.485 -0.4878  0.6586 -0.2755
   35MOL   O38116089   1.350   3.796   5.381 -0.0902  0.1577  0.0780
   35MOL   O38216090   1.539   3.752   5.509  0.2685  0.6979  0.1970
   35MOL   C38316091   1.400   3.639   5.710  0.0917  1.1175  0.9421
   35MOL   C38416092   1.319   3.607   5.822 -0.6885 -0.5506  0.9837
   35MOL   H38516093   1.164   3.310   6.123 -1.3210  1.4719 -2.0287
   35MOL   H38616094   0.992   3.335   6.152 -0.7789  1.1030  1.2828
   35MOL   H38716095   1.208   3.532   6.234  2.1023  0.3304 -3.6499
   35MOL   H38816096   1.042   3.570   6.204 -1.3691 -0.7074  0.6917
   35MOL   H38916097   1.010   3.664   5.696  0.4135 -2.5647 -1.5562
   35MOL   H39016098   1.142   3.765   5.520 -1.1066 -1.1033  0.6131
   35MOL   H39116099   1.506   3.619   5.701 -0.0374  0.6217  0.5085
   35MOL   H39216100   1.379   3.567   5.903  1.1738  0.7628  0.3027
   35MOL   O39316101   1.612   3.856   5.440 -0.2615 -0.0370 -0.0293
   35MOL   C39416102   1.684   3.928   5.534 -0.4288 -0.1796 -1.0713
   35MOL   C39516103   1.607   4.047   5.594 -0.1014  0.5814  0.0163
   35MOL   O39616104   1.536   4.010   5.709  1.3856 -0.3595  0.5259
   35MOL   C39716105   1.418   4.075   5.738 -0.2194  0.3960 -0.3168
   35MOL   O39816106   1.375   4.168   5.669  0.3183 -0.1530 -0.2926
   35MOL   C39916107   1.351   4.027   5.861  0.8211  0.2635 -0.3041
   35MOL   C40016108   1.224   4.078   5.901  0.2251  0.4695 -0.0376
   35MOL   C40116109   1.169   4.045   6.026  0.5595  1.2951  0.1048
   35MOL   C40216110   1.228   3.946   6.105  0.3978  0.0656 -0.0686
   35MOL   C40316111   1.159   3.897   6.227  0.1746 -0.4101 -0.0019
   35MOL   O40416112   1.213   3.844   6.320  0.1952  0.2939 -0.0600
   35MOL   O40516113   1.031   3.934   6.233 -0.0639 -0.1712 -0.0486
   35MOL   C40616114   1.345   3.882   6.061  0.6346 -0.4217 -0.3509
   35MOL   C40716115   1.405   3.929   5.943 -0.2212 -0.1538 -0.2157
   35MOL   H40816116   1.727   3.857   5.606  3.4174  1.3334 -1.7306
   35MOL   H40916117   1.766   3.973   5.479 -2.1386  0.3738 -3.2113
   35MOL   H41016118   1.554   4.080   5.505  1.3423  0.4246 -0.9206
   35MOL   H41116119   1.679   4.124   5.620  2.7904 -1.3032 -2.0381
   35MOL   H41216120   1.173   4.145   5.833  0.0128 -1.0968 -1.4410
   35MOL   H41316121   1.077   4.086   6.066 -0.8738 -0.0034 -1.7872
   35MOL   H41416122   1.386   3.805   6.125 -2.2811 -3.0186 -1.5024
   35MOL   H41516123   1.502   3.888   5.917 -0.8960 -1.5685 -0.5575
   35MOL   O41616124   0.969   3.928   6.366 -0.5034 -0.2820  0.1738
   35MOL   C41716125   0.902   3.806   6.383  0.2128  0.7970  0.2562
   35MOL   C41816126   0.848   3.797   6.529  0.0792  0.5494 -0.0435
   35MOL   O41916127   0.730   3.874   6.546  0.2860  0.5923  0.5860
   35MOL   C42016128   0.684   3.917   6.656 -0.6435 -0.4819 -0.4057
   35MOL   O42116129   0.747   3.907   6.768 -0.0114  0.7682 -0.3904
   35MOL   C42216130   0.540   3.963   6.631 -0.2792  0.6321 -0.3581
   35MOL   C42316131   0.476   3.945   6.504 -0.6833 -0.4966 -0.0876
   35MOL   C42416132   0.338   3.980   6.486 -0.5527  0.8959 -0.3162
   35MOL   C42516133   0.264   4.028   6.598  0.0397 -0.7542 -0.6298
   35MOL   C42616134   0.116   4.060   6.575 -1.0117  0.1522  0.0630
   35MOL   O42716135   0.041   4.076   6.669 -1.2470  0.2335  0.1940
   35MOL   O42816136   0.084   4.071   6.451  0.3771 -0.7328 -0.0305
   35MOL   C42916137   0.335   4.044   6.721 -0.3443 -0.2953  0.1042
   35MOL   C43016138   0.468   4.013   6.737  0.3019 -0.8523 -0.3241
   35MOL   H43116139   0.819   3.800   6.313 -0.0300  0.5983  0.5586
   35MOL   H43216140   0.966   3.719   6.363 -0.7945  0.0843  0.0815
   35MOL   H43316141   0.925   3.820   6.603  1.0777 -1.7616 -0.3417
   35MOL   H43416142   0.831   3.690   6.541  0.5921  0.4669 -0.0078
   35MOL   H43516143   0.527   3.915   6.414  0.4381 -0.5883  0.5719
   35MOL   H43616144   0.310   3.956   6.385 -1.6197  0.5931  0.0475
   35MOL   H43716145   0.287   4.090   6.806  1.9399  1.9529  0.2257
   35MOL   H43816146   0.517   4.035   6.831 -2.9206  1.4950  0.9140
   35MOL   O43916147   8.230   4.147   6.433 -0.0316 -0.0766  0.3683
   35MOL   C44016148   8.121   4.049   6.428 -0.8830  0.5444  0.6994
   35MOL   C44116149   7.988   4.101   6.369  0.0071  0.5514 -0.1898
   35MOL   O44216150   8.019   4.113   6.229  0.5566 -0.7957 -0.4873
   35MOL   C44316151   7.944   4.189   6.148  0.3940  0.4318  0.6209
   35MOL   O44416152   7.835   4.232   6.176  0.3344  0.0365  0.1381
   35MOL   C44516153   7.998   4.194   6.008  0.7895  0.3476 -0.4003
   35MOL   C44616154   7.935   4.272   5.908  0.2587  0.2410  0.5438
   35MOL   C44716155   7.973   4.258   5.773  0.3397 -0.2274  0.1636
   35MOL   C44816156   8.083   4.183   5.735 -0.6959  0.0261 -0.3488
   35MOL   C44916157   8.109   4.160   5.591 -0.0395  0.3297 -0.0760
   35MOL   O45016158   8.067   4.237   5.504  0.3272  0.2720  0.2983
   35MOL   O45116159   8.197   4.060   5.568 -0.1744  0.0414  0.1821
   35MOL   C45216160   8.164   4.128   5.840  1.1523 -0.7551 -0.1432
   35MOL   C45316161   8.117   4.123   5.973  0.2946 -0.1707 -0.0999
   35MOL   H45416162   8.152   3.969   6.360  2.5262  1.4595  1.0978
   35MOL   H45516163   8.106   3.994   6.520 -0.9633 -1.7435 -0.6344
   35MOL   H45616164   7.948   4.193   6.412  0.4671 -0.2735  2.0640
   35MOL   H45716165   7.909   4.028   6.384  1.8833 -1.4530  0.1218
   35MOL   H45816166   7.842   4.322   5.929 -0.8255 -0.7598 -1.6384
   35MOL   H45916167   7.909   4.302   5.697 -0.8346 -0.4376  1.0103
   35MOL   H46016168   8.249   4.061   5.840 -0.8214 -3.3234 -0.1724
   35MOL   H46116169   8.171   4.064   6.046 -1.0594  0.7841  1.7090
   35MOL   H46216170   8.210   4.070   5.475 -2.7457 -1.5176 -0.3973
   36MOL     O116171   0.349   5.218   6.767  0.3280 -0.5585  0.5620
   36MOL     C216172   0.346   5.183   6.626 -0.3638 -0.2370  0.5111
   36MOL     C316173   0.304   5.036   6.599 -0.0434 -0.3025 -0.1503
   36MOL     O416174   0.416   4.950   6.607 -0.3387  0.0922 -0.2709
   36MOL     C516175   0.458   4.912   6.727  0.3130 -0.8730  0.5614
   36MOL     O616176   0.410   4.953   6.832  0.0439 -1.0894 -0.4756
   36MOL     C716177   0.584   4.823   6.723  0.4996  0.0986 -0.7195
   36MOL     C816178   0.637   4.765   6.843  0.2019  0.2834 -0.8650
   36MOL     C916179   0.745   4.675   6.837  0.2984 -0.3115  0.1629
   36MOL    C1016180   0.801   4.643   6.714  0.2892  0.5063  0.3299
   36MOL    C1116181   0.921   4.553   6.715 -0.5819 -0.3306  0.3530
   36MOL    O1216182   0.960   4.494   6.817 -0.2513 -0.6698  0.4308
   36MOL    O1316183   0.983   4.549   6.589 -0.0444 -0.1567  0.5442
   36MOL    C1416184   0.746   4.693   6.592 -0.1339  0.0172 -0.1590
   36MOL    C1516185   0.638   4.782   6.599 -0.4804  0.2667  0.3471
   36MOL    H1616186   0.282   5.252   6.571 -1.9842 -0.0344  2.5848
   36MOL    H1716187   0.436   5.207   6.570 -0.5131  1.7822  1.1155
   36MOL    H1816188   0.247   5.040   6.506  0.7100  0.2658 -0.5903
   36MOL    H1916189   0.227   5.013   6.673  0.8271 -0.2738  0.7844
   36MOL    H2016190   0.598   4.797   6.939 -1.9745  1.8882 -2.2480
   36MOL    H2116191   0.788   4.624   6.921  0.1825  0.6580  0.8271
   36MOL    H2216192   0.800   4.676   6.500 -0.4600 -1.6423 -0.0612
   36MOL    H2316193   0.602   4.819   6.504 -0.7885 -1.2490 -0.1486
   36MOL    H2416194   0.362   5.139   6.818  1.2521 -0.0419  1.1347
   36MOL    O2516195   1.107   4.473   6.589 -0.0574 -0.1133  0.3616
   36MOL    C2616196   1.215   4.548   6.643  0.4807 -0.6993 -0.2918
   36MOL    C2716197   1.340   4.538   6.559  0.4332 -0.7179  0.4436
   36MOL    O2816198   1.443   4.452   6.613  0.3653 -0.2674  0.3661
   36MOL    C2916199   1.551   4.438   6.538  0.0394  0.3268  0.2406
   36MOL    O3016200   1.560   4.470   6.420 -0.2057  0.5678  0.1767
   36MOL    C3116201   1.664   4.372   6.609  1.0018  0.2092  0.0902
   36MOL    C3216202   1.654   4.342   6.748  0.2366  0.3000 -0.2941
   36MOL    C3316203   1.757   4.273   6.810  0.2643 -0.3242  0.0355
   36MOL    C3416204   1.871   4.228   6.738 -0.8037 -0.2515  0.7678
   36MOL    C3516205   1.978   4.146   6.806  0.6543  0.0413 -0.0494
   36MOL    O3616206   2.085   4.120   6.751 -0.2707 -0.0431  0.1533
   36MOL    O3716207   1.952   4.107   6.936  0.4624 -0.8993 -0.6393
   36MOL    C3816208   1.884   4.271   6.601 -0.1240  0.9245  0.6111
   36MOL    C3916209   1.777   4.335   6.540 -0.4175 -0.7272  0.1660
   36MOL    H4016210   1.198   4.656   6.651  0.8401 -0.6652  0.0266
   36MOL    H4116211   1.248   4.517   6.742 -1.3880 -0.3079  0.4927
   36MOL    H4216212   1.378   4.634   6.523  0.1003 -1.4721 -2.0024
   36MOL    H4316213   1.298   4.491   6.470  0.5558  1.3547 -0.7441
   36MOL    H4416214   1.567   4.368   6.807  1.1338  0.8209  0.8110
   36MOL    H4516215   1.748   4.249   6.915  0.1013  0.2043  0.1459
   36MOL    H4616216   1.968   4.244   6.538  0.2722  2.3568  0.5182
   36MOL    H4716217   1.793   4.367   6.438 -1.6394  2.0277  0.7895
   36MOL    O4816218   2.054   4.017   6.995  0.1680  0.6235 -0.0559
   36MOL    C4916219   2.119   4.086   7.097 -0.3842  0.2522  0.1807
   36MOL    C5016220   2.210   3.984   7.175  0.2538  0.3361  0.1911
   36MOL    O5116221   2.284   4.064   7.267 -0.5450  0.5662  0.2860
   36MOL    C5216222   2.235   4.114   7.375  0.4947 -0.5623  0.4037
   36MOL    O5316223   2.127   4.076   7.418  0.5585 -0.1932  0.5809
   36MOL    C5416224   2.304   4.236   7.424 -0.3439  0.2242 -0.0358
   36MOL    C5516225   2.260   4.306   7.543 -0.0944 -0.1953  0.1436
   36MOL    C5616226   2.331   4.416   7.588  0.5521  0.1265  0.5798
   36MOL    C5716227   2.449   4.456   7.521 -0.0512  0.3624 -0.4993
   36MOL    C5816228   2.529   4.565   7.586 -0.4979  0.4218  0.2675
   36MOL    O5916229   2.488   4.637   7.682 -0.2905 -0.3774 -0.2096
   36MOL    O6016230   2.647   4.574   7.520 -0.1854  0.1419  0.5957
   36MOL    C6116231   2.501   4.389   7.412 -0.0961 -0.5390 -0.1570
   36MOL    C6216232   2.428   4.280   7.365 -0.0126  0.0412 -0.1477
   36MOL    H6316233   2.186   4.161   7.056 -1.1837  0.2988 -1.0559
   36MOL    H6416234   2.044   4.139   7.157 -1.4940 -2.6442  1.4885
   36MOL    H6516235   2.269   3.931   7.100  0.0364 -1.0456  0.9833
   36MOL    H6616236   2.153   3.906   7.226  1.2743 -1.0615 -0.7659
   36MOL    H6716237   2.165   4.275   7.585  0.1987  0.1558  1.0571
   36MOL    H6816238   2.300   4.467   7.678  1.9390 -1.1252  1.7963
   36MOL    H6916239   2.589   4.409   7.353 -0.8063  0.1414 -1.0007
   36MOL    H7016240   2.459   4.226   7.276 -1.2040 -1.3045  0.2242
   36MOL    O7116241   2.746   4.683   7.568  0.2531 -0.5931 -0.7043
   36MOL    C7216242   2.742   4.801   7.488 -0.1180 -0.5292  0.0679
   36MOL    C7316243   2.874   4.890   7.529  0.0621  0.9551 -1.1094
   36MOL    O7416244   2.866   4.919   7.672 -0.5225  0.2712  0.0041
   36MOL    C7516245   2.812   5.037   7.708  0.2343 -0.7154  0.3931
   36MOL    O7616246   2.781   5.126   7.627 -0.4168  0.1951  0.6400
   36MOL    C7716247   2.805   5.051   7.858  0.4425  0.6658  0.2894
   36MOL    C7816248   2.753   5.172   7.908 -0.2529  0.0811  0.4299
   36MOL    C7916249   2.726   5.181   8.043  0.5401 -0.0415 -0.1744
   36MOL    C8016250   2.761   5.077   8.132 -0.5374 -0.3158  0.1852
   36MOL    C8116251   2.762   5.098   0.010  0.0727  0.3941 -0.7245
   36MOL    O8216252   2.855   5.161   0.072  0.4377  0.4009 -0.1494
   36MOL    O8316253   2.657   5.034   0.063 -0.1749 -0.2725  0.0391
   36MOL    C8416254   2.829   4.965   8.080  1.0393 -0.4761  0.2313
   36MOL    C8516255   2.848   4.954   7.942  0.0104 -0.6836 -0.1441
   36MOL    H8616256   2.734   4.753   7.391 -1.3972 -1.0029  0.4014
   36MOL    H8716257   2.649   4.854   7.508  0.0552 -0.4215  0.5907
   36MOL    H8816258   2.878   4.978   7.465 -1.2295  1.6898 -0.2332
   36MOL    H8916259   2.961   4.829   7.506 -0.3764 -0.5211  0.9475
   36MOL    H9016260   2.730   5.248   7.835  0.9834  1.1472  1.1428
   36MOL    H9116261   2.692   5.275   8.083  1.6548  0.6615 -0.8577
   36MOL    H9216262   2.878   4.886   8.136  0.4953 -1.9762 -1.3461
   36MOL    H9316263   2.892   4.867   7.896 -1.0713 -0.4388 -1.6986
   36MOL    O9416264   2.588   4.939   8.252 -0.0143 -0.2831  0.0014
   36MOL    C9516265   2.633   4.808   0.012  0.0323  0.6555 -0.1081
   36MOL    C9616266   2.625   4.699   8.177 -0.2068  0.1554 -0.2476
   36MOL    O9716267   2.507   4.625   8.177  0.4890 -0.6154 -0.4388
   36MOL    C9816268   2.487   4.530   8.084 -0.5062 -0.0190 -0.4950
   36MOL    O9916269   2.578   4.508   8.006 -0.0692 -0.1242  0.1836
   36MOL   C10016270   2.357   4.458   8.103 -0.3954  0.0802  0.6672
   36MOL   C10116271   2.264   4.480   8.209 -0.3025 -0.4898  0.0685
   36MOL   C10216272   2.142   4.414   8.202  0.9965 -0.3725 -0.5152
   36MOL   C10316273   2.101   4.334   8.093 -0.0743 -0.6813 -0.1844
   36MOL   C10416274   1.967   4.270   8.107 -0.7379  0.4673  0.0025
   36MOL   O10516275   1.890   4.284   8.201 -0.0500 -0.8682 -0.1656
   36MOL   O10616276   1.938   4.182   8.002 -0.5821  1.0400 -0.1879
   36MOL   C10716277   2.190   4.313   7.984 -0.2661 -0.2627  0.1579
   36MOL   C10816278   2.320   4.368   7.997  0.4191 -1.1029  0.1098
   36MOL   H10916279   2.737   4.825   0.040 -0.3710 -0.0156  1.8698
   36MOL   H11016280   2.584   4.781   0.106  1.2151 -3.0115 -0.4725
   36MOL   H11116281   2.709   4.631   8.188 -0.8987 -0.4538  1.3304
   36MOL   H11216282   2.642   4.744   8.079 -0.0931  0.9077  0.1176
   36MOL   H11316283   2.294   4.535   0.022  2.3210 -1.1947 -0.3703
   36MOL   H11416284   2.088   4.411   0.020  0.3976 -0.1269 -0.8537
   36MOL   H11516285   2.163   4.262   7.893  0.2052 -1.6266  0.7724
   36MOL   H11616286   2.386   4.348   7.914 -0.6254  0.5950 -1.1397
   36MOL   O11716287   1.803   4.128   8.008 -0.0229  0.0524 -0.1494
   36MOL   C11816288   1.729   4.175   7.894 -0.0936 -0.3586  0.1190
   36MOL   C11916289   1.611   4.088   7.856 -0.4672  0.0935  0.0809
   36MOL   O12016290   1.659   4.009   7.747 -0.2587  0.3308 -0.7263
   36MOL   C12116291   1.578   3.970   7.656 -0.5253 -0.2519 -0.4212
   36MOL   O12216292   1.459   3.992   7.659 -0.0131 -0.3668 -0.6883
   36MOL   C12316293   1.648   3.906   7.543  0.5081  1.7574 -0.6189
   36MOL   C12416294   1.793   3.917   7.536  0.6491  1.0962 -0.3228
   36MOL   C12516295   1.865   3.858   7.436  0.1953  0.3190  0.2746
   36MOL   C12616296   1.794   3.792   7.330  0.8460  0.5345  0.5519
   36MOL   C12716297   1.878   3.745   7.214  0.4780  0.0874 -1.1541
   36MOL   O12816298   2.002   3.719   7.225 -0.4539  0.2266 -0.1435
   36MOL   O12916299   1.807   3.726   7.105 -0.0848 -0.1608 -0.5686
   36MOL   C13016300   1.648   3.774   7.338 -0.2961  0.3837 -0.2485
   36MOL   C13116301   1.573   3.835   7.444 -0.1353 -0.6174 -0.0335
   36MOL   H13216302   1.688   4.267   7.938 -1.4217 -1.3683  1.0257
   36MOL   H13316303   1.801   4.201   7.816 -0.5121  3.7840  0.9624
   36MOL   H13416304   1.529   4.151   7.821 -0.3754 -0.9997 -2.1807
   36MOL   H13516305   1.573   4.021   7.933 -1.8759  0.7593 -0.0240
   36MOL   H13616306   1.853   3.976   7.603  0.6961 -0.2267  0.8345
   36MOL   H13716307   1.969   3.885   7.427  0.2627  0.9891  2.7330
   36MOL   H13816308   1.592   3.721   7.263  0.7382  0.4269 -1.0559
   36MOL   H13916309   1.466   3.823   7.434  0.2739 -3.4092 -1.4489
   36MOL   O14016310   1.881   3.642   6.998  0.5740  0.2547 -0.0351
   36MOL   C14116311   1.939   3.734   6.904  0.6961  0.3507  0.3704
   36MOL   C14216312   1.963   3.673   6.774 -0.2234 -0.3228 -0.3928
   36MOL   O14316313   2.028   3.754   6.681  0.4775 -0.4121  0.4516
   36MOL   C14416314   2.054   3.704   6.560  0.0264 -0.5916  0.6861
   36MOL   O14516315   2.032   3.588   6.522 -0.3075  0.1827  0.0331
   36MOL   C14616316   2.113   3.805   6.464  0.6029 -0.1236  0.6937
   36MOL   C14716317   2.160   3.758   6.339 -0.8822  0.0526  0.1050
   36MOL   C14816318   2.226   3.850   6.252 -0.4897 -0.7506 -0.4061
   36MOL   C14916319   2.253   3.983   6.290  0.2383  0.0783  0.1825
   36MOL   C15016320   2.345   4.075   6.214 -0.2231 -0.6109  0.2864
   36MOL   O15116321   2.362   4.192   6.228 -0.0774  0.4868 -0.5198
   36MOL   O15216322   2.410   4.010   6.120 -0.3530  0.1513  0.9723
   36MOL   C15316323   2.203   4.034   6.411  0.1121  0.7948 -0.7650
   36MOL   C15416324   2.134   3.943   6.498  0.0246 -0.2663  0.1378
   36MOL   H15516325   1.863   3.812   6.904 -2.2322 -2.3964  1.2325
   36MOL   H15616326   2.030   3.769   6.952  0.8833  0.3886 -0.0153
   36MOL   H15716327   1.868   3.635   6.734 -0.6514  0.6689 -0.3175
   36MOL   H15816328   2.027   3.585   6.786 -0.4207 -0.0977  2.6520
   36MOL   H15916329   2.138   3.657   6.307  0.7820 -0.5510  0.7608
   36MOL   H16016330   2.272   3.802   6.167  0.0591 -1.2844  0.1802
   36MOL   H16116331   2.219   4.138   6.433  0.8105  1.0662 -2.5316
   36MOL   H16216332   2.086   3.975   6.589  2.4933  1.4265  0.8915
   36MOL   O16316333   2.504   4.094   6.032 -0.1066  0.2467  0.2957
   36MOL   C16416334   2.632   4.091   6.090 -0.7992 -0.6496  0.5551
   36MOL   C16516335   2.737   4.157   6.004  0.8902  0.3779  0.6492
   36MOL   O16616336   2.861   4.102   6.006 -0.5289  0.2740  0.3549
   36MOL   C16716337   2.945   4.118   6.115  0.4693  0.1490 -0.6974
   36MOL   O16816338   2.906   4.172   6.223  0.8948  0.1171  0.6860
   36MOL   C16916339   3.088   4.077   6.104 -0.2347  0.0601  0.3070
   36MOL   C17016340   3.171   4.072   6.217 -0.2071 -0.5381 -0.0673
   36MOL   C17116341   3.306   4.030   6.206  0.4491  0.2958  0.6980
   36MOL   C17216342   3.351   3.996   6.080 -1.2928 -0.6197  0.2250
   36MOL   C17316343   3.495   3.983   6.053 -0.4777 -0.1917 -0.1519
   36MOL   O17416344   3.542   3.982   5.938 -0.2102 -0.2404  0.1499
   36MOL   O17516345   3.577   3.967   6.160 -0.5442  0.2301 -0.4077
   36MOL   C17616346   3.271   4.004   5.961  0.2353 -0.4150  0.5377
   36MOL   C17716347   3.138   4.047   5.974 -0.0557 -0.2984 -0.1785
   36MOL   H17816348   2.635   4.141   6.187  1.9130 -0.6949  0.5290
   36MOL   H17916349   2.647   3.983   6.090  0.9256 -0.4164  1.3946
   36MOL   H18016350   2.743   4.256   6.047 -2.1350  0.1719  1.6241
   36MOL   H18116351   2.710   4.148   5.898  1.1663  0.5625  0.5629
   36MOL   H18216352   3.142   4.103   6.316 -0.4425 -2.8810  0.6335
   36MOL   H18316353   3.371   4.029   6.292 -0.1105  2.0326  1.1594
   36MOL   H18416354   3.315   3.992   5.864 -1.4550 -0.2961 -0.2539
   36MOL   H18516355   3.073   4.061   5.889  0.0335 -0.2911 -0.2461
   36MOL   O18616356   3.718   3.920   6.139  0.4928  0.3085  0.3876
   36MOL   C18716357   3.720   3.778   6.113 -0.2777  0.0996  0.5413
   36MOL   C18816358   3.704   3.701   6.250  0.2939 -0.4536  0.3698
   36MOL   O18916359   3.565   3.697   6.282  0.1817  0.3284  0.7007
   36MOL   C19016360   3.517   3.718   6.402 -0.6272 -0.5205 -0.6411
   36MOL   O19116361   3.580   3.757   6.498 -0.0155 -0.2609  0.4023
   36MOL   C19216362   3.375   3.693   6.412  0.0684 -0.0621 -0.4276
   36MOL   C19316363   3.309   3.717   6.536 -0.1544 -0.3322 -0.0728
   36MOL   C19416364   3.169   3.702   6.548 -0.1048 -0.2624 -0.2313
   36MOL   C19516365   3.086   3.662   6.441  0.2128 -0.5385 -0.1786
   36MOL   C19616366   2.939   3.671   6.453 -0.0359 -0.2555  0.1753
   36MOL   O19716367   2.879   3.716   6.550  0.0841  0.3161  0.2104
   36MOL   O19816368   2.881   3.619   6.343 -0.0590 -0.9835  0.5215
   36MOL   C19916369   3.152   3.634   6.319 -0.1373 -0.0179 -0.2282
   36MOL   C20016370   3.293   3.642   6.307 -0.6191  0.4283  0.4283
   36MOL   H20116371   3.656   3.733   6.038 -2.5383  1.8210  1.3830
   36MOL   H20216372   3.818   3.763   6.067 -0.9011  0.3878 -0.8724
   36MOL   H20316373   3.754   3.755   6.331  0.8613  2.0330 -1.5693
   36MOL   H20416374   3.748   3.602   6.240 -0.0000 -0.7397  1.8651
   36MOL   H20516375   3.354   3.761   6.624  0.0947  0.3194 -0.5246
   36MOL   H20616376   3.126   3.732   6.642 -0.1269 -0.2699 -0.2391
   36MOL   H20716377   3.095   3.602   6.233  1.0254 -0.3525 -0.8897
   36MOL   H20816378   3.326   3.608   6.210 -3.0864  2.5581 -1.2230
   36MOL   O20916379   2.734   3.643   6.332 -0.1566  0.1205  0.4843
   36MOL   C21016380   2.705   3.717   6.213  0.2340 -0.1884  0.1095
   36MOL   C21116381   2.735   3.633   6.093  0.6520 -0.3890 -0.0488
   36MOL   O21216382   2.731   3.705   5.976  0.3199 -0.2288 -0.0058
   36MOL   C21316383   2.846   3.761   5.935  0.3031 -0.0582 -0.0887
   36MOL   O21416384   2.949   3.750   5.997 -0.1789  0.4550  0.7393
   36MOL   C21516385   2.830   3.852   5.816 -0.3072 -0.1891  1.1311
   36MOL   C21616386   2.705   3.886   5.755  0.0210  0.2033  0.0657
   36MOL   C21716387   2.705   3.968   5.643  0.8679 -0.2764 -0.3123
   36MOL   C21816388   2.822   4.018   5.588 -0.6569  0.4461 -0.5707
   36MOL   C21916389   2.814   4.115   5.479  0.2602  0.6459 -0.4580
   36MOL   O22016390   2.715   4.149   5.418 -0.1040  0.0038 -0.0777
   36MOL   O22116391   2.932   4.177   5.457  0.2525 -0.1483 -0.1269
   36MOL   C22216392   2.947   3.967   5.635 -0.0453 -0.5260  0.3203
   36MOL   C22316393   2.951   3.883   5.749 -0.4370  0.1111 -0.3604
   36MOL   H22416394   2.600   3.748   6.220  0.0277 -0.9960  0.6174
   36MOL   H22516395   2.752   3.816   6.217  0.4956 -0.3030 -0.1145
   36MOL   H22616396   2.656   3.558   6.079  1.5815 -1.3389 -0.3218
   36MOL   H22716397   2.836   3.593   6.104  0.2000 -1.9872 -1.3805
   36MOL   H22816398   2.611   3.845   5.787  0.7741 -1.7307 -0.1018
   36MOL   H22916399   2.605   3.992   5.611  0.0254 -2.5991  0.4918
   36MOL   H23016400   3.042   3.991   5.590  0.8170 -2.3813  1.1176
   36MOL   H23116401   3.048   3.854   5.787  0.2179  0.6991 -1.5535
   36MOL   O23216402   2.936   4.266   5.345 -0.0893  0.9688  0.2394
   36MOL   C23316403   2.947   4.399   5.390 -0.6983  0.5307  0.1125
   36MOL   C23416404   2.838   4.469   5.325  0.0865 -0.8283  0.2427
   36MOL   O23516405   2.856   4.606   5.355  0.4610  0.4940 -0.0419
   36MOL   C23616406   2.777   4.685   5.275  0.3818 -0.0089 -0.2557
   36MOL   O23716407   2.712   4.645   5.176  0.0502 -0.3689 -0.0585
   36MOL   C23816408   2.797   4.830   5.303 -0.2952 -0.2278 -1.2329
   36MOL   C23916409   2.879   4.872   5.410  0.0754  0.1455 -0.2534
   36MOL   C24016410   2.910   5.008   5.428 -0.2381  0.4952 -0.2967
   36MOL   C24116411   2.843   5.103   5.345 -0.4602  0.7435  0.5024
   36MOL   C24216412   2.857   5.247   5.385 -0.3581  0.1291 -0.6137
   36MOL   O24316413   2.945   5.283   5.461  0.1516 -0.4847 -0.2422
   36MOL   O24416414   2.763   5.336   5.337  0.2618 -0.2590 -0.2306
   36MOL   C24516415   2.763   5.060   5.237  0.7081 -0.4388 -0.1893
   36MOL   C24616416   2.745   4.922   5.216  0.5081 -0.3813 -0.4314
   36MOL   H24716417   2.953   4.404   5.499 -0.6243  0.7161  0.1001
   36MOL   H24816418   3.044   4.434   5.353 -0.2986 -1.0447 -0.3645
   36MOL   H24916419   2.737   4.432   5.337 -0.0439 -0.5567 -0.0404
   36MOL   H25016420   2.857   4.456   5.219  0.4505 -0.1746  0.2266
   36MOL   H25116421   2.914   4.787   5.467  1.2591  1.0435  0.3671
   36MOL   H25216422   2.968   5.038   5.513 -0.4976  0.2909 -0.0485
   36MOL   H25316423   2.711   5.131   5.174 -1.0069 -1.3553  0.1509
   36MOL   H25416424   2.687   4.896   5.129  0.9256  1.5659 -1.3304
   36MOL   O25516425   2.788   5.483   5.384  0.8051 -0.1770  0.1892
   36MOL   C25616426   2.696   5.518   5.494 -0.1254 -0.4539 -0.6530
   36MOL   C25716427   2.552   5.525   5.430 -0.1460  0.4113 -0.0650
   36MOL   O25816428   2.495   5.400   5.414  0.0600  0.2343  0.7493
   36MOL   C25916429   2.375   5.393   5.357 -0.0794  0.4241 -0.2121
   36MOL   O26016430   2.300   5.491   5.327 -0.2052  0.2503 -0.4854
   36MOL   C26116431   2.342   5.254   5.315  0.5974  0.3865 -0.3686
   36MOL   C26216432   2.219   5.212   5.254  0.3265 -0.2577 -0.7528
   36MOL   C26316433   2.191   5.083   5.213  1.0106  0.1379 -0.2975
   36MOL   C26416434   2.295   4.981   5.223 -0.4705 -0.3640 -0.2053
   36MOL   C26516435   2.275   4.846   5.159 -0.2445  0.2599  0.0858
   36MOL   O26616436   2.183   4.820   5.082  0.8797 -0.1690  0.5553
   36MOL   O26716437   2.376   4.759   5.183 -0.3057  0.3689 -0.0621
   36MOL   C26816438   2.419   5.011   5.279 -0.8279  0.1933 -0.2623
   36MOL   C26916439   2.436   5.145   5.332  1.0062  0.1642  0.2538
   36MOL   H27016440   2.694   5.447   5.576 -1.0269  1.6544  1.1723
   36MOL   H27116441   2.725   5.618   5.526  0.5136 -1.2127  1.1896
   36MOL   H27216442   2.569   5.563   5.329 -0.1365 -0.6281 -0.4615
   36MOL   H27316443   2.478   5.584   5.484  1.5791 -0.3892  3.2855
   36MOL   H27416444   2.144   5.289   5.247 -0.5252 -0.8616  1.4734
   36MOL   H27516445   2.095   5.064   5.168  0.9009 -0.3693  0.1536
   36MOL   H27616446   2.487   4.933   5.309  1.6465  1.2092 -2.9908
   36MOL   H27716447   2.529   5.155   5.387  0.6558 -1.7733  1.2080
   36MOL   O27816448   2.340   4.615   5.157 -0.3699  0.5163 -0.1635
   36MOL   C27916449   2.393   4.575   5.034 -0.1917  0.5593  0.2053
   36MOL   C28016450   2.279   4.503   4.959  0.3969 -0.0782  0.1234
   36MOL   O28116451   2.331   4.454   4.843  0.3081 -0.2602 -0.1445
   36MOL   C28216452   2.257   4.434   4.737 -0.3197  0.1225  0.2687
   36MOL   O28316453   2.143   4.468   4.721  0.6997 -0.2539 -0.5036
   36MOL   C28416454   2.335   4.359   4.634  0.0842 -0.4166  0.0142
   36MOL   C28516455   2.287   4.246   4.575  0.3099 -0.0602 -0.2103
   36MOL   C28616456   2.370   4.169   4.494 -0.3443 -0.5112  0.2993
   36MOL   C28716457   2.508   4.197   4.477 -0.0087  0.0013  0.0444
   36MOL   C28816458   2.596   4.096   4.409  0.4510 -0.3381 -0.4105
   36MOL   O28916459   2.693   4.126   4.342  0.4835  0.3344 -0.0362
   36MOL   O29016460   2.568   3.971   4.435 -0.2111  0.6621 -0.3072
   36MOL   C29116461   2.560   4.320   4.527  0.3587 -0.5060  0.1316
   36MOL   C29216462   2.470   4.398   4.607  0.0913 -0.1816 -0.8867
   36MOL   H29316463   2.418   4.660   4.971 -0.3189  0.2050 -0.3323
   36MOL   H29416464   2.489   4.525   5.045 -0.6357 -0.1121  1.0816
   36MOL   H29516465   2.193   4.569   4.945  0.3656  0.4677  2.5755
   36MOL   H29616466   2.238   4.423   5.022 -1.6739  0.8257 -0.0362
   36MOL   H29716467   2.183   4.228   4.593  0.3406 -1.0880 -1.0017
   36MOL   H29816468   2.332   4.082   4.443 -0.7100  0.7243 -1.5999
   36MOL   H29916469   2.664   4.340   4.507  0.1354 -0.0229 -0.5951
   36MOL   H30016470   2.512   4.482   4.661 -2.4710  1.5823 -1.5046
   36MOL   O30116471   2.689   3.875   4.420 -0.2971 -0.0953 -0.1817
   36MOL   C30216472   2.732   3.849   4.556  0.8606 -0.3416  0.3884
   36MOL   C30316473   2.882   3.880   4.569  1.0087 -0.1894  0.2801
   36MOL   O30416474   2.957   3.776   4.508  0.1962  0.3570 -0.1964
   36MOL   C30516475   3.003   3.681   4.582  0.2263 -0.8347  0.5150
   36MOL   O30616476   2.957   3.655   4.695  0.3043 -0.6767 -0.0692
   36MOL   C30716477   3.109   3.601   4.507  0.5279  0.2246 -0.9273
   36MOL   C30816478   3.162   3.482   4.569 -0.2993 -0.7578  0.4412
   36MOL   C30916479   3.252   3.403   4.497  0.8353 -0.2226 -0.4925
   36MOL   C31016480   3.311   3.455   4.376 -0.0429  1.2084 -0.4041
   36MOL   C31116481   3.422   3.375   4.312  0.6176 -0.1985 -0.5042
   36MOL   O31216482   3.497   3.288   4.355 -0.4953 -0.1137 -0.1378
   36MOL   O31316483   3.431   3.420   4.187  1.0049  0.1509 -0.1711
   36MOL   C31416484   3.251   3.560   4.311 -0.7133  0.0763  0.0168
   36MOL   C31516485   3.152   3.632   4.374 -0.2378 -0.9245 -0.3841
   36MOL   H31616486   2.684   3.914   4.629  1.1762  0.8228 -0.4325
   36MOL   H31716487   2.696   3.747   4.573  0.5923 -0.2986  0.0856
   36MOL   H31816488   2.914   3.898   4.672  0.3835 -2.2854  0.8670
   36MOL   H31916489   2.903   3.979   4.528  0.6333  0.7403  2.2660
   36MOL   H32016490   3.119   3.444   4.660  0.2865 -1.6532  0.3553
   36MOL   H32116491   3.295   3.313   4.538  1.9018  0.1906 -0.7019
   36MOL   H32216492   3.288   3.596   4.216  0.9228 -0.7874  0.3072
   36MOL   H32316493   3.101   3.714   4.325 -1.9204 -2.0222 -0.5235
   36MOL   O32416494   3.505   3.339   4.084 -0.7874  0.3057  0.3978
   36MOL   C32516495   3.623   3.410   4.056 -0.0796  0.7284  0.1073
   36MOL   C32616496   3.605   3.514   3.945 -0.9200 -0.3829 -0.1537
   36MOL   O32716497   3.533   3.625   3.976  0.1920  0.6202  0.1284
   36MOL   C32816498   3.592   3.729   4.029 -0.1157  0.1581 -0.2394
   36MOL   O32916499   3.712   3.728   4.057  0.0439  0.0222  0.7500
   36MOL   C33016500   3.498   3.842   4.038 -0.1160 -0.0580 -0.0679
   36MOL   C33116501   3.540   3.975   4.059  0.7538  0.5113 -0.3189
   36MOL   C33216502   3.453   4.088   4.060 -0.4574  0.1140 -0.1445
   36MOL   C33316503   3.315   4.068   4.037 -0.1239  0.3056  0.4158
   36MOL   C33416504   3.214   4.183   4.016  0.0415 -0.3401 -0.6806
   36MOL   O33516505   3.250   4.306   4.026  0.2366 -0.0731  0.2561
   36MOL   O33616506   3.089   4.142   3.987 -0.6859  0.0009 -0.0570
   36MOL   C33716507   3.263   3.931   4.027 -0.0873 -0.0814  0.0149
   36MOL   C33816508   3.351   3.818   4.024  0.3126 -0.4093  0.7331
   36MOL   H33916509   3.676   3.443   4.146  0.0404 -1.6046  0.9134
   36MOL   H34016510   3.690   3.339   4.008  1.7982  0.3908  3.0982
   36MOL   H34116511   3.551   3.470   3.861 -4.4054  2.1243  0.6404
   36MOL   H34216512   3.702   3.538   3.901 -1.7170  2.3427 -0.5211
   36MOL   H34316513   3.647   3.987   4.067  1.1456 -1.8160 -1.5944
   36MOL   H34416514   3.487   4.190   4.070  0.8269 -0.5778  2.9988
   36MOL   H34516515   3.158   3.907   4.027  0.3268 -1.9884 -0.8859
   36MOL   H34616516   3.309   3.720   4.008 -0.9917  0.3725 -0.7525
   36MOL   O34716517   2.990   4.258   3.964 -0.4618 -0.3068 -0.3194
   36MOL   C34816518   2.915   4.275   4.085  0.1509  0.2126 -0.5993
   36MOL   C34916519   2.768   4.309   4.059  0.2431 -0.5487  0.4493
   36MOL   O35016520   2.757   4.450   4.016  0.6520 -0.2737  0.1451
   36MOL   C35116521   2.693   4.483   3.900 -0.6613  0.0716 -0.7880
   36MOL   O35216522   2.655   4.406   3.813 -0.5333  0.5419 -0.3354
   36MOL   C35316523   2.693   4.632   3.888  0.4878 -0.3845 -0.1567
   36MOL   C35416524   2.603   4.705   3.806 -0.8543 -0.0942 -0.2902
   36MOL   C35516525   2.603   4.849   3.804  0.2175 -0.6558 -0.3796
   36MOL   C35616526   2.685   4.922   3.894  0.2663  0.0123  0.9909
   36MOL   C35716527   2.691   5.069   3.896 -0.2322 -0.1736 -0.3520
   36MOL   O35816528   2.650   5.147   3.813  0.5592  0.1111  0.0797
   36MOL   O35916529   2.740   5.115   4.012 -0.3613 -0.2216  0.0738
   36MOL   C36016530   2.777   4.847   3.972  0.6413 -0.0790  0.0055
   36MOL   C36116531   2.790   4.710   3.962 -0.2184 -0.5388 -0.0218
   36MOL   H36216532   2.920   4.180   4.137 -1.2122  0.5368  0.1670
   36MOL   H36316533   2.968   4.359   4.128  0.7405  0.4211 -1.7134
   36MOL   H36416534   2.718   4.297   4.155  0.7321  0.9889  0.9151
   36MOL   H36516535   2.715   4.239   3.995 -2.5064  1.1396  0.7875
   36MOL   H36616536   2.528   4.659   3.744 -2.0003  4.0859 -2.1506
   36MOL   H36716537   2.541   4.909   3.740 -1.4845 -2.4209 -0.4072
   36MOL   H36816538   2.850   4.898   4.033  1.5223 -2.2805  0.8374
   36MOL   H36916539   2.866   4.647   4.008  0.3899  0.3798  0.2614
   36MOL   O37016540   2.751   5.271   4.020  0.1870  0.3335 -0.2487
   36MOL   C37116541   2.652   5.310   4.110 -0.4378  0.8019  0.7997
   36MOL   C37216542   2.663   5.468   4.125  0.4357  0.3779  0.5712
   36MOL   O37316543   2.795   5.507   4.160 -0.0292 -0.1241  0.0482
   36MOL   C37416544   2.828   5.634   4.133 -0.0390 -0.3123  0.2914
   36MOL   O37516545   2.742   5.711   4.092 -0.2409  0.0468 -0.3651
   36MOL   C37616546   2.966   5.662   4.177  0.2720  0.3853  0.1099
   36MOL   C37716547   2.989   5.798   4.217  0.6684  0.0102  0.5598
   36MOL   C37816548   3.115   5.833   4.264 -0.2591  0.9664 -0.5695
   36MOL   C37916549   3.221   5.737   4.266  0.2056 -0.4809 -0.3367
   36MOL   C38016550   3.353   5.785   4.306 -0.1144 -0.2423 -0.0658
   36MOL   O38116551   3.371   5.899   4.347 -0.1471  0.0371 -0.0763
   36MOL   O38216552   3.454   5.687   4.288  0.9079 -0.1267  0.3312
   36MOL   C38316553   3.194   5.610   4.227 -0.8271  0.4371 -0.4964
   36MOL   C38416554   3.069   5.566   4.174 -0.1244 -0.0048  0.6494
   36MOL   H38516555   2.561   5.267   4.069 -0.2559  1.6537 -0.5413
   36MOL   H38616556   2.665   5.255   4.203  1.6472  0.4570  0.3405
   36MOL   H38716557   2.584   5.499   4.193 -0.2238  0.2142 -0.1084
   36MOL   H38816558   2.622   5.511   4.033 -0.1131 -0.3138  0.4890
   36MOL   H38916559   2.918   5.880   4.219 -0.4240 -0.9556  2.3507
   36MOL   H39016560   3.125   5.936   4.294 -1.3433  1.1211 -0.7187
   36MOL   H39116561   3.269   5.534   4.246 -1.8682  0.0339  2.3440
   36MOL   H39216562   3.055   5.463   4.146 -0.0575 -0.2383  1.4724
   36MOL   O39316563   3.586   5.735   4.336 -0.7097  0.5866  0.1090
   36MOL   C39416564   3.666   5.739   4.224  0.8527  0.2326 -0.4368
   36MOL   C39516565   3.710   5.600   4.181 -0.2922 -0.3805  0.5017
   36MOL   O39616566   3.663   5.563   4.053 -0.2677  0.5690  0.5441
   36MOL   C39716567   3.554   5.487   4.036 -0.1190  0.3297  0.2189
   36MOL   O39816568   3.492   5.431   4.123  0.1004  0.4097  0.1179
   36MOL   C39916569   3.513   5.478   3.889 -0.2087  0.4558 -0.2558
   36MOL   C40016570   3.430   5.373   3.843 -0.0433  0.0663  0.0603
   36MOL   C40116571   3.407   5.355   3.705 -0.5179  0.6671 -0.1088
   36MOL   C40216572   3.464   5.446   3.611 -0.3441 -0.2098 -0.3934
   36MOL   C40316573   3.453   5.429   3.466  0.1703 -0.1648 -0.2683
   36MOL   O40416574   3.513   5.496   3.382 -0.6621  0.6980 -0.2155
   36MOL   O40516575   3.373   5.331   3.433 -0.0307 -0.4462 -0.7723
   36MOL   C40616576   3.542   5.550   3.657 -0.8144 -0.2451 -0.3313
   36MOL   C40716577   3.574   5.560   3.795  0.2647  0.1841  0.6666
   36MOL   H40816578   3.623   5.792   4.138 -0.2699  2.2474  1.3291
   36MOL   H40916579   3.751   5.798   4.259 -0.3466  1.2245  0.8693
   36MOL   H41016580   3.701   5.517   4.252  2.5879 -2.5381 -1.5408
   36MOL   H41116581   3.814   5.598   4.149  0.8858 -2.8422  4.1974
   36MOL   H41216582   3.394   5.298   3.912 -1.3723 -1.6565 -2.4106
   36MOL   H41316583   3.339   5.276   3.677 -0.2931  0.6318 -0.5575
   36MOL   H41416584   3.590   5.626   3.598 -3.1462  0.6298 -1.1558
   36MOL   H41516585   3.643   5.635   3.831  0.9247  1.2239 -2.5986
   36MOL   O41616586   3.351   5.325   3.289  0.5266 -0.4231  0.2413
   36MOL   C41716587   3.431   5.212   3.241  0.3097 -0.6472  0.1607
   36MOL   C41816588   3.527   5.276   3.137  0.0888  0.1323 -0.3902
   36MOL   O41916589   3.659   5.284   3.199  0.6956  0.5323 -0.0069
   36MOL   C42016590   3.746   5.181   3.192  0.5295  0.4511  0.0873
   36MOL   O42116591   3.717   5.078   3.127 -0.2291 -0.4383  0.4284
   36MOL   C42216592   3.862   5.190   3.279 -0.0121 -0.2000 -0.9203
   36MOL   C42316593   3.956   5.082   3.279 -0.4582  0.1135  0.1951
   36MOL   C42416594   4.062   5.077   3.375  0.1969  0.0167  0.3486
   36MOL   C42516595   4.081   5.178   3.471 -0.3622 -0.0275 -0.4276
   36MOL   C42616596   4.194   5.160   3.568  0.6123  0.7509 -0.2006
   36MOL   O42716597   4.271   5.062   3.561 -0.0369 -0.0829  0.0120
   36MOL   O42816598   4.196   5.255   3.668 -0.5985  0.0280  0.5015
   36MOL   C42916599   3.995   5.295   3.471  0.3412  0.4722  0.0563
   36MOL   C43016600   3.884   5.286   3.383  1.0717 -0.0491 -0.2729
   36MOL   H43116601   3.468   5.152   3.324 -0.5508 -1.6760 -0.1799
   36MOL   H43216602   3.370   5.142   3.183  0.2208 -1.3393  1.0808
   36MOL   H43316603   3.485   5.370   3.103 -1.0590 -0.7012 -1.3545
   36MOL   H43416604   3.526   5.216   3.046 -1.2313  0.1078 -0.3642
   36MOL   H43516605   3.947   5.006   3.202  1.8231 -0.3227  0.3293
   36MOL   H43616606   4.118   4.985   3.384  0.4025  0.2813  1.8327
   36MOL   H43716607   4.005   5.370   3.549  1.0770 -0.9431  1.3394
   36MOL   H43816608   3.802   5.357   3.386  1.0041 -0.1443  0.1892
   36MOL   O43916609   4.292   5.228   3.778 -0.3085  0.5527  0.3842
   36MOL   C44016610   4.232   5.152   3.880 -0.0692 -0.6384 -0.1621
   36MOL   C44116611   4.343   5.075   3.954 -0.7684  0.4127 -0.7311
   36MOL   O44216612   4.365   4.955   3.866 -0.0617 -0.4000 -0.2958
   36MOL   C44316613   4.455   4.859   3.898  0.6725  0.2650 -0.2754
   36MOL   O44416614   4.536   4.860   3.991 -0.3497  0.3291  0.7082
   36MOL   C44516615   4.449   4.746   3.800 -0.9407  0.3096 -0.5960
   36MOL   C44616616   4.539   4.638   3.828 -0.9178  0.2236  0.4843
   36MOL   C44716617   4.537   4.520   3.744 -0.8069  0.1178 -0.4475
   36MOL   C44816618   4.469   4.521   3.621  0.3796 -0.3271  0.6498
   36MOL   C44916619   4.499   4.417   3.521 -0.3723  0.8725 -0.7522
   36MOL   O45016620   4.573   4.324   3.548  0.0911 -0.2627  0.6817
   36MOL   O45116621   4.432   4.425   3.402 -0.6779 -0.2681  0.1276
   36MOL   C45216622   4.381   4.633   3.593  0.8325 -0.3588  0.1316
   36MOL   C45316623   4.367   4.742   3.687 -0.4012 -0.8318 -0.3265
   36MOL   H45416624   4.184   5.220   3.950  0.9313 -1.0738  0.9443
   36MOL   H45516625   4.150   5.087   3.849 -1.1605  0.0709  1.1895
   36MOL   H45616626   4.301   5.054   4.052 -2.5444  0.0320 -1.5630
   36MOL   H45716627   4.431   5.139   3.955 -0.6753  0.2775 -0.0145
   36MOL   H45816628   4.598   4.635   3.919  1.0277 -0.6851 -0.7676
   36MOL   H45916629   4.607   4.440   3.760  0.8573  1.5581 -0.3277
   36MOL   H46016630   4.335   4.629   3.495 -1.2076  0.9101  0.9983
   36MOL   H46116631   4.302   4.825   3.663 -1.3567 -1.2110  0.9055
   36MOL   H46216632   4.427   4.340   3.360 -1.0033 -1.0767  1.7504
   37MOL     O116633   2.636   5.971   3.038 -0.9039 -0.1376 -0.0757
   37MOL     C216634   2.604   6.104   3.019  0.2150 -0.3192  0.3176
   37MOL     C316635   2.615   6.186   3.150  0.2770 -0.8137 -0.1384
   37MOL     O416636   2.757   6.200   3.174 -0.2382  0.1202 -0.2648
   37MOL     C516637   2.819   6.123   3.264  0.4410  0.2118 -0.4237
   37MOL     O616638   2.754   6.042   3.337  0.6521  0.1721 -0.1353
   37MOL     C716639   2.969   6.151   3.260 -0.2567 -0.1593  1.1020
   37MOL     C816640   3.059   6.065   3.320  0.3900  0.2018  0.0513
   37MOL     C916641   3.202   6.086   3.312  0.2444 -0.0953 -0.0037
   37MOL    C1016642   3.259   6.191   3.238 -0.6267 -0.2809 -0.4529
   37MOL    C1116643   3.409   6.207   3.234  0.8689  0.2404  0.1891
   37MOL    O1216644   3.485   6.123   3.271 -0.2920 -0.4891 -0.7068
   37MOL    O1316645   3.449   6.331   3.186 -0.5138 -0.0272  0.6574
   37MOL    C1416646   3.170   6.272   3.163  0.3810 -0.0332 -0.9283
   37MOL    C1516647   3.027   6.258   3.186 -0.7172 -0.1595  0.2714
   37MOL    H1616648   2.660   6.149   2.937  0.0730  1.9648  1.4345
   37MOL    H1716649   2.504   6.113   2.977  0.1298  1.4252  0.8918
   37MOL    H1816650   2.551   6.151   3.231 -1.6400  1.8622 -0.4511
   37MOL    H1916651   2.572   6.281   3.121  0.3824 -0.3023  1.3708
   37MOL    H2016652   3.014   5.986   3.378  1.1346 -2.4417 -2.8340
   37MOL    H2116653   3.269   6.018   3.362  0.4979  0.5589  0.5479
   37MOL    H2216654   3.207   6.358   3.109 -0.9570 -0.0364 -1.8770
   37MOL    H2316655   2.956   6.328   3.143 -1.3830 -1.9388 -1.6385
   37MOL    H2416656   2.598   5.925   2.965  2.4122 -2.4945 -0.4325
   37MOL    O2516657   3.595   6.365   3.216 -0.3631 -0.2363  0.5357
   37MOL    C2616658   3.593   6.442   3.332 -0.6229 -0.8922 -0.1320
   37MOL    C2716659   3.637   6.586   3.304 -0.3808  0.1562  0.4445
   37MOL    O2816660   3.681   6.639   3.424 -0.8839 -0.5041  0.3143
   37MOL    C2916661   3.622   6.748   3.481 -0.3155  1.4557 -0.3219
   37MOL    O3016662   3.511   6.784   3.442  1.0864  0.8305  0.5359
   37MOL    C3116663   3.699   6.811   3.590  0.4322  0.0039 -0.0528
   37MOL    C3216664   3.637   6.862   3.704  0.5203  0.1588  0.1387
   37MOL    C3316665   3.722   6.901   3.812 -0.3299 -0.2117 -0.3189
   37MOL    C3416666   3.866   6.900   3.801  0.4145 -0.0597 -0.2208
   37MOL    C3516667   3.947   6.916   3.930  0.2881  0.1079 -0.1761
   37MOL    O3616668   3.898   6.940   4.036 -0.6475 -0.1754 -0.5171
   37MOL    O3716669   4.084   6.904   3.905  0.7476 -0.6619 -0.3841
   37MOL    C3816670   3.924   6.869   3.677 -0.5664 -0.1761 -0.0085
   37MOL    C3916671   3.837   6.820   3.577 -1.0928 -1.3638 -0.0270
   37MOL    H4016672   3.497   6.456   3.383 -0.6518  0.9794 -0.6680
   37MOL    H4116673   3.650   6.395   3.412  0.4405  1.7556  0.7443
   37MOL    H4216674   3.555   6.647   3.266  0.9626  1.8897  0.2765
   37MOL    H4316675   3.716   6.586   3.229 -1.8478 -0.0416 -1.1345
   37MOL    H4416676   3.529   6.858   3.712  0.6406  0.0329  1.9009
   37MOL    H4516677   3.681   6.940   3.904 -0.8315  1.7507 -1.3516
   37MOL    H4616678   4.026   6.863   3.642 -0.5540  1.2283 -0.2296
   37MOL    H4716679   3.877   6.771   3.489 -2.6155 -2.8491  0.0768
   37MOL    O4816680   4.167   6.916   4.032 -0.0099  0.3681  0.1513
   37MOL    C4916681   4.200   7.046   4.068 -0.0213  0.0368  0.0361
   37MOL    C5016682   4.320   7.033   4.164  0.0361  0.3161 -0.2202
   37MOL    O5116683   4.277   6.994   4.290  0.3689  0.3159  0.1696
   37MOL    C5216684   4.363   6.982   4.394  0.6423 -0.3178  0.7028
   37MOL    O5316685   4.464   7.040   4.399 -0.1645 -0.5906  0.5066
   37MOL    C5416686   4.313   6.901   4.506 -0.6934 -0.9769 -0.0489
   37MOL    C5516687   4.384   6.876   4.624  0.3543 -0.1018  0.1836
   37MOL    C5616688   4.340   6.778   4.721 -0.1676 -0.0644  0.3358
   37MOL    C5716689   4.219   6.701   4.709  0.1671 -0.0528 -0.3933
   37MOL    C5816690   4.177   6.596   4.804  0.3475  0.0370 -0.3245
   37MOL    O5916691   4.254   6.532   4.874  0.3167  0.1107 -0.0344
   37MOL    O6016692   4.043   6.591   4.813  0.0594 -0.2662  0.1512
   37MOL    C6116693   4.143   6.735   4.594  0.7507  0.3226  0.0770
   37MOL    C6216694   4.189   6.836   4.502  0.2371  0.1133  0.2020
   37MOL    H6316695   4.216   7.100   3.975 -0.3838 -0.4102 -0.2860
   37MOL    H6416696   4.119   7.088   4.128 -1.3039  0.2092 -1.7873
   37MOL    H6516697   4.385   7.120   4.169  2.2056 -1.1336 -2.1607
   37MOL    H6616698   4.387   6.953   4.131 -0.8723 -0.9708  0.9755
   37MOL    H6716699   4.476   6.932   4.629  0.8378 -1.0342  2.5481
   37MOL    H6816700   4.402   6.761   4.808 -0.2838 -0.4339  0.3503
   37MOL    H6916701   4.045   6.691   4.580  0.7456 -0.0837  1.4056
   37MOL    H7016702   4.128   6.849   4.413 -1.0557  0.1094  1.0751
   37MOL    O7116703   4.001   6.475   4.896 -0.3304  0.2526  0.1699
   37MOL    C7216704   3.863   6.458   4.871  0.3356 -0.6524 -0.4402
   37MOL    C7316705   3.844   6.310   4.898  0.2256  0.1149  0.1034
   37MOL    O7416706   3.849   6.240   4.776 -0.3327 -0.4009 -0.5169
   37MOL    C7516707   3.740   6.235   4.688 -0.6114 -0.8029 -0.6558
   37MOL    O7616708   3.628   6.282   4.712  0.4078 -0.5360 -0.1896
   37MOL    C7716709   3.769   6.173   4.555 -0.6367  0.0634 -0.3371
   37MOL    C7816710   3.667   6.127   4.469 -0.2200  0.5222  0.0983
   37MOL    C7916711   3.700   6.081   4.342 -0.5159 -0.7193  0.2484
   37MOL    C8016712   3.836   6.080   4.297 -0.0587 -0.0136 -0.3257
   37MOL    C8116713   3.863   6.041   4.158 -0.2489 -0.1197  0.3960
   37MOL    O8216714   3.789   5.969   4.091  0.3535 -0.4952 -0.2273
   37MOL    O8316715   3.974   6.095   4.113  0.3223  0.2396  0.3227
   37MOL    C8416716   3.941   6.115   4.389 -0.0784 -0.1214  0.8139
   37MOL    C8516717   3.908   6.163   4.519  0.0526  0.7680 -0.0986
   37MOL    H8616718   3.809   6.532   4.930 -0.3960 -1.5406  0.0202
   37MOL    H8716719   3.825   6.497   4.776  0.1313 -0.0294 -0.1097
   37MOL    H8816720   3.743   6.291   4.935 -0.3284  0.0072 -1.4422
   37MOL    H8916721   3.921   6.277   4.967  1.1948  1.3161 -0.3890
   37MOL    H9016722   3.562   6.142   4.489 -0.8984 -2.0203 -1.2965
   37MOL    H9116723   3.622   6.047   4.276  0.0466 -0.4066 -0.5731
   37MOL    H9216724   4.041   6.121   4.350 -1.1101 -0.1435 -2.0130
   37MOL    H9316725   3.982   6.197   4.590  0.2837 -1.3465  0.7242
   37MOL    O9416726   4.014   6.039   3.979 -0.0378  0.4301  0.0189
   37MOL    C9516727   4.150   5.998   3.978 -0.3306 -0.1914  0.0523
   37MOL    C9616728   4.176   5.916   3.858 -0.9521 -0.0517  0.1539
   37MOL    O9716729   4.122   5.792   3.871  0.2863  0.0924  0.2145
   37MOL    C9816730   4.032   5.747   3.781  0.6113  0.2746 -0.1946
   37MOL    O9916731   4.011   5.806   3.675 -0.8314  0.2121  0.4542
   37MOL   C10016732   3.981   5.614   3.811 -0.0340 -0.0108 -0.1475
   37MOL   C10116733   4.007   5.558   3.945 -0.1815  1.2374  0.9365
   37MOL   C10216734   3.956   5.430   3.972  0.2975  0.6676  0.9308
   37MOL   C10316735   3.897   5.352   3.870  0.0174  0.0993 -0.0473
   37MOL   C10416736   3.851   5.212   3.894 -0.8275 -0.1071  0.2205
   37MOL   O10516737   3.824   5.164   4.003  0.1131 -0.3545 -0.6103
   37MOL   O10616738   3.823   5.132   3.782 -0.1208 -0.7475  0.5955
   37MOL   C10716739   3.868   5.413   3.746  0.2816 -0.0404  0.2725
   37MOL   C10816740   3.906   5.544   3.717  0.0289  0.1403 -0.2570
   37MOL   H10916741   4.212   6.088   3.983 -1.2770  0.6767 -2.7214
   37MOL   H11016742   4.179   5.938   4.064  1.1290  0.2657 -0.0899
   37MOL   H11116743   4.284   5.907   3.850 -0.5904  1.2667  3.0776
   37MOL   H11216744   4.152   5.969   3.765 -1.0177 -0.6441 -0.1722
   37MOL   H11316745   4.069   5.607   4.018 -0.4850 -0.1242  2.1170
   37MOL   H11416746   3.961   5.381   4.068  1.1451 -0.8935  0.1118
   37MOL   H11516747   3.801   5.357   3.682 -2.0226  1.5327  1.2373
   37MOL   H11616748   3.876   5.579   3.619 -0.7577 -1.0495 -0.4524
   37MOL   O11716749   3.742   5.013   3.811 -0.2115 -0.5680  0.1385
   37MOL   C11816750   3.606   5.048   3.809 -0.2466  0.0999 -1.1479
   37MOL   C11916751   3.518   4.927   3.804  0.1291 -0.1620 -0.6443
   37MOL   O12016752   3.487   4.881   3.670 -0.3802  0.1227  0.2592
   37MOL   C12116753   3.371   4.925   3.614  1.3635  0.3165  0.1329
   37MOL   O12216754   3.312   5.024   3.655  0.0221 -0.2067  0.2437
   37MOL   C12316755   3.319   4.839   3.503  0.0801  0.0409  0.5542
   37MOL   C12416756   3.224   4.882   3.404 -0.0200 -0.2777 -0.3483
   37MOL   C12516757   3.192   4.797   3.297  0.6606 -0.0271  0.3605
   37MOL   C12616758   3.255   4.671   3.285  0.1034 -0.6328  0.3873
   37MOL   C12716759   3.212   4.584   3.171 -0.4019  0.1721  0.4017
   37MOL   O12816760   3.140   4.629   3.079  0.2744  0.2159  0.5258
   37MOL   O12916761   3.261   4.453   3.185  0.4242 -0.1868 -0.4117
   37MOL   C13016762   3.338   4.625   3.389 -0.3904 -0.1558 -0.1699
   37MOL   C13116763   3.377   4.709   3.490 -0.0583 -0.2499  0.0873
   37MOL   H13216764   3.585   5.093   3.906  0.7512 -3.3691  0.7475
   37MOL   H13316765   3.579   5.115   3.727  0.9453 -1.6439 -3.0099
   37MOL   H13416766   3.423   4.950   3.851  0.9621 -0.8906  1.4575
   37MOL   H13516767   3.555   4.835   3.850  0.4360  0.2160 -0.1273
   37MOL   H13616768   3.171   4.976   3.412 -0.1804 -0.5294  2.1292
   37MOL   H13716769   3.126   4.824   3.216  1.0802  0.8882  0.3285
   37MOL   H13816770   3.379   4.526   3.379 -0.5292 -0.4529  1.9707
   37MOL   H13916771   3.450   4.675   3.563 -1.8203 -2.5938  0.8079
   37MOL   O14016772   3.209   4.364   3.072 -0.1652 -0.3230  0.2410
   37MOL   C14116773   3.099   4.291   3.120  0.8061 -0.0986 -0.3247
   37MOL   C14216774   3.158   4.153   3.147 -0.3963  0.6779  0.9310
   37MOL   O14316775   3.183   4.083   3.025  0.1081 -0.6338 -0.6546
   37MOL   C14416776   3.091   3.999   2.972 -0.1098 -0.4208 -0.0456
   37MOL   O14516777   2.973   3.994   2.995 -0.5510  0.7263 -0.2784
   37MOL   C14616778   3.152   3.914   2.862  0.3062  0.0462  0.7482
   37MOL   C14716779   3.101   3.892   2.733  0.8985  0.4076  0.8119
   37MOL   C14816780   3.164   3.803   2.641 -0.1099  0.8638 -0.0327
   37MOL   C14916781   3.278   3.733   2.686 -0.0899 -0.0558  0.1018
   37MOL   C15016782   3.352   3.640   2.600  1.1795  0.1050  0.8915
   37MOL   O15116783   3.455   3.587   2.640  0.0850  0.4013 -0.0380
   37MOL   O15216784   3.298   3.624   2.476 -0.1444 -0.0542 -0.4004
   37MOL   C15316785   3.330   3.751   2.814  0.3011 -0.2598 -0.1613
   37MOL   C15416786   3.264   3.838   2.901 -0.5666  0.4515 -0.8455
   37MOL   H15516787   3.068   4.339   3.213  2.7706 -1.0238  0.8470
   37MOL   H15616788   3.016   4.283   3.051  1.2184 -0.6891 -0.7569
   37MOL   H15716789   3.077   4.105   3.201  1.9230 -3.8811  0.6084
   37MOL   H15816790   3.247   4.162   3.211  0.5276  1.3949 -0.4339
   37MOL   H15916791   3.023   3.957   2.697  1.8886  1.3937  0.4264
   37MOL   H16016792   3.136   3.787   2.538 -3.1326  1.7286  0.6141
   37MOL   H16116793   3.416   3.696   2.849  1.1916  1.4918  0.4596
   37MOL   H16216794   3.303   3.846   3.001  0.4589  1.2625 -1.2937
   37MOL   O16316795   3.368   3.505   2.411 -0.1951  0.6992  0.0358
   37MOL   C16416796   3.463   3.553   2.319 -0.5557 -0.2619 -0.6231
   37MOL   C16516797   3.554   3.448   2.267  0.0602  0.0428  0.1103
   37MOL   O16616798   3.654   3.393   2.357 -0.4063 -0.2755  0.2951
   37MOL   C16716799   3.624   3.272   2.417  0.2048 -0.3813  0.3855
   37MOL   O16816800   3.531   3.200   2.386  0.7446 -0.1597  0.0350
   37MOL   C16916801   3.722   3.244   2.522  0.2623 -1.1320  0.1631
   37MOL   C17016802   3.754   3.111   2.549  0.2458  0.5352  0.0015
   37MOL   C17116803   3.839   3.077   2.656 -0.2495  0.6011  0.8726
   37MOL   C17216804   3.894   3.178   2.740 -0.7138  0.0249  0.1302
   37MOL   C17316805   3.984   3.149   2.855  0.1995  0.4540 -0.0456
   37MOL   O17416806   4.040   3.235   2.919 -0.3091  0.8194 -0.2977
   37MOL   O17516807   4.002   3.018   2.884 -0.3021 -0.3515 -0.0847
   37MOL   C17616808   3.872   3.310   2.703  0.2337 -0.6241 -0.0253
   37MOL   C17716809   3.782   3.352   2.598 -0.0179  0.0821  0.1782
   37MOL   H17816810   3.395   3.586   2.240 -0.4305  0.2288 -0.5273
   37MOL   H17916811   3.515   3.640   2.360 -2.2916  0.7307 -0.4964
   37MOL   H18016812   3.626   3.503   2.207  1.1597  1.1893  2.4296
   37MOL   H18116813   3.503   3.371   2.209  0.5980  0.4785 -0.9568
   37MOL   H18216814   3.711   3.028   2.495  1.1396 -0.0740  0.2056
   37MOL   H18316815   3.841   2.971   2.677  1.3876  0.6421  0.9786
   37MOL   H18416816   3.936   3.378   2.757  1.6179 -0.4553 -1.8479
   37MOL   H18516817   3.764   3.458   2.589  0.0070  0.0346 -0.4834
   37MOL   O18616818   4.109   2.983   2.986 -0.2495 -0.5790  0.2869
   37MOL   C18716819   4.051   2.944   3.114  0.7014 -0.5052 -0.6790
   37MOL   C18816820   4.165   2.927   3.209  0.2605  0.9207  0.1915
   37MOL   O18916821   4.215   3.052   3.252  0.3031  0.4668 -0.7636
   37MOL   C19016822   4.312   3.061   3.343 -0.3682 -0.0944  0.0561
   37MOL   O19116823   4.353   2.963   3.401 -0.4573  0.3581 -0.0077
   37MOL   C19216824   4.353   3.204   3.358 -0.7719  0.6010  0.5052
   37MOL   C19316825   4.436   3.243   3.470  0.1259 -0.0461  0.3563
   37MOL   C19416826   4.488   3.371   3.477  0.0271  0.4592  0.8113
   37MOL   C19516827   4.467   3.465   3.368  0.2951 -0.8965 -0.1036
   37MOL   C19616828   4.542   3.597   3.368  0.4871 -0.2574  0.1343
   37MOL   O19716829   4.648   3.616   3.433  0.2596 -0.5380  0.0732
   37MOL   O19816830   4.492   3.681   3.275  0.6281  0.1016  0.2708
   37MOL   C19916831   4.380   3.425   3.267 -0.1870 -0.2630  0.5200
   37MOL   C20016832   4.319   3.297   3.261 -0.6999  0.5664  0.2568
   37MOL   H20116833   3.988   3.024   3.154  0.2769 -0.9383 -0.4779
   37MOL   H20216834   3.989   2.855   3.106  1.0139 -1.1530  3.3376
   37MOL   H20316835   4.249   2.872   3.165  0.4823 -0.3122  2.1072
   37MOL   H20416836   4.138   2.872   3.299  0.6886 -2.4625 -1.6431
   37MOL   H20516837   4.459   3.172   3.549 -1.7502  0.8919  1.8027
   37MOL   H20616838   4.553   3.409   3.555  1.2222  1.5171 -0.6673
   37MOL   H20716839   4.356   3.492   3.186 -3.1293  1.3339  2.5868
   37MOL   H20816840   4.251   3.264   3.185 -0.3661  1.1511 -0.3024
   37MOL   O20916841   4.552   3.821   3.269  0.3862  0.0647 -0.3541
   37MOL   C21016842   4.479   3.911   3.350 -0.2947 -0.0889 -0.2949
   37MOL   C21116843   4.326   3.909   3.338  0.5631 -0.3869  0.3094
   37MOL   O21216844   4.282   3.998   3.229 -0.0169  0.3646  0.6460
   37MOL   C21316845   4.263   4.129   3.259  0.5073  1.0614  0.5546
   37MOL   O21416846   4.318   4.190   3.360 -0.2791 -0.3453  0.1289
   37MOL   C21516847   4.184   4.196   3.156  0.4590 -0.7064 -0.3908
   37MOL   C21616848   4.139   4.127   3.040 -0.7452 -0.2875  0.2354
   37MOL   C21716849   4.051   4.193   2.952 -0.0403 -0.4146  0.6799
   37MOL   C21816850   4.004   4.320   2.967  0.1251 -0.5904 -0.5273
   37MOL   C21916851   3.907   4.383   2.873 -0.4090  0.7665  0.5667
   37MOL   O22016852   3.864   4.495   2.888  0.1284  0.0832  0.2514
   37MOL   O22116853   3.879   4.303   2.765  0.6025 -0.1958 -0.4200
   37MOL   C22216854   4.056   4.391   3.075  0.5513 -0.6338  0.8226
   37MOL   C22316855   4.143   4.330   3.170 -0.6609 -0.2971 -0.2497
   37MOL   H22416856   4.505   3.897   3.455 -0.8389  1.9785  0.1429
   37MOL   H22516857   4.511   4.015   3.343  1.2097 -0.6269 -2.1658
   37MOL   H22616858   4.270   3.942   3.425 -2.6238 -1.3506 -1.2894
   37MOL   H22716859   4.284   3.809   3.321  0.2835  0.2970 -3.4154
   37MOL   H22816860   4.165   4.025   3.017 -0.0509 -0.0155 -0.1772
   37MOL   H22916861   4.028   4.131   2.868  1.2952 -1.4097  1.0281
   37MOL   H23016862   4.012   4.490   3.085 -2.5023 -1.8294 -0.0713
   37MOL   H23116863   4.154   4.391   3.259  0.5512 -0.6900 -0.1257
   37MOL   O23216864   3.782   4.372   2.674  0.0091  0.2545 -0.1676
   37MOL   C23316865   3.837   4.404   2.557  0.5074 -0.0692  0.5834
   37MOL   C23416866   3.743   4.496   2.478 -0.3063  0.1813 -0.2996
   37MOL   O23516867   3.819   4.570   2.386 -0.0696 -0.4631  0.1686
   37MOL   C23616868   3.866   4.515   2.267  0.0351 -0.2809 -0.4066
   37MOL   O23716869   3.882   4.396   2.251 -0.5037  0.6187 -0.8104
   37MOL   C23816870   3.912   4.625   2.175 -0.0103  0.0964  0.5927
   37MOL   C23916871   3.969   4.595   2.046  0.4491  0.2283  0.3209
   37MOL   C24016872   3.987   4.700   1.957 -0.0863  0.2232  0.4923
   37MOL   C24116873   3.954   4.839   1.988  0.4858 -0.0482 -1.1032
   37MOL   C24216874   3.986   4.935   1.883 -1.0920 -0.3289  0.7478
   37MOL   O24316875   4.047   4.914   1.782  0.4641  0.5402  0.1813
   37MOL   O24416876   3.925   5.057   1.909 -0.4521  0.0844 -0.4435
   37MOL   C24516877   3.899   4.865   2.119 -0.9840 -0.1200 -0.8508
   37MOL   C24616878   3.880   4.759   2.208 -0.2964  0.0987  0.3012
   37MOL   H24716879   3.922   4.466   2.587 -0.1262  0.3918  1.4502
   37MOL   H24816880   3.866   4.316   2.499 -1.2042 -0.2541 -0.0274
   37MOL   H24916881   3.703   4.573   2.544  2.4107  0.6015  0.8990
   37MOL   H25016882   3.675   4.431   2.422  0.3524  0.5854 -1.5945
   37MOL   H25116883   4.002   4.496   2.017 -0.0366  0.0320  0.4402
   37MOL   H25216884   4.034   4.677   1.862 -0.5905 -0.6907  0.4570
   37MOL   H25316885   3.870   4.962   2.158  0.5148 -0.5367  1.3914
   37MOL   H25416886   3.841   4.800   2.300  0.7639  0.3192  0.6579
   37MOL   O25516887   3.916   5.150   1.792 -0.0209 -0.1531 -0.3562
   37MOL   C25616888   3.778   5.139   1.742  0.0921 -0.4022 -0.1260
   37MOL   C25716889   3.687   5.226   1.828  0.5554 -0.1129  0.1388
   37MOL   O25816890   3.646   5.151   1.943 -0.2022  0.3747 -0.2064
   37MOL   C25916891   3.670   5.194   2.066 -0.4673 -0.1164 -0.5827
   37MOL   O26016892   3.722   5.302   2.078 -0.4409  0.1670  0.4062
   37MOL   C26116893   3.624   5.101   2.175  0.0812  0.3329  0.4063
   37MOL   C26216894   3.551   4.978   2.153 -0.2965 -0.8999  0.4015
   37MOL   C26316895   3.530   4.888   2.261  0.0567 -0.4462 -0.6618
   37MOL   C26416896   3.583   4.912   2.390  0.0241 -0.9098 -0.1227
   37MOL   C26516897   3.546   4.812   2.490  0.0221  0.7317  0.3922
   37MOL   O26616898   3.457   4.728   2.476 -0.3062  0.3108 -0.4841
   37MOL   O26716899   3.617   4.832   2.606  0.7489 -0.0427  0.4528
   37MOL   C26816900   3.649   5.033   2.413 -0.4955  0.4567 -0.2632
   37MOL   C26916901   3.664   5.125   2.308 -0.1830  0.2886  0.3782
   37MOL   H27016902   3.763   5.173   1.640 -0.4693  1.1524  0.4543
   37MOL   H27116903   3.742   5.036   1.737 -0.7465 -0.1268  0.1794
   37MOL   H27216904   3.600   5.244   1.764  0.8070 -0.7773 -0.3927
   37MOL   H27316905   3.728   5.323   1.855  2.1912 -1.0048  0.9021
   37MOL   H27416906   3.511   4.947   2.058 -1.2792  1.9247 -0.1281
   37MOL   H27516907   3.473   4.797   2.250 -2.0033  0.7320 -0.1221
   37MOL   H27616908   3.689   5.061   2.509 -0.4077  0.1513 -0.2129
   37MOL   H27716909   3.714   5.220   2.328  1.5493  0.0659 -2.6040
   37MOL   O27816910   3.572   4.742   2.723  0.1982 -0.2625  0.1524
   37MOL   C27916911   3.502   4.822   2.814 -0.4409  0.0285 -0.0793
   37MOL   C28016912   3.468   4.732   2.932  0.6108 -0.2376 -0.3498
   37MOL   O28116913   3.567   4.730   3.039  0.1031  0.1988 -0.1619
   37MOL   C28216914   3.558   4.809   3.144 -0.0401 -0.6947 -0.5296
   37MOL   O28316915   3.465   4.890   3.163  0.3411  0.1947  0.3273
   37MOL   C28416916   3.672   4.800   3.234 -0.1832  0.6260  0.4827
   37MOL   C28516917   3.662   4.863   3.359 -0.7798 -0.0321 -0.0135
   37MOL   C28616918   3.758   4.846   3.455 -0.0479  0.0283  0.5524
   37MOL   C28716919   3.879   4.770   3.426  0.3322 -0.1925  0.1059
   37MOL   C28816920   3.986   4.765   3.529  0.6222  0.9006 -0.0839
   37MOL   O28916921   4.078   4.681   3.518  0.1823  0.5376 -0.4343
   37MOL   O29016922   3.967   4.844   3.634 -0.3583  0.2506 -0.2174
   37MOL   C29116923   3.894   4.711   3.301  0.5626  0.2899 -0.5206
   37MOL   C29216924   3.788   4.723   3.209  0.0488 -0.4228  0.5672
   37MOL   H29316925   3.557   4.911   2.848 -1.2731  0.1444  0.9669
   37MOL   H29416926   3.412   4.838   2.755 -0.1525 -0.1170 -0.5709
   37MOL   H29516927   3.462   4.629   2.897  3.7323 -0.7238  0.3744
   37MOL   H29616928   3.371   4.758   2.973  0.8391  1.5117 -0.8796
   37MOL   H29716929   3.594   4.945   3.378 -0.8077  0.2577 -1.2887
   37MOL   H29816930   3.745   4.893   3.551  1.0072  1.9958 -0.2383
   37MOL   H29916931   3.980   4.649   3.282  0.0892 -0.4744 -0.2432
   37MOL   H30016932   3.802   4.665   3.119  2.1873 -0.9740  1.2125
   37MOL   O30116933   4.065   4.829   3.750 -0.0558 -0.0932 -0.5877
   37MOL   C30216934   4.003   4.772   3.866 -0.1457  0.2983 -0.2275
   37MOL   C30316935   4.088   4.789   3.992 -0.1028 -0.1918  0.8569
   37MOL   O30416936   4.167   4.673   4.016 -0.0884  0.3814 -0.6251
   37MOL   C30516937   4.129   4.588   4.114  0.4039  0.3344  0.2016
   37MOL   O30616938   4.021   4.603   4.170 -0.2487  0.0929  0.2361
   37MOL   C30716939   4.212   4.462   4.137 -0.5601  0.0429 -0.0873
   37MOL   C30816940   4.185   4.377   4.243 -0.3005  0.7995  0.3532
   37MOL   C30916941   4.274   4.275   4.277  0.0155 -0.0215 -0.0216
   37MOL   C31016942   4.376   4.239   4.187  0.1520  0.5537  0.1536
   37MOL   C31116943   4.469   4.121   4.220  0.3435 -0.1386  0.8137
   37MOL   O31216944   4.554   4.062   4.152 -0.1747 -0.0667 -0.4213
   37MOL   O31316945   4.456   4.088   4.357 -0.8173 -0.1413  0.5076
   37MOL   C31416946   4.402   4.320   4.073  0.4086 -0.3460  0.2650
   37MOL   C31516947   4.320   4.436   4.050  0.1577 -0.3237  0.1736
   37MOL   H31616948   3.906   4.819   3.881 -0.5093 -1.5121  3.6047
   37MOL   H31716949   3.992   4.664   3.852 -1.4228  0.2591  0.9791
   37MOL   H31816950   4.036   4.824   4.081 -1.1318  0.4248  0.0242
   37MOL   H31916951   4.152   4.871   3.959 -1.1377  0.0776 -0.4830
   37MOL   H32016952   4.102   4.392   4.310 -1.4783 -4.1800  0.2138
   37MOL   H32116953   4.259   4.219   4.369  0.6209  0.4740  0.3785
   37MOL   H32216954   4.482   4.287   4.009 -0.7200  0.8407 -1.8086
   37MOL   H32316955   4.334   4.496   3.962  1.8982  1.8997  1.9183
   37MOL   O32416956   4.579   4.020   4.416 -0.2960  0.0087  0.4526
   37MOL   C32516957   4.662   4.125   4.459 -0.2351 -0.4252 -0.2394
   37MOL   C32616958   4.646   4.132   4.614 -0.5960 -0.4838  0.0798
   37MOL   O32716959   4.518   4.130   4.660  0.2573  0.6537 -0.1067
   37MOL   C32816960   4.494   4.121   4.796 -0.2104 -0.2126 -0.6034
   37MOL   O32916961   4.579   4.137   4.879  1.0580  0.0225 -0.0188
   37MOL   C33016962   4.351   4.101   4.826  0.7641 -0.3234  0.0507
   37MOL   C33116963   4.275   4.017   4.743  0.6878 -0.2705 -0.2435
   37MOL   C33216964   4.133   3.996   4.761 -0.9841 -0.0147  0.7276
   37MOL   C33316965   4.073   4.056   4.872  0.2201  0.3951  0.6793
   37MOL   C33416966   3.924   4.045   4.881 -0.1359 -0.9127 -0.0347
   37MOL   O33516967   3.856   4.002   4.785  0.7466  0.3549 -0.0085
   37MOL   O33616968   3.876   4.091   5.002  0.1168 -0.4743 -0.2453
   37MOL   C33716969   4.150   4.137   4.959 -0.5739  0.2618 -0.0486
   37MOL   C33816970   4.287   4.152   4.934 -0.4653 -0.3209  0.5282
   37MOL   H33916971   4.760   4.096   4.422 -0.8634 -2.3670 -0.4451
   37MOL   H34016972   4.633   4.225   4.426  1.2874 -0.1412 -0.7641
   37MOL   H34116973   4.703   4.214   4.657  1.6111 -1.5579 -0.7075
   37MOL   H34216974   4.700   4.048   4.658 -1.4289 -0.2566  1.5693
   37MOL   H34316975   4.316   3.981   4.650 -1.1836 -1.5733 -0.6087
   37MOL   H34416976   4.079   3.944   4.683  0.0372  1.6488 -1.1266
   37MOL   H34516977   4.103   4.184   5.044 -0.7700  0.1806 -0.1127
   37MOL   H34616978   4.346   4.214   4.999 -0.9362  0.7490 -0.0479
   37MOL   O34716979   3.729   4.091   5.013  0.8081  0.2214 -0.4640
   37MOL   C34816980   3.692   3.986   5.111 -0.0159 -0.5579  0.3551
   37MOL   C34916981   3.774   3.856   5.102  0.1343  0.1108  0.2706
   37MOL   O35016982   3.726   3.767   5.206  0.7319 -0.5889 -0.1399
   37MOL   C35116983   3.606   3.702   5.193 -0.6274  0.7991  0.4935
   37MOL   O35216984   3.538   3.719   5.094 -0.0867  0.5018  0.1077
   37MOL   C35316985   3.583   3.596   5.291 -0.1705  0.6389  0.1540
   37MOL   C35416986   3.480   3.499   5.264  0.5430 -0.0883  0.3866
   37MOL   C35516987   3.445   3.410   5.367 -0.2267 -0.4730  0.3600
   37MOL   C35616988   3.501   3.415   5.499 -0.0347  0.1464 -0.4876
   37MOL   C35716989   3.464   3.319   5.604 -0.0842 -0.1063 -0.1559
   37MOL   O35816990   3.522   3.310   5.714 -0.6776  0.3662 -0.2451
   37MOL   O35916991   3.363   3.244   5.563 -0.7822  0.7845  0.1929
   37MOL   C36016992   3.612   3.495   5.509  0.1516 -0.5788  0.1609
   37MOL   C36116993   3.650   3.593   5.414 -0.2389 -0.0865  0.7155
   37MOL   H36216994   3.713   4.029   5.209 -0.6668  2.9088 -0.9423
   37MOL   H36316995   3.586   3.964   5.101 -0.4841  1.5287  0.5179
   37MOL   H36416996   3.879   3.876   5.124 -0.1297  2.6043 -0.5621
   37MOL   H36516997   3.763   3.800   5.009  1.2022 -0.9537  0.7732
   37MOL   H36616998   3.423   3.491   5.172 -0.8303 -0.1345  1.2171
   37MOL   H36716999   3.370   3.338   5.337 -0.7708 -0.1463  0.9063
   37MOL   H36817000   3.670   3.489   5.600  1.0673 -1.6065 -0.4709
   37MOL   H36917001   3.735   3.654   5.441 -0.5619  1.4905 -1.6518
   37MOL   O37017002   3.333   3.124   5.644  0.0247  0.2275  0.2366
   37MOL   C37117003   3.206   3.140   5.691  1.0144 -0.6563  0.3866
   37MOL   C37217004   3.110   3.082   5.588 -0.4236 -0.0021  0.6379
   37MOL   O37317005   3.088   2.943   5.601 -0.0637 -0.2273 -0.0058
   37MOL   C37417006   3.136   2.862   5.508  0.1207  0.1454  0.2471
   37MOL   O37517007   3.216   2.892   5.419 -0.5964 -0.7767  0.8017
   37MOL   C37617008   3.083   2.726   5.527 -0.6290  0.0455 -0.1876
   37MOL   C37717009   2.980   2.693   5.618  0.2663  0.7204 -0.2195
   37MOL   C37817010   2.954   2.555   5.634  0.1144  0.4376  0.1810
   37MOL   C37917011   3.032   2.454   5.567 -0.1922  0.2398 -0.0289
   37MOL   C38017012   3.006   2.305   5.582  0.1273  0.4674 -0.1067
   37MOL   O38117013   3.045   2.208   5.512 -0.3593  0.3675 -0.6536
   37MOL   O38217014   2.932   2.289   5.700 -0.3160 -0.1560 -0.5307
   37MOL   C38317015   3.134   2.490   5.480  0.9371  0.3594  0.5131
   37MOL   C38417016   3.155   2.627   5.461 -0.6777  0.4875  0.2642
   37MOL   H38517017   3.196   3.097   5.791 -1.4846 -1.7661 -0.2947
   37MOL   H38617018   3.168   3.242   5.693 -2.8643 -2.0196  0.3161
   37MOL   H38717019   3.143   3.111   5.488 -0.1177  0.0369  0.7482
   37MOL   H38817020   3.011   3.128   5.598  0.1419  0.9972  1.9353
   37MOL   H38917021   2.941   2.763   5.690 -0.2046 -0.7662  1.0072
   37MOL   H39017022   2.886   2.530   5.714 -0.0832 -0.9067 -0.4068
   37MOL   H39117023   3.190   2.411   5.431 -2.3295 -1.6613 -0.1364
   37MOL   H39217024   3.229   2.661   5.390 -1.3633  0.5418 -0.4271
   37MOL   O39317025   2.940   2.142   5.756  0.3475  0.2870  0.2866
   37MOL   C39417026   3.027   2.136   5.863 -0.0311 -0.5075 -0.3930
   37MOL   C39517027   3.053   2.256   5.960 -0.4614 -0.6078  0.4688
   37MOL   O39617028   2.936   2.283   6.041 -0.2916 -0.2086 -0.8113
   37MOL   C39717029   2.853   2.385   6.024  0.0961 -0.0173  0.7510
   37MOL   O39817030   2.886   2.483   5.962  0.2261 -0.1842 -0.6476
   37MOL   C39917031   2.718   2.380   6.089 -0.1134  0.2106 -0.5902
   37MOL   C40017032   2.613   2.464   6.046  0.0550  0.2996  0.1515
   37MOL   C40117033   2.489   2.439   6.102  0.7832 -0.1627 -0.3587
   37MOL   C40217034   2.468   2.355   6.212  0.3835  0.5405  0.0767
   37MOL   C40317035   2.334   2.345   6.274 -0.3799 -0.1134 -0.7434
   37MOL   O40417036   2.246   2.425   6.241 -0.3010 -0.0077  0.0796
   37MOL   O40517037   2.322   2.245   6.359  0.2031  0.4142  0.3700
   37MOL   C40617038   2.575   2.280   6.265 -0.0190  0.4268  0.3885
   37MOL   C40717039   2.703   2.287   6.196  0.8938  0.1821  0.4623
   37MOL   H40817040   2.990   2.048   5.915 -2.1317  0.3330 -0.3987
   37MOL   H40917041   3.118   2.112   5.808  0.3168  1.6633 -0.8219
   37MOL   H41017042   3.077   2.344   5.900 -1.5842 -0.1449  0.6997
   37MOL   H41117043   3.138   2.236   6.026 -1.1127 -0.2412  1.4209
   37MOL   H41217044   2.625   2.530   5.961  2.0546 -1.0683 -0.6604
   37MOL   H41317045   2.404   2.496   6.071 -0.9525 -1.5349  1.7346
   37MOL   H41417046   2.558   2.220   6.353  0.0207  0.5222  0.4617
   37MOL   H41517047   2.791   2.238   6.236  1.6824  0.0817 -1.3439
   37MOL   O41617048   2.186   2.223   6.421  0.9198  0.3409  0.0235
   37MOL   C41717049   2.186   2.295   6.548 -0.7375  0.7324 -0.0167
   37MOL   C41817050   2.040   2.285   6.603  0.2411 -0.3308  0.4911
   37MOL   O41917051   2.032   2.179   6.691  0.4546  0.5345 -0.0181
   37MOL   C42017052   1.949   2.078   6.678 -0.0256  0.4879 -0.0068
   37MOL   O42117053   1.886   2.068   6.572  0.1319  0.9338 -0.0163
   37MOL   C42217054   1.958   1.969   6.789 -0.1396 -0.2169  0.1272
   37MOL   C42317055   2.075   1.954   6.865  0.3859 -0.6143  0.0216
   37MOL   C42417056   2.078   1.859   6.960  0.3827  0.6892  0.2578
   37MOL   C42517057   1.968   1.775   6.990 -0.3903 -0.1823  0.8358
   37MOL   C42617058   1.991   1.665   7.085  0.1149  0.0835  0.3705
   37MOL   O42717059   2.097   1.632   7.141  0.2467 -0.1903 -0.0612
   37MOL   O42817060   1.881   1.589   7.096  0.4419 -0.2836  0.7596
   37MOL   C42917061   1.853   1.784   6.906 -0.2951  0.5711 -0.1373
   37MOL   C43017062   1.846   1.890   6.814  0.2437  0.7754  0.0932
   37MOL   H43117063   2.255   2.247   6.616 -0.4765  0.3151 -0.5728
   37MOL   H43217064   2.198   2.403   6.538 -0.4681  0.5760 -1.4962
   37MOL   H43317065   1.964   2.284   6.525  2.7512 -2.9054 -2.0291
   37MOL   H43417066   2.020   2.368   6.671 -2.8797 -0.4711 -0.1547
   37MOL   H43517067   2.160   2.018   6.847  1.1608 -0.7664  2.8185
   37MOL   H43617068   2.164   1.847   7.023  0.8432 -1.8717 -0.8128
   37MOL   H43717069   1.764   1.726   6.923 -0.1568 -0.0882 -1.5561
   37MOL   H43817070   1.749   1.907   6.769 -0.8661  1.0398  2.4951
   37MOL   O43917071   1.904   1.482   7.201 -0.7668 -0.1959  0.3078
   37MOL   C44017072   1.871   1.534   7.327  1.2358  0.3603 -0.4888
   37MOL   C44117073   1.796   1.429   7.415  0.0020 -0.1702 -0.0752
   37MOL   O44217074   1.885   1.349   7.498 -0.3378 -0.1460  0.1318
   37MOL   C44317075   1.840   1.226   7.544  0.2081 -0.4794 -0.8191
   37MOL   O44417076   1.724   1.186   7.533 -0.1296 -0.2905  0.0732
   37MOL   C44517077   1.942   1.151   7.627 -0.2818 -0.2907 -0.3462
   37MOL   C44617078   1.894   1.039   7.703  0.2368  0.4614 -0.2758
   37MOL   C44717079   1.979   0.976   7.796  0.1014  0.4807  0.4235
   37MOL   C44817080   2.117   1.012   7.798 -0.2028  0.0709 -0.1268
   37MOL   C44917081   2.216   0.939   7.890  0.2136 -0.0680  0.0224
   37MOL   O45017082   2.329   0.987   7.912  0.3046 -0.3225 -0.8612
   37MOL   O45117083   2.169   0.823   7.941  0.0626 -0.2156  0.1057
   37MOL   C45217084   2.163   1.114   7.715  0.0185  0.4585 -0.7312
   37MOL   C45317085   2.078   1.184   7.633  0.0549  0.0493  0.2465
   37MOL   H45417086   1.960   1.568   7.380  0.4705  1.4312  0.1065
   37MOL   H45517087   1.802   1.616   7.309  0.5264 -0.5575 -2.1542
   37MOL   H45617088   1.741   1.359   7.352 -1.3912  2.1136 -1.4862
   37MOL   H45717089   1.726   1.481   7.482 -2.0159 -1.3364 -1.2482
   37MOL   H45817090   1.789   1.017   7.707  0.0195  1.7463  1.9673
   37MOL   H45917091   1.947   0.907   7.872  3.3987 -0.7546  0.7401
   37MOL   H46017092   2.267   1.140   7.705 -0.0299  1.1862  0.6619
   37MOL   H46117093   2.121   1.248   7.557 -0.0014 -0.0220  0.1546
   37MOL   H46217094   2.243   0.776   7.975 -1.1656 -2.1309  0.2166
   38MOL     O117095   4.780   0.502   0.597 -0.2667  0.0179  0.3263
   38MOL     C217096   4.656   0.454   0.550 -0.1094 -0.0695 -0.0903
   38MOL     C317097   4.562   0.577   0.550  0.1778 -0.6546  1.0127
   38MOL     O417098   4.500   0.582   0.681 -0.1492 -0.1490 -1.0102
   38MOL     C517099   4.556   0.636   0.788  0.5884  0.7154 -0.2901
   38MOL     O617100   4.675   0.657   0.789 -0.5417  0.2538 -0.1230
   38MOL     C717101   4.462   0.669   0.890  0.7093  0.7163 -0.8017
   38MOL     C817102   4.328   0.620   0.902 -0.9246 -0.7072 -0.5046
   38MOL     C917103   4.252   0.653   1.017  0.0024 -0.5352 -0.2812
   38MOL    C1017104   4.293   0.758   1.103  0.1193 -0.3897  0.4217
   38MOL    C1117105   4.204   0.807   1.215  0.4686  0.4228  0.1346
   38MOL    O1217106   4.222   0.910   1.283  0.2593 -0.4829  0.3363
   38MOL    O1317107   4.113   0.709   1.244  0.0267 -0.4089  0.6107
   38MOL    C1417108   4.418   0.815   1.090  0.7530 -0.1148  0.1237
   38MOL    C1517109   4.505   0.761   0.992  0.3390 -0.0213  0.1777
   38MOL    H1617110   4.666   0.429   0.444 -1.2535 -0.6746 -0.0637
   38MOL    H1717111   4.618   0.371   0.610 -0.0725 -0.3656 -0.4757
   38MOL    H1817112   4.488   0.566   0.470  1.9060 -0.0078 -0.7148
   38MOL    H1917113   4.613   0.673   0.545  1.3672 -1.3521 -1.2644
   38MOL    H2017114   4.293   0.554   0.825  0.4686 -0.8953 -0.9870
   38MOL    H2117115   4.154   0.606   1.018  1.1892 -3.0803 -0.1240
   38MOL    H2217116   4.456   0.888   1.160 -1.5602  0.2106  1.0524
   38MOL    H2317117   4.608   0.796   0.993  1.0276 -1.9339 -1.3620
   38MOL    H2417118   4.763   0.554   0.675 -0.7702  0.1761  0.1151
   38MOL    O2517119   4.034   0.739   1.366  0.1111  0.7790 -0.0437
   38MOL    C2617120   3.895   0.722   1.333  0.2515  0.6590 -0.5617
   38MOL    C2717121   3.820   0.729   1.465  0.0004  0.1069  0.6348
   38MOL    O2817122   3.809   0.603   1.536 -0.4106 -0.2890 -0.6069
   38MOL    C2917123   3.914   0.566   1.618 -0.1193  0.2958 -0.1591
   38MOL    O3017124   4.024   0.624   1.621 -0.1829  0.0499  0.6337
   38MOL    C3117125   3.884   0.445   1.705 -0.2342 -0.7485 -0.0524
   38MOL    C3217126   3.979   0.390   1.792 -0.7431  0.0929  0.4405
   38MOL    C3317127   3.940   0.287   1.879 -0.3117  1.0662 -0.9393
   38MOL    C3417128   3.812   0.232   1.881  0.0842 -0.2991  0.9203
   38MOL    C3517129   3.782   0.119   1.976  0.2352  0.2599  1.1359
   38MOL    O3617130   3.688   0.043   1.955  0.2133  0.2618 -0.0473
   38MOL    O3717131   3.866   0.112   2.077  0.0172 -0.3930 -0.2622
   38MOL    C3817132   3.714   0.288   1.795 -0.0306  0.7929 -1.2689
   38MOL    C3917133   3.752   0.388   1.703 -0.1678 -0.7112  0.1117
   38MOL    H4017134   3.862   0.796   1.259  2.5442 -1.4897 -3.8485
   38MOL    H4117135   3.888   0.627   1.282  1.8860  0.1454  0.1252
   38MOL    H4217136   3.725   0.770   1.432 -1.2698 -1.7562  1.9094
   38MOL    H4317137   3.873   0.800   1.529 -0.6392 -0.1747  1.4895
   38MOL    H4417138   4.080   0.428   1.801 -0.2105 -1.5804  1.7468
   38MOL    H4517139   4.020   0.255   1.945 -2.8978  0.7755  2.2158
   38MOL    H4617140   3.611   0.256   1.790  0.3332 -0.4294 -1.1266
   38MOL    H4717141   3.682   0.431   1.633  0.3805  1.1667  0.6911
   38MOL    O4817142   3.826   0.027   2.192 -0.1262  0.6769 -0.3777
   38MOL    C4917143   3.743   0.099   2.274  0.1170 -0.1702  0.2433
   38MOL    C5017144   3.815   0.220   2.334  0.1073 -0.0879  0.8560
   38MOL    O5117145   3.809   0.336   2.255  0.0456 -0.1296 -0.2595
   38MOL    C5217146   3.695   0.404   2.239  0.1639 -1.1015 -0.9312
   38MOL    O5317147   3.587   0.382   2.297  0.0086 -0.6977  0.2421
   38MOL    C5417148   3.704   0.521   2.144  0.2098 -0.2536  0.6248
   38MOL    C5517149   3.598   0.618   2.145 -1.2363  0.4895  0.5582
   38MOL    C5617150   3.596   0.719   2.056 -0.5083 -0.1116 -0.0819
   38MOL    C5717151   3.709   0.743   1.969 -0.2916 -0.1576  0.0760
   38MOL    C5817152   3.699   0.858   1.874  0.0404  0.9900 -0.2475
   38MOL    O5917153   3.728   0.843   1.757 -0.5774 -0.4187  0.5337
   38MOL    O6017154   3.686   0.978   1.938  0.4275 -0.0268  0.5124
   38MOL    C6117155   3.811   0.654   1.967  0.1392 -0.4317 -0.2924
   38MOL    C6217156   3.809   0.544   2.058 -0.7393 -0.9043 -0.2852
   38MOL    H6317157   3.655   0.128   2.217  0.3016 -3.2814 -1.7321
   38MOL    H6417158   3.711   0.029   2.351  0.2891 -0.1670  0.3186
   38MOL    H6517159   3.920   0.200   2.357  0.4737 -0.5864 -1.1599
   38MOL    H6617160   3.765   0.261   2.421 -0.9231  1.2836 -0.3725
   38MOL    H6717161   3.516   0.605   2.215 -2.5303  1.6803 -0.7002
   38MOL    H6817162   3.516   0.793   2.057 -0.7543 -0.3543 -1.1086
   38MOL    H6917163   3.899   0.669   1.906  0.6934 -1.2559  0.2912
   38MOL    H7017164   3.898   0.482   2.056  2.0801  2.8654  1.4446
   38MOL    O7117165   3.648   1.085   1.841 -0.6627  0.2250 -0.3306
   38MOL    C7217166   3.512   1.123   1.860 -0.5057 -0.6253 -0.2135
   38MOL    C7317167   3.491   1.179   2.003 -0.0623  0.2867 -0.4598
   38MOL    O7417168   3.563   1.299   2.013 -0.3388  0.6077 -1.0195
   38MOL    C7517169   3.495   1.411   2.025 -0.0425 -0.1531  0.0360
   38MOL    O7617170   3.375   1.426   2.053 -0.0175  0.0618 -0.3783
   38MOL    C7717171   3.588   1.529   2.004 -0.1139 -0.2665  0.4147
   38MOL    C7817172   3.714   1.520   1.943  0.5994 -0.9182 -0.0428
   38MOL    C7917173   3.790   1.637   1.929  0.7501  0.6935 -0.0668
   38MOL    C8017174   3.737   1.765   1.968 -0.0559  0.2738 -0.1858
   38MOL    C8117175   3.820   1.888   1.949 -0.5145 -0.0763 -0.1003
   38MOL    O8217176   3.936   1.889   1.905  0.0797  0.2692 -1.2169
   38MOL    O8317177   3.760   2.000   1.999 -0.1287 -0.0224 -0.1966
   38MOL    C8417178   3.614   1.770   2.033  0.5884 -0.1120 -0.0001
   38MOL    C8517179   3.536   1.657   2.051 -0.2162 -0.2117 -0.1667
   38MOL    H8617180   3.487   1.203   1.790  0.0778 -0.3973 -0.1686
   38MOL    H8717181   3.438   1.046   1.838 -2.7050  1.1170  0.9944
   38MOL    H8817182   3.524   1.121   2.089  0.1630  1.8627  0.5293
   38MOL    H8917183   3.384   1.197   1.997 -0.1687 -0.1332  0.1535
   38MOL    H9017184   3.755   1.425   1.912  0.1828 -1.7016  1.7705
   38MOL    H9117185   3.887   1.624   1.884  1.7888 -2.5931  2.8497
   38MOL    H9217186   3.579   1.864   2.074  1.5712  0.0015  0.6153
   38MOL    H9317187   3.443   1.667   2.106 -0.6820 -4.1005 -0.0719
   38MOL    O9417188   3.852   2.126   2.001 -0.0035  1.0988  0.3922
   38MOL    C9517189   3.894   2.147   2.137 -0.5433 -0.8464  0.4153
   38MOL    C9617190   4.035   2.216   2.129  0.9028 -0.2723 -0.1164
   38MOL    O9717191   4.111   2.185   2.241 -0.2216 -0.1678  0.3617
   38MOL    C9817192   4.083   2.236   2.359  0.0031  0.4961 -0.4880
   38MOL    O9917193   3.984   2.300   2.389  0.3388  0.5208  0.5425
   38MOL   C10017194   4.176   2.192   2.464  0.1647  0.6512 -0.4560
   38MOL   C10117195   4.140   2.209   2.597  0.5459 -0.3457  0.4717
   38MOL   C10217196   4.226   2.168   2.704  0.3602 -0.4230 -0.1745
   38MOL   C10317197   4.355   2.101   2.673 -0.4421  0.1603 -0.2751
   38MOL   C10417198   4.439   2.063   2.796  0.0113  0.6380  0.6360
   38MOL   O10517199   4.398   2.064   2.915  0.0571  0.3243  0.3835
   38MOL   O10617200   4.573   2.032   2.768 -0.2272 -0.4761 -0.5020
   38MOL   C10717201   4.389   2.083   2.540  0.0951  0.4118 -0.4946
   38MOL   C10817202   4.299   2.127   2.439 -0.1501 -0.2698  0.3331
   38MOL   H10917203   3.826   2.221   2.180  1.2147  1.1684 -0.2254
   38MOL   H11017204   3.887   2.050   2.186 -2.1807 -0.7488  0.4024
   38MOL   H11117205   4.023   2.323   2.110  0.0041 -0.4764 -0.6966
   38MOL   H11217206   4.082   2.163   2.046 -0.3182 -1.7456  0.1060
   38MOL   H11317207   4.042   2.251   2.617  0.2056 -1.6634  1.6341
   38MOL   H11417208   4.202   2.177   2.809  0.5641 -1.0240 -0.0706
   38MOL   H11517209   4.478   2.035   2.503  0.1816 -0.0234  0.2763
   38MOL   H11617210   4.323   2.121   2.334  1.2898  0.1519  0.6255
   38MOL   O11717211   4.658   1.961   2.883  0.2955 -0.7108  0.0119
   38MOL   C11817212   4.725   2.068   2.953  0.1300  0.1187  0.5774
   38MOL   C11917213   4.842   2.121   2.864  0.1418 -0.5313  0.0899
   38MOL   O12017214   4.959   2.039   2.850  0.2202  0.0308 -0.1144
   38MOL   C12117215   5.039   2.027   2.964  0.0670 -0.0599 -0.5477
   38MOL   O12217216   5.005   2.067   3.075 -0.6888  0.2989  0.1965
   38MOL   C12317217   5.171   1.960   2.939  0.1545 -0.0411 -0.2366
   38MOL   C12417218   5.198   1.895   2.816  0.0632 -0.5221 -0.3099
   38MOL   C12517219   5.325   1.831   2.795  0.1719 -0.3597  0.4812
   38MOL   C12617220   5.423   1.836   2.894  0.4719 -0.0198  0.4232
   38MOL   C12717221   5.554   1.764   2.875 -0.8500 -0.6503 -0.1926
   38MOL   O12817222   5.573   1.696   2.774  0.5705 -0.2180 -0.8194
   38MOL   O12917223   5.647   1.789   2.967  0.3526 -0.0958  0.4050
   38MOL   C13017224   5.394   1.908   3.011 -0.1190 -0.0879 -0.3840
   38MOL   C13117225   5.269   1.960   3.036  0.0985 -0.4241 -0.0639
   38MOL   H13217226   4.655   2.151   2.966  0.2187  0.1659  0.7456
   38MOL   H13317227   4.750   2.024   3.049  2.7377  0.3410  0.0299
   38MOL   H13417228   4.880   2.215   2.904 -0.9990 -0.2720  0.5815
   38MOL   H13517229   4.805   2.131   2.762  2.0365  0.0541 -0.5722
   38MOL   H13617230   5.121   1.895   2.740 -0.8665 -1.4406  0.6140
   38MOL   H13717231   5.346   1.785   2.700 -0.6921  1.4164 -0.6147
   38MOL   H13817232   5.460   1.913   3.097 -2.0036 -0.8145  1.1542
   38MOL   H13917233   5.239   2.008   3.128 -2.3058 -0.4317 -0.8082
   38MOL   O14017234   5.789   1.774   2.920 -0.1911  0.2022  0.0480
   38MOL   C14117235   5.854   1.676   2.996  0.0634  0.3390 -0.1528
   38MOL   C14217236   5.907   1.733   3.134  0.3155  0.0024 -0.2265
   38MOL   O14317237   5.810   1.747   3.224 -0.0561  0.2783  0.6685
   38MOL   C14417238   5.743   1.856   3.252 -0.8930 -0.7204  0.4684
   38MOL   O14517239   5.764   1.964   3.205  0.3831 -0.1672 -0.4070
   38MOL   C14617240   5.629   1.829   3.334 -0.6424  0.3906  0.6737
   38MOL   C14717241   5.602   1.698   3.383 -0.4712 -0.6664 -0.2972
   38MOL   C14817242   5.473   1.663   3.437 -0.1840  0.2590  0.4385
   38MOL   C14917243   5.370   1.762   3.452 -0.1243 -0.9155 -0.2177
   38MOL   C15017244   5.233   1.721   3.500  0.3184  0.0449  0.4807
   38MOL   O15117245   5.143   1.805   3.515 -0.1527 -0.0885 -0.4865
   38MOL   O15217246   5.217   1.590   3.520  0.0343 -0.1274 -0.1373
   38MOL   C15317247   5.405   1.895   3.415  0.2568  0.3770  0.4244
   38MOL   C15417248   5.530   1.928   3.354 -0.0897 -0.7205  0.2212
   38MOL   H15517249   5.798   1.583   3.003 -0.6595  0.7105 -0.9499
   38MOL   H15617250   5.942   1.643   2.940  0.4940  1.5032 -0.1679
   38MOL   H15717251   5.957   1.829   3.118 -0.3083  0.0396 -2.1792
   38MOL   H15817252   5.969   1.664   3.191  1.0312  0.4374 -0.4709
   38MOL   H15917253   5.680   1.624   3.374  0.2251  0.1634 -1.2232
   38MOL   H16017254   5.454   1.564   3.476  1.4533  0.1702  1.0364
   38MOL   H16117255   5.327   1.969   3.417 -0.2594 -0.1717  0.7375
   38MOL   H16217256   5.550   2.031   3.329  2.3610 -0.9711  1.0136
   38MOL   O16317257   5.077   1.553   3.563  0.2618 -0.1602  0.0119
   38MOL   C16417258   5.005   1.517   3.445 -0.1463 -0.0655  0.0711
   38MOL   C16517259   5.012   1.362   3.429 -0.0254  0.0596  0.3013
   38MOL   O16617260   4.890   1.304   3.379 -0.2467  0.2037  0.4529
   38MOL   C16717261   4.837   1.348   3.263 -0.4884 -0.1117 -0.0850
   38MOL   O16817262   4.886   1.441   3.197  0.9219  0.2621 -0.5375
   38MOL   C16917263   4.720   1.270   3.219 -0.3493 -0.4774 -0.2438
   38MOL   C17017264   4.641   1.312   3.112  0.2975 -0.7344 -0.1909
   38MOL   C17117265   4.520   1.252   3.075  0.3055  0.1822  0.4608
   38MOL   C17217266   4.476   1.141   3.151  0.4088 -0.2783  0.0448
   38MOL   C17317267   4.356   1.072   3.105  0.1278 -0.0726  0.3237
   38MOL   O17417268   4.326   1.065   2.983 -0.7561 -0.0438 -0.4737
   38MOL   O17517269   4.280   1.015   3.198  0.2734  0.3637  0.9581
   38MOL   C17617270   4.560   1.096   3.256  0.4201  0.1460 -0.3162
   38MOL   C17717271   4.676   1.165   3.294 -0.4239  0.3323 -0.3876
   38MOL   H17817272   4.903   1.546   3.470 -0.0469  1.0672 -0.8333
   38MOL   H17917273   5.037   1.577   3.360  1.2761  0.8013  1.1986
   38MOL   H18017274   5.030   1.312   3.524  0.9416 -1.0472 -0.4485
   38MOL   H18117275   5.094   1.336   3.362 -0.2295 -0.9842  0.4505
   38MOL   H18217276   4.683   1.399   3.063  0.1107 -0.6093 -0.1278
   38MOL   H18317277   4.449   1.294   3.005 -0.6890  0.3180  1.5338
   38MOL   H18417278   4.518   1.014   3.312  0.0173 -1.6745 -3.1449
   38MOL   H18517279   4.734   1.121   3.374 -2.6931  0.1226  1.2037
   38MOL   O18617280   4.178   0.919   3.156 -0.1592 -0.3880  0.3791
   38MOL   C18717281   4.054   0.991   3.152 -0.3449  0.1841 -0.1225
   38MOL   C18817282   3.933   0.905   3.205 -0.3919  0.0225  0.3092
   38MOL   O18917283   3.805   0.958   3.178  1.0825  0.0334 -0.5072
   38MOL   C19017284   3.728   0.899   3.087  0.1907  0.7755 -0.2996
   38MOL   O19117285   3.760   0.792   3.036  0.1893  0.3988  0.5170
   38MOL   C19217286   3.594   0.956   3.070 -0.0469  0.0775 -0.1298
   38MOL   C19317287   3.509   0.898   2.974  0.7474 -0.2686 -0.0403
   38MOL   C19417288   3.383   0.944   2.947 -0.7006 -0.5680  0.3039
   38MOL   C19517289   3.345   1.070   2.999  0.7356 -0.1976  0.2720
   38MOL   C19617290   3.215   1.137   2.967 -0.9558 -0.5883 -0.1958
   38MOL   O19717291   3.178   1.248   3.002  0.6535  0.4705 -0.0802
   38MOL   O19817292   3.131   1.059   2.891 -0.0748 -0.0134  1.1253
   38MOL   C19917293   3.421   1.130   3.099  0.0830  0.2350  0.4325
   38MOL   C20017294   3.545   1.074   3.133  0.1956 -0.0670  0.2795
   38MOL   H20117295   4.049   1.085   3.207  0.4129  0.7740 -1.0452
   38MOL   H20217296   4.039   1.031   3.052  1.6589 -0.8018 -0.8448
   38MOL   H20317297   3.940   0.887   3.313 -3.0906 -0.5092  0.4352
   38MOL   H20417298   3.948   0.818   3.142 -0.4414 -0.1425  0.5242
   38MOL   H20517299   3.541   0.801   2.938 -1.0805 -1.1515  0.6552
   38MOL   H20617300   3.321   0.883   2.882 -0.2781 -1.1904  0.4876
   38MOL   H20717301   3.383   1.219   3.146 -0.1148  0.2016  0.3370
   38MOL   H20817302   3.607   1.131   3.200  0.5750  0.4927 -0.5511
   38MOL   O20917303   2.992   1.123   2.867 -0.5000  0.3244  0.1412
   38MOL   C21017304   2.894   1.044   2.934 -0.1651  0.0170  0.9005
   38MOL   C21117305   2.881   0.904   2.867  0.6193 -0.5950 -0.2616
   38MOL   O21217306   2.824   0.912   2.735  0.4679 -0.2835 -0.1011
   38MOL   C21317307   2.687   0.943   2.716  0.7182  0.3517 -0.3830
   38MOL   O21417308   2.612   0.965   2.809 -0.3160 -0.1123  0.3578
   38MOL   C21517309   2.645   0.948   2.572 -0.2760 -0.3248  0.0650
   38MOL   C21617310   2.741   0.933   2.468  0.2942  0.3364  0.3322
   38MOL   C21717311   2.705   0.934   2.331  0.1101  0.4826 -0.2174
   38MOL   C21817312   2.567   0.950   2.295 -0.0238 -0.2717 -0.5218
   38MOL   C21917313   2.509   0.966   2.154  0.1861  0.6857  0.5207
   38MOL   O22017314   2.387   0.948   2.127  0.2341 -0.2904 -0.4769
   38MOL   O22117315   2.599   1.008   2.063 -0.0280 -0.0914 -0.1184
   38MOL   C22217316   2.475   0.957   2.399  0.4717 -0.0179 -0.1004
   38MOL   C22317317   2.509   0.954   2.533  0.4314 -0.0945  0.0632
   38MOL   H22417318   2.915   1.023   3.038  0.6140 -0.4764  0.6540
   38MOL   H22517319   2.800   1.097   2.924 -0.6763 -1.0921 -0.4571
   38MOL   H22617320   2.813   0.840   2.922 -0.6115  1.2859  0.4519
   38MOL   H22717321   2.980   0.858   2.879  1.8333  1.5521 -1.5885
   38MOL   H22817322   2.845   0.918   2.494  0.2937 -0.8434 -0.3279
   38MOL   H22917323   2.779   0.928   2.253  0.7693  0.0784  0.4312
   38MOL   H23017324   2.370   0.966   2.375  1.2887  0.8923 -3.4981
   38MOL   H23117325   2.430   0.967   2.605 -0.5589 -0.5051 -0.9494
   38MOL   O23217326   2.547   1.037   1.929 -0.2150 -0.3089  0.4837
   38MOL   C23317327   2.615   0.947   1.847 -0.0000  0.6515  0.2305
   38MOL   C23417328   2.756   0.995   1.826  0.1525 -0.6812  0.3447
   38MOL   O23517329   2.819   0.926   1.720 -0.1995  0.1484 -0.2703
   38MOL   C23617330   2.871   0.999   1.616  0.3665 -0.7430 -0.2723
   38MOL   O23717331   2.860   1.121   1.602 -0.2160  0.4107  0.1841
   38MOL   C23817332   2.954   0.916   1.524 -0.6016  0.1291  0.2365
   38MOL   C23917333   2.967   0.777   1.541 -0.1702  0.4058 -0.2452
   38MOL   C24017334   3.043   0.710   1.453 -0.0322 -0.7565  0.1919
   38MOL   C24117335   3.109   0.781   1.347  0.2749  0.4349 -0.0849
   38MOL   C24217336   3.189   0.699   1.247  0.5034  0.1125  0.8904
   38MOL   O24317337   3.266   0.760   1.176 -0.1587 -0.1466 -0.5699
   38MOL   O24417338   3.173   0.562   1.262  0.0501  0.4045 -0.3820
   38MOL   C24517339   3.102   0.917   1.336 -0.2015 -0.1340 -0.0539
   38MOL   C24617340   3.014   0.983   1.416 -0.4821 -0.1285 -0.5364
   38MOL   H24717341   2.606   0.841   1.869 -3.2457  0.8666  0.2456
   38MOL   H24817342   2.553   0.941   1.757  1.9133 -1.1364 -1.0087
   38MOL   H24917343   2.820   0.975   1.911  0.6800 -2.8506 -0.5218
   38MOL   H25017344   2.742   1.102   1.810  2.0629 -0.3409  0.8506
   38MOL   H25117345   2.927   0.729   1.629 -0.7905 -1.0988 -1.3261
   38MOL   H25217346   3.043   0.604   1.474  2.0862 -0.6755  0.6849
   38MOL   H25317347   3.153   0.969   1.256 -0.1257 -0.4608 -0.2161
   38MOL   H25417348   3.001   1.089   1.395 -1.3101 -0.0600  0.3051
   38MOL   O25517349   3.262   0.487   1.163 -0.2826  0.4177 -0.1122
   38MOL   C25617350   3.348   0.404   1.241 -0.1726  0.1330 -0.6951
   38MOL   C25717351   3.466   0.381   1.154  0.2561  0.3258  0.7243
   38MOL   O25817352   3.523   0.507   1.115  0.1920 -0.0584  0.4526
   38MOL   C25917353   3.645   0.511   1.052 -0.2249 -0.0778 -0.1133
   38MOL   O26017354   3.717   0.411   1.018 -0.2208 -0.4601  0.0868
   38MOL   C26117355   3.698   0.650   1.043 -0.5909  0.0352 -0.3628
   38MOL   C26217356   3.618   0.763   1.055  0.2590 -0.3875 -0.0922
   38MOL   C26317357   3.667   0.891   1.033  0.0031 -0.5038 -0.2622
   38MOL   C26417358   3.803   0.903   0.992  0.0836  0.0985  0.1250
   38MOL   C26517359   3.858   1.036   0.952 -0.3982 -0.2666 -0.0097
   38MOL   O26617360   3.979   1.057   0.955  0.4569  0.0632 -0.4493
   38MOL   O26717361   3.771   1.119   0.896 -0.0116 -0.8585 -0.1837
   38MOL   C26817362   3.887   0.787   0.994  0.0087 -0.0477  0.1663
   38MOL   C26917363   3.835   0.660   1.010 -0.3406  0.4952  0.6409
   38MOL   H27017364   3.362   0.446   1.341 -0.8489 -0.9294 -0.1406
   38MOL   H27117365   3.291   0.311   1.250  0.6417 -0.4696 -1.7053
   38MOL   H27217366   3.435   0.319   1.070  1.5915  1.0577 -0.3199
   38MOL   H27317367   3.534   0.320   1.212  0.9476 -1.3936 -1.8116
   38MOL   H27417368   3.511   0.751   1.063  0.0108  2.0655  0.6595
   38MOL   H27517369   3.603   0.978   1.025  1.7492  0.7234 -1.1918
   38MOL   H27617370   3.994   0.782   0.981 -0.1976  0.1035 -1.8259
   38MOL   H27717371   3.895   0.572   0.997 -0.0452  1.0684 -2.1871
   38MOL   O27817372   3.830   1.251   0.848  0.3406 -0.1535 -0.1215
   38MOL   C27917373   3.893   1.232   0.722 -0.1887 -0.5247 -0.1139
   38MOL   C28017374   3.787   1.198   0.621 -0.4399 -0.2949 -0.0327
   38MOL   O28117375   3.731   1.070   0.625  0.2357  0.1886  0.3124
   38MOL   C28217376   3.797   0.956   0.593 -0.2012  0.4080 -0.2559
   38MOL   O28317377   3.911   0.969   0.557 -0.6832  0.1011  0.2926
   38MOL   C28417378   3.724   0.826   0.600 -0.3200  0.0091 -0.4737
   38MOL   C28517379   3.768   0.714   0.526 -0.2693 -0.6360 -0.0603
   38MOL   C28617380   3.698   0.593   0.531 -0.0766 -0.2532 -0.3720
   38MOL   C28717381   3.574   0.579   0.606  0.6849 -0.3944  0.3617
   38MOL   C28817382   3.496   0.458   0.609 -0.8188  0.8673  0.8161
   38MOL   O28917383   3.521   0.347   0.555  0.4647 -0.1929 -0.4846
   38MOL   O29017384   3.383   0.479   0.687 -0.1261 -0.0201 -0.4155
   38MOL   C29117385   3.541   0.690   0.693 -0.1894  0.0746 -0.3468
   38MOL   C29217386   3.613   0.811   0.683  0.0112 -0.8044  0.6478
   38MOL   H29317387   3.933   1.328   0.691 -1.5714 -0.9236 -3.2596
   38MOL   H29417388   3.978   1.164   0.711  0.1869  0.1579 -1.4842
   38MOL   H29517389   3.808   1.214   0.515  1.5433  0.4674  0.4556
   38MOL   H29617390   3.706   1.271   0.627  0.5612  0.6910  2.1812
   38MOL   H29717391   3.850   0.719   0.456 -1.4336 -0.6563 -1.4582
   38MOL   H29817392   3.731   0.510   0.470  0.0219  0.7764 -1.7397
   38MOL   H29917393   3.455   0.690   0.759 -2.6379 -1.5197 -3.3979
   38MOL   H30017394   3.581   0.891   0.748  1.0555  0.6304 -0.5662
   38MOL   O30117395   3.326   0.348   0.729 -0.3104 -0.1086 -0.6725
   38MOL   C30217396   3.193   0.334   0.677  0.1855  0.2521  0.2429
   38MOL   C30317397   3.097   0.293   0.790  0.0462 -0.0929  0.3939
   38MOL   O30417398   3.063   0.411   0.854  0.3504  0.0676 -0.0404
   38MOL   C30517399   3.006   0.404   0.975 -0.1785 -0.1409  0.1705
   38MOL   O30617400   2.997   0.297   1.036  0.4880  0.3465 -0.3132
   38MOL   C30717401   2.946   0.536   1.011 -0.3937  0.5026 -0.0190
   38MOL   C30817402   2.892   0.540   1.143 -0.7941  0.0061  0.5461
   38MOL   C30917403   2.831   0.655   1.187  0.0427  0.0613 -0.2702
   38MOL   C31017404   2.833   0.779   1.113 -0.0322 -0.7549  0.8193
   38MOL   C31117405   2.768   0.904   1.171  0.7558 -0.5449  0.1609
   38MOL   O31217406   2.748   1.005   1.104  0.1669 -0.5898  0.5959
   38MOL   O31317407   2.737   0.899   1.304 -0.1724  0.0422  0.1093
   38MOL   C31417408   2.890   0.775   0.985 -0.1690  0.1393  0.4715
   38MOL   C31517409   2.954   0.656   0.932  0.6134  0.1907 -0.3813
   38MOL   H31617410   3.158   0.418   0.617 -0.7711 -0.3562 -0.0779
   38MOL   H31717411   3.197   0.250   0.607 -0.9034  2.0653 -2.0981
   38MOL   H31817412   3.129   0.202   0.841 -2.6133 -1.8079 -0.8285
   38MOL   H31917413   3.004   0.258   0.744  0.2458 -0.5352  0.3240
   38MOL   H32017414   2.888   0.449   1.201  0.5333  0.4624  1.3575
   38MOL   H32117415   2.797   0.661   1.290  0.9529 -0.0572  0.0430
   38MOL   H32217416   2.910   0.867   0.932  0.2490  0.2698  0.8514
   38MOL   H32317417   3.006   0.646   0.838  0.7178 -0.2845 -0.2754
   38MOL   O32417418   2.652   1.016   1.357  0.1455 -0.0456  0.3495
   38MOL   C32517419   2.525   0.970   1.377  0.5320 -0.7876  0.3128
   38MOL   C32617420   2.524   0.887   1.511  0.2522 -0.2941 -0.2296
   38MOL   O32717421   2.513   0.754   1.470  0.0946 -0.1832  0.2015
   38MOL   C32817422   2.566   0.661   1.550 -0.1361 -0.2573  0.9023
   38MOL   O32917423   2.592   0.676   1.668  0.0554  0.3435 -0.0353
   38MOL   C33017424   2.592   0.533   1.477  0.3511  0.8601  0.0434
   38MOL   C33117425   2.556   0.506   1.345  0.8099  0.5993  0.2349
   38MOL   C33217426   2.582   0.377   1.283 -0.3691  0.7145 -0.6086
   38MOL   C33317427   2.660   0.280   1.352 -0.6299 -0.0135 -0.7412
   38MOL   C33417428   2.686   0.148   1.285  0.3423 -0.0157  0.3408
   38MOL   O33517429   2.628   0.104   1.191  0.1323  0.1269 -0.1517
   38MOL   O33617430   2.797   0.081   1.332 -0.0745  0.4903  0.5730
   38MOL   C33717431   2.699   0.312   1.485  0.2264  0.1177 -0.1721
   38MOL   C33817432   2.667   0.433   1.543 -0.4092  0.0629 -0.6664
   38MOL   H33917433   2.458   1.055   1.384  0.4877 -0.7066 -0.8930
   38MOL   H34017434   2.477   0.925   1.290  1.7218 -1.0069 -0.2488
   38MOL   H34117435   2.437   0.921   1.567  0.4018  0.3878 -0.4035
   38MOL   H34217436   2.611   0.915   1.571 -1.9011  0.8307  2.4382
   38MOL   H34317437   2.506   0.578   1.283  1.0767  0.2372 -0.4039
   38MOL   H34417438   2.550   0.360   1.182 -0.2033 -1.0695 -0.3676
   38MOL   H34517439   2.753   0.231   1.532  0.2071  0.5551  0.6190
   38MOL   H34617440   2.700   0.460   1.643 -3.3280  0.9266  0.1165
   38MOL   O34717441   2.813   8.219   1.269  0.0448 -0.7342 -0.2094
   38MOL   C34817442   2.924   8.232   1.177 -0.0260 -0.4231 -0.3172
   38MOL   C34917443   2.902   8.133   1.066 -0.0774  0.3411  0.1293
   38MOL   O35017444   2.986   8.158   0.959 -0.1591 -0.0148  0.2589
   38MOL   C35117445   2.945   8.226   0.853 -0.0656 -0.4060 -0.7654
   38MOL   O35217446   2.831   8.268   0.841 -0.7238 -0.3151  0.1527
   38MOL   C35317447   3.048   8.240   0.747 -0.1415 -0.5262  0.3204
   38MOL   C35417448   3.181   8.192   0.752 -0.6892  0.2074 -0.6187
   38MOL   C35517449   3.269   8.188   0.643  0.5748  0.2515  0.1648
   38MOL   C35617450   3.228   8.226   0.513 -0.0030  0.6431 -0.3304
   38MOL   C35717451   3.322   8.244   0.396  0.0620  0.9710 -0.3188
   38MOL   O35817452   3.295   0.042   0.305 -0.5330 -0.2527 -0.1584
   38MOL   O35917453   3.436   8.173   0.400 -0.0646  0.4946  0.4939
   38MOL   C36017454   3.099   8.275   0.502  0.1072 -1.0539 -0.6557
   38MOL   C36117455   3.010   0.010   0.616  0.0525 -0.7204  0.3623
   38MOL   H36217456   2.937   0.055   1.133  1.4588 -1.3486 -2.0511
   38MOL   H36317457   3.022   8.203   1.216  0.8795  0.6172 -1.7769
   38MOL   H36417458   2.799   8.143   1.032 -0.8873 -1.5899  1.8953
   38MOL   H36517459   2.912   8.035   1.111 -0.3090  0.4644  0.4514
   38MOL   H36617460   3.216   8.154   0.847  1.2803 -0.2123 -1.4918
   38MOL   H36717461   3.368   8.149   0.660  0.1850 -0.8200  0.0205
   38MOL   H36817462   3.072   0.027   0.401  1.0412 -1.7845 -1.1127
   38MOL   H36917463   2.905   0.029   0.604  0.0186 -0.4378  1.1049
   38MOL   O37017464   3.538   8.221   0.293  0.1374  0.2460 -0.4736
   38MOL   C37117465   3.650   8.264   0.367 -0.5303 -1.2344 -0.4030
   38MOL   C37217466   3.750   0.049   0.266  0.0290 -0.1701  0.1487
   38MOL   O37317467   3.700   0.182   0.260  1.1430  0.3052 -0.6256
   38MOL   C37417468   3.773   0.269   0.200  0.0718  0.1948  0.0822
   38MOL   O37517469   3.876   0.249   0.137 -0.2383  0.0063 -0.0751
   38MOL   C37617470   3.713   0.403   0.209  0.3624  0.9591  0.1721
   38MOL   C37717471   3.804   0.511   0.195  0.6442  0.0245 -0.2477
   38MOL   C37817472   3.758   0.647   0.199 -0.2338 -0.1525  0.1614
   38MOL   C37917473   3.624   0.672   0.216 -0.1134  0.0204  0.2662
   38MOL   C38017474   3.590   0.824   0.229  0.2341  0.1434 -0.0494
   38MOL   O38117475   3.674   0.908   0.213 -0.2058 -0.3448  0.1529
   38MOL   O38217476   3.458   0.850   0.263  0.0358 -0.0013 -0.3189
   38MOL   C38317477   3.532   0.565   0.224  0.0747 -0.1457  0.2078
   38MOL   C38417478   3.575   0.431   0.222 -0.7921 -0.4480 -0.2549
   38MOL   H38517479   3.618   0.056   0.447  3.7581 -0.1362  0.5236
   38MOL   H38617480   3.699   8.184   0.423  0.2232 -1.2023 -1.0151
   38MOL   H38717481   3.741   0.005   0.166  2.0419 -0.0684 -0.1055
   38MOL   H38817482   3.852   0.064   0.300  0.2016  0.5483 -0.6545
   38MOL   H38917483   3.911   0.498   0.189  0.6261 -0.3689  0.2470
   38MOL   H39017484   3.832   0.723   0.181 -1.4118  0.6913 -1.1973
   38MOL   H39117485   3.425   0.577   0.229 -0.0569  0.4937 -2.9000
   38MOL   H39217486   3.511   0.344   0.220 -0.8592 -0.5149  2.6231
   38MOL   O39317487   3.424   1.000   0.270  0.1903 -0.5271  0.2080
   38MOL   C39417488   3.439   1.049   0.400 -0.1040 -0.2138  0.2049
   38MOL   C39517489   3.374   1.191   0.390  0.3300  0.3588  0.7908
   38MOL   O39617490   3.408   1.266   0.498  0.4011  0.6411  0.1723
   38MOL   C39717491   3.358   1.393   0.493  0.1876 -0.0006  0.1125
   38MOL   O39817492   3.278   1.443   0.414  0.0278  0.1064 -0.5334
   38MOL   C39917493   3.407   1.478   0.612 -0.3317  0.4776 -0.3743
   38MOL   C40017494   3.476   1.415   0.717  0.1462  0.5619 -0.0409
   38MOL   C40117495   3.520   1.487   0.829 -0.1268 -0.0444  0.1826
   38MOL   C40217496   3.482   1.625   0.851  0.0266 -0.0209 -0.3100
   38MOL   C40317497   3.524   1.709   0.965  0.2898 -0.1879 -0.9569
   38MOL   O40417498   3.497   1.830   0.975  0.2918 -0.2413  0.7322
   38MOL   O40517499   3.601   1.639   1.051  0.4878 -0.4080 -0.1563
   38MOL   C40617500   3.419   1.691   0.744  0.2239 -0.0166 -0.3792
   38MOL   C40717501   3.380   1.624   0.628 -0.1142  1.0075  0.9105
   38MOL   H40817502   3.377   0.999   0.474  3.5359 -3.4849  1.2147
   38MOL   H40917503   3.544   1.055   0.430 -0.1454 -1.1819  0.5627
   38MOL   H41017504   3.269   1.180   0.364  0.6551  0.7402 -0.7412
   38MOL   H41117505   3.423   1.243   0.307 -1.5613  0.1697 -0.4600
   38MOL   H41217506   3.508   1.312   0.715  2.0579  1.0934  1.6748
   38MOL   H41317507   3.567   1.432   0.910 -1.1993  0.0998  0.9097
   38MOL   H41417508   3.390   1.794   0.759  2.1929  0.8485 -2.0788
   38MOL   H41517509   3.319   1.666   0.550  1.1714  0.6671 -0.3022
   38MOL   O41617510   3.609   1.691   1.194  0.2577 -0.3201 -0.2526
   38MOL   C41717511   3.712   1.786   1.204  0.2332  0.5346  0.5129
   38MOL   C41817512   3.740   1.817   1.355  0.2313 -0.0248  0.6209
   38MOL   O41917513   3.863   1.763   1.389  0.1138 -0.1840 -0.1300
   38MOL   C42017514   3.912   1.773   1.511 -0.1633 -0.8942  0.8663
   38MOL   O42117515   3.855   1.828   1.605  0.6709  0.1284 -0.1808
   38MOL   C42217516   4.044   1.713   1.521 -0.3956 -0.0539 -0.6076
   38MOL   C42317517   4.097   1.701   1.655 -0.1299 -0.3923  0.2632
   38MOL   C42417518   4.224   1.631   1.674 -0.7810  0.5419  0.3954
   38MOL   C42517519   4.286   1.564   1.564 -0.3508 -0.1557 -0.7945
   38MOL   C42617520   4.414   1.496   1.584 -0.5537  0.0911  0.4225
   38MOL   O42717521   4.491   1.486   1.487 -0.1576  0.6377 -0.1852
   38MOL   O42817522   4.429   1.446   1.704 -0.4975  0.1479  0.1904
   38MOL   C42917523   4.235   1.576   1.429 -0.3823 -0.4626 -1.0720
   38MOL   C43017524   4.110   1.649   1.409 -0.0111 -1.0405  0.2296
   38MOL   H43117525   3.802   1.758   1.149 -0.0229 -0.8736  0.7876
   38MOL   H43217526   3.700   1.879   1.147 -1.0358 -0.0528 -0.2081
   38MOL   H43317527   3.648   1.793   1.408 -0.1809 -0.6391 -0.3559
   38MOL   H43417528   3.746   1.924   1.376  2.0813  0.0712 -0.3623
   38MOL   H43517529   4.060   1.751   1.743  0.4805 -0.1530  0.3920
   38MOL   H43617530   4.266   1.639   1.773  0.9053  0.0565 -0.2612
   38MOL   H43717531   4.287   1.528   1.348  2.3629 -1.1621  1.0131
   38MOL   H43817532   4.083   1.661   1.305 -2.6465 -0.3397  0.9749
   38MOL   O43917533   4.570   1.422   1.738 -0.2393  0.1353  0.0663
   38MOL   C44017534   4.601   1.292   1.690  0.1701 -0.6890 -0.0508
   38MOL   C44117535   4.740   1.298   1.627 -0.8809 -1.0128  0.3253
   38MOL   O44217536   4.787   1.169   1.608 -0.6803  0.9213 -0.3830
   38MOL   C44317537   4.922   1.152   1.595  0.5704  0.7368 -0.9640
   38MOL   O44417538   5.003   1.244   1.618  0.1605  0.3544 -0.3365
   38MOL   C44517539   4.968   1.018   1.560  0.4426 -0.1382  0.3979
   38MOL   C44617540   5.091   1.002   1.489  0.0283 -0.2927 -0.2444
   38MOL   C44717541   5.137   0.873   1.463 -0.3057  0.5472  0.2728
   38MOL   C44817542   5.055   0.760   1.489 -0.3325 -0.8245 -0.3998
   38MOL   C44917543   5.097   0.620   1.460 -0.0919 -0.0355  0.5256
   38MOL   O45017544   5.005   0.540   1.454 -0.0598  0.5361 -0.2289
   38MOL   O45117545   5.233   0.587   1.447  0.1130  0.3331  0.3523
   38MOL   C45217546   4.937   0.784   1.563  0.1291  0.1473  0.4129
   38MOL   C45317547   4.896   0.907   1.598 -0.4924  0.4905  0.3142
   38MOL   H45417548   4.606   1.228   1.778  4.2326  0.0096  0.3356
   38MOL   H45517549   4.531   1.256   1.615  2.2506 -1.2650 -1.7489
   38MOL   H45617550   4.811   1.356   1.686 -1.4998  0.6043 -0.4751
   38MOL   H45717551   4.732   1.355   1.534  1.3932 -1.6814 -0.3102
   38MOL   H45817552   5.151   1.083   1.450  0.3309 -0.0409  0.7194
   38MOL   H45917553   5.239   0.857   1.429 -0.1566  0.3765  0.7962
   38MOL   H46017554   4.876   0.698   1.585  0.0889  0.6186  2.2664
   38MOL   H46117555   4.801   0.913   1.648 -0.8465 -2.2129 -0.0042
   38MOL   H46217556   5.247   0.493   1.443  2.3326  0.6026  1.5545
   39MOL     O117557   1.553   1.850   5.516 -0.1091 -0.1400 -0.4981
   39MOL     C217558   1.437   1.766   5.471  0.4412  0.2534  0.4164
   39MOL     C317559   1.352   1.861   5.385 -0.7356  0.0085  0.0222
   39MOL     O417560   1.419   1.855   5.257  0.3697 -0.4949 -0.4090
   39MOL     C517561   1.440   1.973   5.192  0.7355  0.3141  0.1291
   39MOL     O617562   1.397   2.082   5.225  0.0651 -0.4533 -0.2533
   39MOL     C717563   1.536   1.952   5.072  0.2269  0.2744 -0.0739
   39MOL     C817564   1.576   1.822   5.026 -0.2250  0.4322  0.0555
   39MOL     C917565   1.669   1.814   4.921  0.4185 -0.5641  0.2936
   39MOL    C1017566   1.733   1.928   4.862  0.2076  0.1572 -0.6534
   39MOL    C1117567   1.840   1.907   4.762  0.1681 -0.5799 -0.3170
   39MOL    O1217568   1.900   1.991   4.703 -1.3095  0.1458  0.4130
   39MOL    O1317569   1.873   1.777   4.754 -0.7967 -0.4296 -0.3368
   39MOL    C1417570   1.683   2.054   4.897 -0.3543 -0.1918 -0.1045
   39MOL    C1517571   1.582   2.063   4.994 -0.3812 -0.6049 -0.1015
   39MOL    H1617572   1.473   1.675   5.423 -1.0227  0.1565 -0.5152
   39MOL    H1717573   1.376   1.743   5.558 -1.3466  0.8601 -0.6533
   39MOL    H1817574   1.350   1.958   5.434 -0.9895  0.6582 -1.2825
   39MOL    H1917575   1.252   1.824   5.363 -0.8817  0.7447 -0.5379
   39MOL    H2017576   1.541   1.728   5.066 -0.2448  0.4842  0.1636
   39MOL    H2117577   1.693   1.713   4.889 -0.4751  0.0070 -2.3206
   39MOL    H2217578   1.709   2.141   4.839 -2.4423 -0.7241 -1.8795
   39MOL    H2317579   1.541   2.162   5.009  0.8577  0.0030 -0.6706
   39MOL    H2417580   1.512   1.926   5.554 -2.7530 -0.8173 -1.8121
   39MOL    O2517581   1.993   1.745   4.669  0.3583  0.0527  0.1377
   39MOL    C2617582   2.109   1.738   4.753 -0.0428 -0.0798 -0.7365
   39MOL    C2717583   2.220   1.722   4.654 -0.3362  0.0007  0.3337
   39MOL    O2817584   2.214   1.586   4.602 -0.1733 -0.0654 -0.5935
   39MOL    C2917585   2.310   1.537   4.527 -0.7004  0.1393 -0.1509
   39MOL    O3017586   2.417   1.593   4.499 -0.3782 -0.1582 -0.0534
   39MOL    C3117587   2.268   1.408   4.463 -0.4157  0.0219 -0.0645
   39MOL    C3217588   2.351   1.343   4.376  0.1288  0.5295 -0.4029
   39MOL    C3317589   2.310   1.227   4.310  1.4122  0.1135 -0.1505
   39MOL    C3417590   2.177   1.177   4.334  0.1743  0.1743 -0.2922
   39MOL    C3517591   2.133   1.048   4.280  0.3250 -0.0314  0.2191
   39MOL    O3617592   2.012   1.009   4.303 -0.5227  0.6807  0.2668
   39MOL    O3717593   2.225   0.987   4.192  0.1937 -0.4757 -0.2751
   39MOL    C3817594   2.092   1.240   4.425 -0.3994  0.0509 -0.3277
   39MOL    C3917595   2.137   1.353   4.488 -0.2535 -0.1062 -0.0641
   39MOL    H4017596   2.125   1.830   4.809 -0.9664  0.0873 -0.7459
   39MOL    H4117597   2.104   1.652   4.821  0.4712 -0.1502 -0.7870
   39MOL    H4217598   2.320   1.737   4.694 -0.1018  1.1679 -0.6697
   39MOL    H4317599   2.220   1.802   4.580 -1.9307  0.0955  0.4202
   39MOL    H4417600   2.449   1.384   4.361  0.3616  0.1807  0.1246
   39MOL    H4517601   2.379   1.170   4.249 -0.4103 -2.7994  0.4089
   39MOL    H4617602   1.990   1.206   4.440 -0.8216  2.0022  1.3919
   39MOL    H4717603   2.062   1.401   4.549  0.4312  1.9919 -0.8258
   39MOL    O4817604   2.169   0.873   4.116 -0.3862  0.2888 -0.1702
   39MOL    C4917605   2.244   0.755   4.156  0.0284 -0.8482  0.1361
   39MOL    C5017606   2.212   0.648   4.048  0.4824  0.0609 -0.4245
   39MOL    O5117607   2.264   0.694   3.921 -0.3330  0.0665 -0.4441
   39MOL    C5217608   2.295   0.616   3.823 -0.2855 -1.1138  0.4333
   39MOL    O5317609   2.277   0.498   3.823  0.1181 -0.1376 -0.4862
   39MOL    C5417610   2.357   0.684   3.714 -0.3567 -0.7470  0.7573
   39MOL    C5517611   2.398   0.616   3.592 -0.2771 -0.7262  0.3921
   39MOL    C5617612   2.475   0.682   3.492 -0.6270  0.0272 -0.4112
   39MOL    C5717613   2.509   0.820   3.516  0.2323 -0.2849  0.1764
   39MOL    C5817614   2.588   0.902   3.409 -0.0096  0.0283  0.0911
   39MOL    O5917615   2.592   1.028   3.414  0.4232 -0.3079 -0.1909
   39MOL    O6017616   2.650   0.825   3.320 -0.4799 -0.2204 -0.0292
   39MOL    C6117617   2.463   0.888   3.628 -0.6282 -0.2561 -0.2180
   39MOL    C6217618   2.406   0.817   3.729 -0.2240 -0.0907  0.2634
   39MOL    H6317619   2.352   0.772   4.151 -0.3296  1.7168  0.2833
   39MOL    H6417620   2.219   0.742   4.261 -1.5829 -1.1513 -0.2799
   39MOL    H6517621   2.105   0.634   4.057  1.0949 -3.1922  2.8731
   39MOL    H6617622   2.246   0.548   4.076  3.0238  1.5682  2.2160
   39MOL    H6717623   2.373   0.511   3.593 -0.0834 -0.7953 -0.9726
   39MOL    H6817624   2.505   0.631   3.401 -0.0155 -0.1159 -0.1270
   39MOL    H6917625   2.482   0.994   3.636  0.5429 -0.3385 -1.6472
   39MOL    H7017626   2.379   0.870   3.820  0.7379 -0.6191  0.8680
   39MOL    O7117627   2.754   0.894   3.238 -0.0582 -0.2330  0.2934
   39MOL    C7217628   2.882   0.876   3.288  0.0240 -0.3303 -0.7450
   39MOL    C7317629   2.922   0.729   3.268  0.4797 -0.2674  0.9720
   39MOL    O7417630   3.046   0.702   3.327 -0.5376 -0.4937 -0.6658
   39MOL    C7517631   3.162   0.748   3.266 -0.1828  0.2969 -0.3841
   39MOL    O7617632   3.162   0.802   3.158 -0.6687 -0.0041  0.2145
   39MOL    C7717633   3.288   0.718   3.338  0.8354 -0.1943 -0.5318
   39MOL    C7817634   3.416   0.708   3.270  0.3048  0.1689  0.7204
   39MOL    C7917635   3.533   0.681   3.337  0.0014 -0.7367  0.2401
   39MOL    C8017636   3.530   0.642   3.473 -0.3388  0.2871  0.3018
   39MOL    C8117637   3.659   0.599   3.533 -1.0365 -0.3790 -0.0660
   39MOL    O8217638   3.772   0.638   3.499  0.2406 -0.0425  0.8457
   39MOL    O8317639   3.637   0.523   3.639 -0.4787 -0.7193  0.3049
   39MOL    C8417640   3.408   0.640   3.548 -0.0975 -0.6116  0.0484
   39MOL    C8517641   3.291   0.679   3.476 -0.2591 -0.0833 -0.4369
   39MOL    H8617642   2.945   0.950   3.238  0.3987 -1.0530 -1.3494
   39MOL    H8717643   2.869   0.917   3.388 -1.3013  0.1651 -1.1082
   39MOL    H8817644   2.919   0.712   3.160 -2.7617  0.0679  0.9602
   39MOL    H8917645   2.857   0.652   3.309  0.5604 -0.0345  1.5487
   39MOL    H9017646   3.399   0.721   3.165 -0.2729  0.0067  0.7887
   39MOL    H9117647   3.625   0.688   3.281 -0.0420 -1.4184  0.0865
   39MOL    H9217648   3.402   0.600   3.649  0.0846  0.8295  0.6377
   39MOL    H9317649   3.198   0.685   3.531  0.3163  2.2895  0.3162
   39MOL    O9417650   3.759   0.523   3.735  0.5560  0.1484 -0.2841
   39MOL    C9517651   3.736   0.630   3.829  0.4483  0.1885 -0.0790
   39MOL    C9617652   3.808   0.587   3.952  0.2886 -1.0757 -0.1584
   39MOL    O9717653   3.766   0.455   3.978  0.2087 -0.2606 -0.1633
   39MOL    C9817654   3.673   0.422   4.080  0.0708 -0.0069 -0.0057
   39MOL    O9917655   3.631   0.497   4.165 -0.0119  0.4209  0.3359
   39MOL   C10017656   3.640   0.277   4.078  0.0180 -0.4757  0.3215
   39MOL   C10117657   3.653   0.206   3.960 -1.0237 -1.0807 -0.1869
   39MOL   C10217658   3.604   0.078   3.947 -0.6202  1.0463 -0.9054
   39MOL   C10317659   3.527   0.019   4.056  0.7330 -1.0219 -0.2620
   39MOL   C10417660   3.456   8.158   4.041 -0.4826 -0.7650 -0.2282
   39MOL   O10517661   3.486   8.077   3.956 -0.1558 -0.0925 -1.0392
   39MOL   O10617662   3.357   8.140   4.134  0.5230 -0.0236 -0.1280
   39MOL   C10717663   3.509   0.098   4.173  0.4041 -0.1117 -0.4665
   39MOL   C10817664   3.572   0.221   4.184 -0.3410 -0.2063  0.3848
   39MOL   H10917665   3.779   0.721   3.788  0.5403  0.1186 -0.1372
   39MOL   H11017666   3.628   0.630   3.841  0.3280 -1.8826 -0.8884
   39MOL   H11117667   3.791   0.654   4.037 -0.4611 -0.6149 -0.6677
   39MOL   H11217668   3.915   0.574   3.938 -0.0764 -2.2811 -2.0072
   39MOL   H11317669   3.709   0.244   3.875  1.1408 -3.1168  0.2736
   39MOL   H11417670   3.610   0.033   3.849  1.0675 -0.8924  0.0542
   39MOL   H11517671   3.459   0.051   4.257  0.9883 -0.8599 -0.5330
   39MOL   H11617672   3.554   0.269   4.280  1.2384  1.3454 -0.0603
   39MOL   O11717673   3.286   8.008   4.121 -0.0495 -0.4403 -0.4775
   39MOL   C11817674   3.155   8.032   4.068 -0.8516 -0.7008 -0.0356
   39MOL   C11917675   3.136   8.064   3.912 -0.6544  0.2369 -0.0955
   39MOL   O12017676   3.148   8.201   3.885  0.4083  0.7552 -0.0110
   39MOL   C12117677   3.049   0.003   3.889 -0.4092 -1.1001  0.5574
   39MOL   O12217678   2.932   8.239   3.894 -0.0224 -0.1781  0.4362
   39MOL   C12317679   3.096   0.145   3.874 -0.0764 -0.3785  0.5682
   39MOL   C12417680   3.000   0.243   3.872  1.0192 -0.3897  0.0111
   39MOL   C12517681   3.038   0.380   3.869  0.2387 -0.2699  0.3526
   39MOL   C12617682   3.175   0.415   3.866  0.1840 -0.7447 -0.5567
   39MOL   C12717683   3.222   0.557   3.891  0.3649  1.1120 -0.4857
   39MOL   O12817684   3.160   0.655   3.852  0.0172 -0.6230 -0.1401
   39MOL   O12917685   3.337   0.567   3.957 -0.4277  0.0795  1.1025
   39MOL   C13017686   3.278   0.313   3.854 -0.0970 -0.9000  0.3675
   39MOL   C13117687   3.235   0.180   3.854  0.4020 -0.0355  0.0994
   39MOL   H13217688   3.104   7.940   4.093 -1.8757 -0.8526 -2.5816
   39MOL   H13317689   3.100   8.108   4.123 -0.2467 -1.0455  1.0702
   39MOL   H13417690   3.036   8.027   3.889 -0.9510 -1.4756  3.5647
   39MOL   H13517691   3.210   8.013   3.851  0.3172 -0.3793  1.5568
   39MOL   H13617692   2.895   0.223   3.888  1.0538 -0.2891  0.3660
   39MOL   H13717693   2.967   0.459   3.890 -0.4117 -1.4788  2.8595
   39MOL   H13817694   3.382   0.338   3.866 -0.5570  0.7607  1.0087
   39MOL   H13917695   3.311   0.105   3.845 -1.3877 -1.7247 -1.4363
   39MOL   O14017696   3.392   0.709   3.968 -0.5142  0.1976  0.2385
   39MOL   C14117697   3.351   0.778   4.086  0.3618  0.3986 -0.7468
   39MOL   C14217698   3.448   0.894   4.103  0.0561 -0.9645 -0.1631
   39MOL   O14317699   3.558   0.866   4.197  0.0635  1.0732  0.5792
   39MOL   C14417700   3.687   0.881   4.156  0.6063  0.0805  0.1820
   39MOL   O14517701   3.722   0.884   4.036 -0.3345 -0.3578  0.2948
   39MOL   C14617702   3.783   0.876   4.269 -0.0817 -0.5383 -0.7402
   39MOL   C14717703   3.749   0.949   4.383  0.0585  0.6364 -0.6993
   39MOL   C14817704   3.837   0.943   4.499 -0.0719  0.0454  0.0934
   39MOL   C14917705   3.953   0.864   4.491  0.2523  0.2689  0.1336
   39MOL   C15017706   4.038   0.849   4.614  0.1526  0.3141  0.2017
   39MOL   O15117707   4.104   0.751   4.637  0.7122  0.1588 -0.9361
   39MOL   O15217708   4.029   0.956   4.692 -0.7672  0.3983 -0.0410
   39MOL   C15317709   3.995   0.798   4.371  0.5228 -0.1195  0.1834
   39MOL   C15417710   3.906   0.807   4.259  0.0817 -1.0491  0.2548
   39MOL   H15517711   3.250   0.816   4.079  0.1968  0.0316 -0.4104
   39MOL   H15617712   3.353   0.703   4.165  0.5939 -0.7232 -1.8079
   39MOL   H15717713   3.394   0.979   4.146  0.4478 -1.1289  0.6703
   39MOL   H15817714   3.492   0.931   4.010  2.1962 -0.5094  0.9954
   39MOL   H15917715   3.659   1.006   4.402  0.0324  0.3353  0.0926
   39MOL   H16017716   3.817   0.986   4.596  1.1362  0.2448  0.2570
   39MOL   H16117717   4.082   0.734   4.374 -0.0404 -1.1239 -2.9106
   39MOL   H16217718   3.935   0.756   4.169 -0.0887 -0.1874 -0.2977
   39MOL   O16317719   4.114   0.939   4.824  0.2240  0.4313  0.1284
   39MOL   C16417720   4.015   0.904   4.921 -0.2237 -0.3002  0.6164
   39MOL   C16517721   4.067   0.842   5.043 -0.5788  0.3840  0.2443
   39MOL   O16617722   3.960   0.816   5.128  0.3377 -0.1722 -0.8787
   39MOL   C16717723   3.950   0.857   5.255 -0.4197 -0.2145 -0.3771
   39MOL   O16817724   4.019   0.941   5.306  0.2316  0.2054 -0.1305
   39MOL   C16917725   3.850   0.767   5.327  0.5411 -0.6775  0.1329
   39MOL   C17017726   3.751   0.686   5.264  0.1375 -0.1940  0.2775
   39MOL   C17117727   3.667   0.605   5.343  0.3674  0.8570 -0.9345
   39MOL   C17217728   3.687   0.598   5.486 -0.0471  0.3342 -0.0714
   39MOL   C17317729   3.602   0.500   5.570  0.0961  0.1003 -0.0361
   39MOL   O17417730   3.605   0.500   5.695 -0.1694 -0.3884 -0.6403
   39MOL   O17517731   3.529   0.406   5.505 -0.3189  0.1386  0.2470
   39MOL   C17617732   3.784   0.683   5.542 -0.0059 -0.2284  0.5689
   39MOL   C17717733   3.861   0.770   5.464  0.2814 -0.2701  0.2540
   39MOL   H17817734   3.961   0.994   4.948 -2.2326 -0.5916 -2.1672
   39MOL   H17917735   3.938   0.844   4.872 -0.4209  0.2812  0.2072
   39MOL   H18017736   4.145   0.907   5.082 -0.5014  1.5226 -1.7468
   39MOL   H18117737   4.118   0.750   5.014  1.2548  1.4690 -0.0636
   39MOL   H18217738   3.731   0.681   5.158  4.5504  1.1998 -0.7362
   39MOL   H18317739   3.582   0.552   5.302  1.3808 -1.4983 -0.1024
   39MOL   H18417740   3.795   0.668   5.649 -1.9059  1.5084  1.0550
   39MOL   H18517741   3.947   0.823   5.502 -1.3149  0.0465  3.6934
   39MOL   O18617742   3.421   0.341   5.581 -0.2535  0.4755  0.2729
   39MOL   C18717743   3.467   0.220   5.657  0.4076  0.3376 -0.0345
   39MOL   C18817744   3.483   0.111   5.543  0.3422  0.3759 -0.9631
   39MOL   O18917745   3.474   8.256   5.609 -0.0967  0.1041  0.2636
   39MOL   C19017746   3.587   8.182   5.635 -0.3838  0.1863  0.6420
   39MOL   O19117747   3.697   8.222   5.590  0.4594 -0.7379  0.1823
   39MOL   C19217748   3.550   8.057   5.706 -0.0450 -0.3296 -0.3583
   39MOL   C19317749   3.654   7.961   5.730  0.6298 -0.7300 -0.2483
   39MOL   C19417750   3.634   7.856   5.811  0.5952 -0.3031 -0.4669
   39MOL   C19517751   3.514   7.831   5.877 -0.5829  0.1491 -1.3969
   39MOL   C19617752   3.512   7.728   5.984 -0.6260 -1.0520 -0.2806
   39MOL   O19717753   3.612   7.673   6.029 -0.0102  0.2075 -0.1530
   39MOL   O19817754   3.386   7.689   6.012 -0.3510  0.7183 -0.5038
   39MOL   C19917755   3.405   7.915   5.852 -0.2537  0.0272 -0.3412
   39MOL   C20017756   3.427   8.036   5.778  0.1484  0.3626 -0.8055
   39MOL   H20117757   3.563   0.231   5.707  1.1207  0.4473 -1.3956
   39MOL   H20217758   3.390   0.184   5.725  0.0658  1.8930  0.4116
   39MOL   H20317759   3.578   0.122   5.490  0.9785  0.0777  0.1107
   39MOL   H20417760   3.402   0.106   5.470  1.2770 -2.5158 -1.8802
   39MOL   H20517761   3.756   7.970   5.695  0.7732  0.3193  0.4038
   39MOL   H20617762   3.723   7.801   5.837 -0.3850 -1.7511 -0.0952
   39MOL   H20717763   3.312   7.902   5.904  0.7244  2.0677  2.0340
   39MOL   H20817764   3.345   8.105   5.764 -0.9660 -0.2294  2.1984
   39MOL   O20917765   3.390   7.597   6.136 -0.3264 -0.0976 -0.0666
   39MOL   C21017766   3.348   7.664   6.251  0.6692  0.5259 -0.1796
   39MOL   C21117767   3.206   7.712   6.254  0.1472 -0.3112 -0.7908
   39MOL   O21217768   3.174   7.750   6.388  0.2543 -0.4179  0.0785
   39MOL   C21317769   3.192   7.871   6.429  0.3477 -0.5003 -0.0401
   39MOL   O21417770   3.227   7.967   6.353  0.0904  0.0240 -0.3114
   39MOL   C21517771   3.155   7.902   6.568  0.3200 -0.4708  0.3253
   39MOL   C21617772   3.056   7.829   6.632  0.7684 -0.8051 -0.1620
   39MOL   C21717773   3.020   7.859   6.765 -0.1007 -0.1636 -0.3303
   39MOL   C21817774   3.103   7.941   6.842  0.3325 -0.1051 -0.4263
   39MOL   C21917775   3.089   7.944   6.996 -0.0075 -0.1105  0.0357
   39MOL   O22017776   2.982   7.939   7.057  0.2515 -0.2578  0.0128
   39MOL   O22117777   3.208   7.959   7.059 -0.4188 -0.3183  0.4122
   39MOL   C22217778   3.210   8.007   6.787  0.2951 -0.2503  0.3086
   39MOL   C22317779   3.232   7.992   6.643 -0.6356  0.1088 -0.0130
   39MOL   H22417780   3.363   7.593   6.332 -0.3717 -0.3982 -0.7789
   39MOL   H22517781   3.426   7.740   6.259  1.3879 -0.2419  0.1625
   39MOL   H22617782   3.133   7.637   6.222 -1.0234  0.3627  0.2565
   39MOL   H22717783   3.196   7.802   6.195  2.4015  0.2189 -0.4309
   39MOL   H22817784   2.999   7.763   6.568 -0.3453  2.0711 -2.2474
   39MOL   H22917785   2.935   7.810   6.810  2.5186 -3.5183  1.1873
   39MOL   H23017786   3.276   8.075   6.841  0.2789  0.4845 -0.5768
   39MOL   H23117787   3.311   8.046   6.592 -1.7651  1.5290 -0.2969
   39MOL   O23217788   3.204   8.007   7.207  0.3045 -0.0428  0.6224
   39MOL   C23317789   3.193   7.889   7.289 -0.3370  0.6992 -0.5803
   39MOL   C23417790   3.318   7.800   7.284  0.9881 -1.0892  0.1372
   39MOL   O23517791   3.325   7.724   7.167 -0.1543  0.0089 -0.2177
   39MOL   C23617792   3.323   7.591   7.164 -1.0127 -0.5259  0.1793
   39MOL   O23717793   3.323   7.520   7.262 -0.5276  0.4425  0.5061
   39MOL   C23817794   3.319   7.537   7.025  0.0228 -0.8474 -0.6243
   39MOL   C23917795   3.289   7.629   6.919 -0.1944  0.6287 -0.2284
   39MOL   C24017796   3.286   7.582   6.786 -0.1276  0.4818  0.0109
   39MOL   C24117797   3.306   7.443   6.758  0.2595 -0.2947 -0.2949
   39MOL   C24217798   3.298   7.392   6.619  0.4869 -0.2630 -0.0222
   39MOL   O24317799   3.349   7.287   6.591  0.1974  0.1597 -0.2274
   39MOL   O24417800   3.243   7.470   6.530  0.3170  0.6358  0.0719
   39MOL   C24517801   3.318   7.355   6.861 -0.2654  0.5772 -1.0788
   39MOL   C24617802   3.331   7.398   6.996 -0.7540 -0.2639 -0.0340
   39MOL   H24717803   3.172   7.923   7.391 -2.4252  1.6409 -1.3067
   39MOL   H24817804   3.105   7.836   7.253  0.1680 -0.6744  0.1770
   39MOL   H24917805   3.325   7.744   7.377 -2.4567 -0.5955  0.7713
   39MOL   H25017806   3.404   7.866   7.291  0.5339 -0.2893 -1.5994
   39MOL   H25117807   3.290   7.737   6.925 -0.3615  0.8007 -2.8544
   39MOL   H25217808   3.286   7.651   6.703 -1.5856 -0.0434 -0.4430
   39MOL   H25317809   3.329   7.248   6.848 -0.3751  0.1484  2.1226
   39MOL   H25417810   3.364   7.329   7.072  2.0805 -0.1377 -1.0491
   39MOL   O25517811   3.231   7.415   6.390  0.2616  0.3363 -0.2912
   39MOL   C25617812   3.107   7.351   6.374  0.5024  0.2915  0.6904
   39MOL   C25717813   2.994   7.447   6.411  0.2666 -0.2440 -0.4881
   39MOL   O25817814   2.974   7.460   6.554 -0.4668  0.1559 -0.0306
   39MOL   C25917815   2.920   7.362   6.626 -1.0845 -0.0080  0.2407
   39MOL   O26017816   2.876   7.258   6.583  0.0188  0.1666  0.1893
   39MOL   C26117817   2.928   7.403   6.766 -0.3422  0.3777  0.4807
   39MOL   C26217818   2.941   7.311   6.869  0.2155  0.8936 -0.0756
   39MOL   C26317819   2.948   7.347   7.004  0.6948 -0.0378 -0.3655
   39MOL   C26417820   2.914   7.478   7.046 -0.6868  0.2558  0.3834
   39MOL   C26517821   2.930   7.528   7.189 -0.0196 -0.2457 -0.4994
   39MOL   O26617822   2.919   7.647   7.225 -0.1117 -0.3057  0.1557
   39MOL   O26717823   2.951   7.426   7.275 -0.1936  0.4804 -0.6992
   39MOL   C26817824   2.884   7.572   6.943  0.3245 -0.1648 -0.4876
   39MOL   C26917825   2.893   7.535   6.802 -0.2185 -0.6458 -0.3559
   39MOL   H27017826   3.083   7.323   6.272  1.1629 -0.6284  0.7882
   39MOL   H27117827   3.116   7.263   6.438 -2.5921  0.5118  1.5473
   39MOL   H27217828   2.910   7.406   6.356  0.0252 -0.4549  0.0334
   39MOL   H27317829   3.015   7.545   6.368  0.8063  0.5331  1.5117
   39MOL   H27417830   2.958   7.210   6.833 -0.1193  1.0253 -0.6145
   39MOL   H27517831   2.983   7.270   7.070 -0.1478 -1.2879 -1.3528
   39MOL   H27617832   2.853   7.672   6.968  1.1861  0.7173 -2.7742
   39MOL   H27717833   2.869   7.614   6.733  0.4141 -0.7873 -0.7333
   39MOL   O27817834   2.937   7.472   7.420 -0.1387 -0.1600 -0.1294
   39MOL   C27917835   3.065   7.491   7.470  0.2266 -0.0043  0.2053
   39MOL   C28017836   3.075   7.454   7.612  0.3736 -0.2450 -0.2241
   39MOL   O28117837   2.986   7.525   7.697  0.1219 -0.3310 -0.4407
   39MOL   C28217838   3.016   7.645   7.757  0.6593  0.6019  0.1027
   39MOL   O28317839   3.104   7.716   7.716 -0.6346 -0.7839  0.3083
   39MOL   C28417840   2.923   7.681   7.873 -0.7432  0.5156  0.4482
   39MOL   C28517841   2.956   7.788   7.957 -0.2745  0.5510 -0.5108
   39MOL   C28617842   2.894   7.821   8.079  0.2839 -0.1803 -0.2588
   39MOL   C28717843   2.783   7.739   8.115  0.0691  0.1468 -0.7839
   39MOL   C28817844   2.692   7.778   8.230 -0.1158 -0.1989  0.2964
   39MOL   O28917845   2.591   7.716   8.265  0.1019  0.1416  0.2802
   39MOL   O29017846   2.746   7.892   0.017  0.1079 -0.2433  0.3000
   39MOL   C29117847   2.732   7.638   8.021 -0.2855 -0.6631 -0.0486
   39MOL   C29217848   2.812   7.607   7.905  0.1528  0.4833 -0.0256
   39MOL   H29317849   3.128   7.425   7.411 -1.1218  0.0793 -1.3649
   39MOL   H29417850   3.100   7.591   7.446 -2.3663  0.8318 -0.2127
   39MOL   H29517851   3.175   7.463   7.655  0.5518 -1.3615 -0.4082
   39MOL   H29617852   3.046   7.349   7.614  0.6938 -0.3553 -1.2961
   39MOL   H29717853   3.041   7.846   7.926 -0.0673 -0.9728 -2.9299
   39MOL   H29817854   2.919   7.906   8.141 -4.8386  1.0073  0.4309
   39MOL   H29917855   2.641   7.583   8.036  0.0025 -0.7915  1.3014
   39MOL   H30017856   2.783   7.520   7.848  1.5970 -0.7022  1.0081
   39MOL   O30117857   2.662   7.936   0.133 -0.5523  0.9004 -0.4597
   39MOL   C30217858   2.585   8.041   0.076  0.2735 -0.2206 -0.2574
   39MOL   C30317859   2.671   8.150   0.011  0.7166  0.5355 -0.2724
   39MOL   O30417860   2.591   8.260   8.233 -0.0976  0.4927 -0.1885
   39MOL   C30517861   2.574   0.094   0.047 -0.6437  0.6509 -0.0149
   39MOL   O30617862   2.588   0.085   0.169  0.0105 -0.5391  0.5520
   39MOL   C30717863   2.518   0.207   8.242 -0.1480  0.1591 -0.1030
   39MOL   C30817864   2.548   0.217   8.104  0.7329 -0.1018  0.3816
   39MOL   C30917865   2.509   0.324   8.024 -0.2980  0.1905  0.3662
   39MOL   C31017866   2.426   0.424   8.076 -0.6959 -0.0775 -0.5570
   39MOL   C31117867   2.373   0.539   7.991 -0.4061 -1.1353 -0.5155
   39MOL   O31217868   2.316   0.636   8.048 -0.4116 -0.0725  0.3617
   39MOL   O31317869   2.403   0.532   7.864 -0.0043  0.1512  0.4007
   39MOL   C31417870   2.401   0.416   8.215  0.2158 -1.1374 -0.4079
   39MOL   C31517871   2.439   0.306   0.019 -0.2542 -0.4213 -0.0324
   39MOL   H31617872   2.505   8.004   0.012 -0.7775  1.0685  0.2791
   39MOL   H31717873   2.532   8.085   0.161  0.2802 -1.8125  0.5842
   39MOL   H31817874   2.729   8.114   8.202  0.7700  1.6299 -0.7137
   39MOL   H31917875   2.749   8.199   0.071  2.4765 -1.2710 -1.0147
   39MOL   H32017876   2.611   0.144   8.055  2.5270  1.1865  0.7013
   39MOL   H32117877   2.543   0.308   7.923  1.8841  0.9450  0.9633
   39MOL   H32217878   2.337   0.492   8.259  1.5270 -0.9470  1.2090
   39MOL   H32317879   2.404   0.305   0.121  1.9469 -0.0551  0.7620
   39MOL   O32417880   2.337   0.640   7.784 -0.3849 -0.1162  0.0940
   39MOL   C32517881   2.285   0.591   7.673 -0.4533  0.2117 -0.1907
   39MOL   C32617882   2.224   0.699   7.589 -0.4760 -0.3872  0.2158
   39MOL   O32717883   2.316   0.803   7.562 -0.0295  0.0790  0.0825
   39MOL   C32817884   2.296   0.891   7.458  0.1187  0.1876  0.5445
   39MOL   O32917885   2.195   0.883   7.383  0.1249 -0.6993  0.2268
   39MOL   C33017886   2.401   0.992   7.446  0.4297  0.7836  0.9273
   39MOL   C33117887   2.426   1.048   7.321 -0.1288  0.7870  0.1864
   39MOL   C33217888   2.537   1.134   7.295 -0.3076 -0.0902 -0.8910
   39MOL   C33317889   2.621   1.178   7.407  0.3406 -0.1395 -0.2320
   39MOL   C33417890   2.734   1.272   7.386 -0.2474 -0.1493  0.4931
   39MOL   O33517891   2.809   1.308   7.485  0.5956  0.0476 -0.3618
   39MOL   O33617892   2.752   1.318   7.259  0.4778  0.1311 -0.1094
   39MOL   C33717893   2.587   1.129   7.533  0.3189 -0.2530 -0.1294
   39MOL   C33817894   2.482   1.034   7.555  1.0028  0.3895 -0.2581
   39MOL   H33917895   2.366   0.543   7.619  1.3153  3.0571 -0.1436
   39MOL   H34017896   2.216   0.509   7.695  0.1809 -0.3254 -0.2068
   39MOL   H34117897   2.129   0.734   7.627 -1.5298 -0.5293 -2.2149
   39MOL   H34217898   2.185   0.659   7.496  1.9688 -2.1577 -0.1235
   39MOL   H34317899   2.379   1.007   7.232  0.4844  1.0908 -0.2829
   39MOL   H34417900   2.565   1.157   7.193 -0.7586  0.3275 -0.9223
   39MOL   H34517901   2.640   1.160   7.622 -1.7025  0.9812  0.6888
   39MOL   H34617902   2.477   0.991   7.654  0.0073 -1.2788 -1.0055
   39MOL   O34717903   2.867   1.401   7.236 -0.3207 -0.3138  0.0297
   39MOL   C34817904   2.980   1.320   7.221 -0.1467  1.1899  0.1747
   39MOL   C34917905   2.973   1.219   7.103 -0.0715  1.0624  0.7947
   39MOL   O35017906   2.905   1.102   7.135 -0.1154 -0.0857  0.1051
   39MOL   C35117907   2.814   1.050   7.048 -0.2887  0.6768  0.0033
   39MOL   O35217908   2.804   1.086   6.931 -0.5990  0.0847  0.1199
   39MOL   C35317909   2.740   0.936   7.098 -0.1013  0.2668 -0.1737
   39MOL   C35417910   2.716   0.901   7.234  0.1445  0.7395  0.3564
   39MOL   C35517911   2.636   0.790   7.275  0.4272  0.3452  0.0350
   39MOL   C35617912   2.565   0.719   7.177 -0.5021 -0.2582  0.2568
   39MOL   C35717913   2.477   0.601   7.210  0.6199  0.3075 -0.7467
   39MOL   O35817914   2.408   0.531   7.132  0.4805 -0.3887 -0.2841
   39MOL   O35917915   2.480   0.571   7.343 -0.2916  0.1968  0.1556
   39MOL   C36017916   2.598   0.739   7.041  0.3787  0.3030  0.0699
   39MOL   C36117917   2.684   0.848   7.003 -0.6836  0.8995 -0.3007
   39MOL   H36217918   3.062   1.390   7.209  0.9756 -0.0338  0.6233
   39MOL   H36317919   3.004   1.263   7.310  3.5186 -0.1061 -1.5476
   39MOL   H36417920   3.078   1.195   7.087  0.0835  2.2607 -0.0959
   39MOL   H36517921   2.945   1.273   7.013 -0.7069 -0.4094  0.1088
   39MOL   H36617922   2.766   0.972   7.299 -0.2828  1.2596  0.1236
   39MOL   H36717923   2.627   0.769   7.381  2.8675 -0.2366  0.1474
   39MOL   H36817924   2.540   0.679   6.973 -0.0113 -0.1521  0.8008
   39MOL   H36917925   2.701   0.860   6.897 -3.3134 -0.3146 -0.8937
   39MOL   O37017926   2.455   0.427   7.376 -0.4320  0.7521  0.7680
   39MOL   C37117927   2.579   0.361   7.385  0.1261  0.7311  0.1608
   39MOL   C37217928   2.637   0.350   7.527 -0.2381  0.5703 -0.2122
   39MOL   O37317929   2.666   0.478   7.584  0.5717  0.0571  0.7281
   39MOL   C37417930   2.705   0.481   7.716 -0.9468  0.1054  0.0075
   39MOL   O37517931   2.733   0.379   7.781 -0.1905  0.0427  0.0561
   39MOL   C37617932   2.696   0.618   7.770 -0.7438  1.1014 -0.5318
   39MOL   C37717933   2.688   0.625   7.912 -0.3101  0.2570  0.0458
   39MOL   C37817934   2.681   0.754   7.975  0.0669  0.7573 -0.4711
   39MOL   C37917935   2.679   0.872   7.901  0.3912  0.0491 -0.2601
   39MOL   C38017936   2.662   1.003   7.966 -0.2898  0.2504  0.1741
   39MOL   O38117937   2.632   1.019   8.082 -0.2094 -0.3562 -0.2265
   39MOL   O38217938   2.665   1.102   7.871 -0.5940  0.1106 -0.1142
   39MOL   C38317939   2.694   0.860   7.762 -0.1351  0.1727  0.2195
   39MOL   C38417940   2.710   0.735   7.697  0.1561 -0.1400 -0.0128
   39MOL   H38517941   2.556   0.258   7.360 -2.8981  1.4525 -0.3180
   39MOL   H38617942   2.652   0.401   7.315  0.4356 -2.0382 -1.1420
   39MOL   H38717943   2.733   0.299   7.528 -0.3994  0.2557 -0.5191
   39MOL   H38817944   2.553   0.311   7.584  0.1897 -2.6645 -1.6612
   39MOL   H38917945   2.687   0.532   7.967  1.3604  0.9613  1.3131
   39MOL   H39017946   2.658   0.761   8.081  1.2381 -0.7999 -0.0885
   39MOL   H39117947   2.696   0.942   7.692  0.7246 -0.3319 -0.3559
   39MOL   H39217948   2.715   0.724   7.590 -1.0278 -0.8956 -0.0033
   39MOL   O39317949   2.635   1.244   7.925  0.0988  0.5889  0.3643
   39MOL   C39417950   2.502   1.276   7.889 -0.0611 -0.3071  0.1878
   39MOL   C39517951   2.502   1.425   7.854  0.4230 -0.2890 -0.2635
   39MOL   O39617952   2.379   1.479   7.811  0.3326  0.1479 -0.0768
   39MOL   C39717953   2.277   1.520   7.883 -0.1468 -0.0321  0.3208
   39MOL   O39817954   2.280   1.515   8.003  0.3057  0.2247  0.4579
   39MOL   C39917955   2.163   1.579   7.809  0.4376 -0.0273 -0.1656
   39MOL   C40017956   2.165   1.608   7.673  0.2183  0.9008 -0.2619
   39MOL   C40117957   2.051   1.678   7.617 -0.4546 -0.3389  0.7196
   39MOL   C40217958   1.957   1.742   7.698 -0.5879  0.5292 -0.1424
   39MOL   C40317959   1.844   1.822   7.640  0.2333  0.1287  0.0921
   39MOL   O40417960   1.809   1.802   7.524 -0.6159  0.5376  0.4656
   39MOL   O40517961   1.812   1.924   7.716 -0.2389  0.4620 -0.5425
   39MOL   C40617962   1.966   1.726   7.833  0.3392  0.5581  0.0781
   39MOL   C40717963   2.064   1.642   7.889 -0.4160  0.1210 -0.0101
   39MOL   H40817964   2.444   1.229   7.809 -0.2314  1.6897 -0.8943
   39MOL   H40917965   2.438   1.262   7.976 -2.5934  1.8764 -1.2287
   39MOL   H41017966   2.563   1.450   7.767  2.5250 -0.9960  0.9990
   39MOL   H41117967   2.533   1.489   7.936  0.4534 -1.3753  0.5741
   39MOL   H41217968   2.237   1.568   7.603  1.8347  1.5659  1.0110
   39MOL   H41317969   2.062   1.710   7.514  2.4075 -1.1042  0.7426
   39MOL   H41417970   1.891   1.759   7.904  0.7739 -0.0316  0.8257
   39MOL   H41517971   2.063   1.632   7.997 -0.2378 -1.0476 -0.1113
   39MOL   O41617972   1.696   2.008   7.663  0.3773 -0.4042 -0.0791
   39MOL   C41717973   1.581   1.969   7.725 -1.0243  0.0474 -0.5952
   39MOL   C41817974   1.462   2.037   7.671  0.1891  0.0831  0.7938
   39MOL   O41917975   1.359   1.937   7.683 -0.3043 -0.0426  0.2445
   39MOL   C42017976   1.284   1.933   7.801 -0.2754 -0.2135  0.0771
   39MOL   O42117977   1.303   2.010   7.897  0.2783 -0.3247  0.0903
   39MOL   C42217978   1.179   1.829   7.801  0.4680 -0.4623  0.6729
   39MOL   C42317979   1.169   1.722   7.710  0.0396  0.6336  0.6228
   39MOL   C42417980   1.048   1.644   7.705 -0.3920 -0.5597 -0.3967
   39MOL   C42517981   0.939   1.666   7.796 -0.9541 -0.1762 -0.2509
   39MOL   C42617982   0.828   1.563   7.811 -0.0265 -0.0257  0.1589
   39MOL   O42717983   0.812   1.483   7.721  0.0330  0.3217  0.2364
   39MOL   O42817984   0.767   1.567   7.931  0.3314  0.5742  0.0152
   39MOL   C42917985   0.951   1.777   7.882  0.6234  0.6146 -0.0812
   39MOL   C43017986   1.067   1.851   7.884  0.3585  1.0264  0.1405
   39MOL   H43117987   1.582   1.860   7.729  1.1993  0.0364 -0.5431
   39MOL   H43217988   1.586   2.001   7.829  1.7761 -1.0698 -0.3301
   39MOL   H43317989   1.489   2.066   7.570  0.1682 -0.9181  0.4936
   39MOL   H43417990   1.430   2.128   7.721 -0.2703  0.8483 -0.8692
   39MOL   H43517991   1.254   1.701   7.647  1.4367 -1.6167  3.1358
   39MOL   H43617992   1.032   1.573   7.625 -0.6171 -1.8250  0.7622
   39MOL   H43717993   0.879   1.792   7.961 -0.3419  3.2900 -1.4050
   39MOL   H43817994   1.073   1.930   7.958 -0.9039 -1.5214  3.1285
   39MOL   O43917995   0.656   1.470   7.945 -1.1249 -0.1427 -0.0335
   39MOL   C44017996   0.707   1.360   8.017  0.8081  0.4304  0.5731
   39MOL   C44117997   0.733   1.388   8.166  0.9742 -0.2894 -0.1080
   39MOL   O44217998   0.859   1.447   8.197  0.2080  0.7181 -0.2082
   39MOL   C44317999   0.903   1.464   0.047  0.3621 -0.1830 -0.2877
   39MOL   O44418000   0.855   1.416   0.148 -0.4475  0.4435 -0.0212
   39MOL   C44518001   1.012   1.561   0.048  0.3855 -0.8290  0.5797
   39MOL   C44618002   1.047   1.637   8.212 -0.3932  0.0425  0.7566
   39MOL   C44718003   1.142   1.738   8.215  0.8517 -0.2193  0.7533
   39MOL   C44818004   1.193   1.785   0.060  0.5720  0.0035 -0.0520
   39MOL   C44918005   1.281   1.909   0.070  0.2448 -0.1851 -0.3377
   39MOL   O45018006   1.301   1.973   8.248 -0.1478 -0.3279 -0.0295
   39MOL   O45118007   1.337   1.938   0.194  0.7282 -0.1997  0.0242
   39MOL   C45218008   1.160   1.709   0.174 -0.4301  0.9152  0.1165
   39MOL   C45318009   1.078   1.595   0.163  0.0325  0.6577 -0.7541
   39MOL   H45418010   0.630   1.283   8.009  2.9490 -1.7312  0.3572
   39MOL   H45518011   0.800   1.326   7.972  0.7840  2.0923 -0.7997
   39MOL   H45618012   0.736   1.287   8.208 -1.6713 -0.1247  0.5670
   39MOL   H45718013   0.650   1.443   8.209  1.8774  0.3397  0.8646
   39MOL   H45818014   0.988   1.625   8.122 -0.9596  1.6548  0.8857
   39MOL   H45918015   1.167   1.797   8.128  0.4692  0.2807  0.9799
   39MOL   H46018016   1.195   1.735   0.273  1.5409  2.6010 -1.0024
   39MOL   H46118017   1.046   1.546   0.254  1.6388  0.0626 -0.4960
   39MOL   H46218018   1.371   2.024   0.174  0.5591 -0.1250  0.0575
   40MOL     O118019   6.597   5.919   1.811 -0.2648 -0.0085  0.0443
   40MOL     C218020   6.463   5.899   1.791  0.3642  0.3425  0.3067
   40MOL     C318021   6.394   6.019   1.730  0.4218  0.1615  0.0542
   40MOL     O418022   6.378   6.120   1.828 -0.0968  0.1407 -0.4292
   40MOL     C518023   6.268   6.120   1.902 -0.5805 -0.0517  0.2495
   40MOL     O618024   6.175   6.043   1.894  0.2901 -0.1057  0.0664
   40MOL     C718025   6.266   6.229   2.011 -0.0371  0.4442  0.0029
   40MOL     C818026   6.375   6.321   2.029 -0.9739 -0.4680  0.2651
   40MOL     C918027   6.366   6.441   2.116  0.8787 -0.3321  0.2461
   40MOL    C1018028   6.260   6.441   2.210 -0.3846 -0.4743  0.7168
   40MOL    C1118029   6.253   6.536   2.323  0.1450 -0.4713 -0.4775
   40MOL    O1218030   6.161   6.528   2.405  0.3402  0.4798 -0.2963
   40MOL    O1318031   6.372   6.597   2.353 -0.0085  0.4332 -0.0945
   40MOL    C1418032   6.157   6.343   2.196  0.0097 -0.1570 -0.1820
   40MOL    C1518033   6.158   6.247   2.095 -0.0255  0.0940  0.1605
   40MOL    H1618034   6.473   5.819   1.718  0.7343  0.2737  0.4327
   40MOL    H1718035   6.427   5.856   1.884 -0.6170 -1.2428 -0.7845
   40MOL    H1818036   6.298   5.989   1.688 -0.6465  1.6069  1.3802
   40MOL    H1918037   6.459   6.037   1.645  0.3972 -1.5737 -0.3493
   40MOL    H2018038   6.462   6.298   1.971 -0.4796 -0.3954  0.9714
   40MOL    H2118039   6.442   6.518   2.126 -0.6604  1.0833  1.2572
   40MOL    H2218040   6.077   6.336   2.269  0.3328  3.0488  0.5580
   40MOL    H2318041   6.081   6.172   2.085  1.7768 -1.5071 -2.0294
   40MOL    H2418042   6.607   5.954   1.898  1.3581  1.4654 -0.7050
   40MOL    O2518043   6.348   6.730   2.426  0.4892  0.0283 -0.5170
   40MOL    C2618044   6.364   6.708   2.560  0.7289 -0.2991 -0.2990
   40MOL    C2718045   6.312   6.831   2.647  0.0037 -1.0138  1.0394
   40MOL    O2818046   6.169   6.824   2.673  0.2590 -0.1568 -0.0836
   40MOL    C2918047   6.112   6.740   2.760  0.4430 -0.1032  0.0719
   40MOL    O3018048   6.177   6.669   2.837  0.2006 -0.1093 -0.2564
   40MOL    C3118049   5.968   6.755   2.771  0.3105  0.1140 -0.1149
   40MOL    C3218050   5.885   6.784   2.662  0.3662  0.4371  0.0336
   40MOL    C3318051   5.747   6.780   2.679  0.6137  0.4080 -0.2211
   40MOL    C3418052   5.690   6.761   2.804 -0.3650 -0.5954 -0.4703
   40MOL    C3518053   5.541   6.765   2.822  1.3098 -0.3114 -0.1995
   40MOL    O3618054   5.461   6.761   2.724  0.0739  0.0416  0.4192
   40MOL    O3718055   5.497   6.773   2.951 -0.9330 -0.0440 -0.5173
   40MOL    C3818056   5.769   6.746   2.922 -0.3661 -0.8680 -0.1451
   40MOL    C3918057   5.909   6.734   2.898 -0.4639  0.6827  0.0117
   40MOL    H4018058   6.316   6.621   2.603  0.4291 -0.5856 -1.2150
   40MOL    H4118059   6.468   6.685   2.585  1.2580  1.3866 -0.8770
   40MOL    H4218060   6.334   6.931   2.610 -0.5033 -1.2498  0.0561
   40MOL    H4318061   6.352   6.836   2.748  2.0694 -0.1108  0.2004
   40MOL    H4418062   5.923   6.813   2.565  2.0644 -0.3403  0.4548
   40MOL    H4518063   5.690   6.792   2.588  1.1196 -0.9848 -0.7333
   40MOL    H4618064   5.720   6.723   3.015  0.2188  0.1295  0.4128
   40MOL    H4718065   5.972   6.710   2.982 -0.1633 -1.5445 -0.8393
   40MOL    O4818066   5.353   6.829   2.962  0.2069 -0.0296  0.0852
   40MOL    C4918067   5.371   6.970   2.966 -0.7140  0.0183  0.1869
   40MOL    C5018068   5.377   7.034   3.101 -0.2244  0.0553  0.2311
   40MOL    O5118069   5.245   7.022   3.157  0.1903 -0.3782 -0.9340
   40MOL    C5218070   5.231   7.005   3.293  0.5685  0.3744  0.0659
   40MOL    O5318071   5.325   6.981   3.367  0.1458  0.3395  0.5033
   40MOL    C5418072   5.087   7.012   3.333  0.1887  0.3546 -0.2935
   40MOL    C5518073   4.987   7.040   3.234 -0.2507  0.0845  1.3744
   40MOL    C5618074   4.855   7.073   3.272 -0.7917 -0.4272 -0.0311
   40MOL    C5718075   4.822   7.063   3.410  0.0615  0.6583 -0.1466
   40MOL    C5818076   4.681   7.089   3.459 -0.7179 -0.1635  0.5276
   40MOL    O5918077   4.651   7.064   3.576  0.3025 -0.1019  0.0299
   40MOL    O6018078   4.606   7.136   3.367 -0.1104 -0.1442  0.0373
   40MOL    C6118079   4.920   7.024   3.509  0.6262  0.3072 -0.3880
   40MOL    C6218080   5.055   7.012   3.469  0.9074 -0.1025 -0.3725
   40MOL    H6318081   5.449   7.009   2.901  0.3139 -1.7788  0.3060
   40MOL    H6418082   5.279   7.006   2.919 -0.9167  1.4094  1.5951
   40MOL    H6518083   5.397   7.141   3.094 -1.9782  0.2976 -1.2562
   40MOL    H6618084   5.450   6.977   3.158  0.2652 -0.0982 -0.5593
   40MOL    H6718085   5.013   7.024   3.131 -1.9165  0.3436  0.8961
   40MOL    H6818086   4.785   7.101   3.196 -1.6747  0.9326  1.2574
   40MOL    H6918087   4.898   7.012   3.614  1.4475  1.4128 -0.0761
   40MOL    H7018088   5.137   7.006   3.538  0.5541 -2.1224 -0.1156
   40MOL    O7118089   4.467   7.149   3.411  0.3877 -0.3220 -0.2593
   40MOL    C7218090   4.396   7.026   3.388  0.4910  0.0371  0.2661
   40MOL    C7318091   4.331   7.001   3.251 -0.0017 -0.2664 -0.3055
   40MOL    O7418092   4.423   6.998   3.148 -0.1356  0.2862 -0.3758
   40MOL    C7518093   4.376   6.997   3.020 -0.6316 -0.5668 -0.4423
   40MOL    O7618094   4.258   6.990   2.989  0.3728 -0.3881  0.1132
   40MOL    C7718095   4.482   7.027   2.917 -0.0197  0.2102 -0.1810
   40MOL    C7818096   4.443   7.057   2.786 -0.3080  0.1933 -0.4644
   40MOL    C7918097   4.542   7.094   2.695 -0.6418 -0.2313  0.3245
   40MOL    C8018098   4.682   7.090   2.727  0.2163  0.2301 -1.1412
   40MOL    C8118099   4.788   7.121   2.625 -0.1828 -0.4191  0.1456
   40MOL    O8218100   4.760   7.128   2.506 -0.9643 -0.0233  0.0114
   40MOL    O8318101   4.916   7.130   2.665  0.6527  0.1481  0.2971
   40MOL    C8418102   4.718   7.061   2.863  0.2546 -0.8459  0.2903
   40MOL    C8518103   4.618   7.028   2.955  0.4762  0.1422  0.5332
   40MOL    H8618104   4.467   6.943   3.397  0.3594  0.0329  1.3335
   40MOL    H8718105   4.315   7.018   3.461  0.7615  0.8891  0.6693
   40MOL    H8818106   4.253   7.072   3.224  0.5730  0.3354 -0.3904
   40MOL    H8918107   4.288   6.901   3.261  1.4719 -0.5941  3.3235
   40MOL    H9018108   4.339   7.062   2.755 -1.0261  1.6912  1.9958
   40MOL    H9118109   4.520   7.127   2.595  0.0397  2.0641  0.8861
   40MOL    H9218110   4.821   7.064   2.897 -0.7129  3.3622  3.3001
   40MOL    H9318111   4.646   7.010   3.057 -0.2249  2.6498  1.2018
   40MOL    O9418112   5.017   7.148   2.554  0.8007  0.5241 -0.1928
   40MOL    C9518113   5.073   7.278   2.557 -0.1560 -0.1122 -0.1559
   40MOL    C9618114   5.187   7.296   2.459  0.4801 -0.0218 -0.8029
   40MOL    O9718115   5.195   7.435   2.437  0.7028 -0.1794 -0.1450
   40MOL    C9818116   5.259   7.511   2.527  0.4357 -0.1002 -0.9289
   40MOL    O9918117   5.314   7.460   2.625 -0.2673 -0.0817  0.0715
   40MOL   C10018118   5.249   7.652   2.494  0.1933  1.2786 -0.6571
   40MOL   C10118119   5.333   7.748   2.562  0.2722  0.7116 -0.6015
   40MOL   C10218120   5.308   7.882   2.544  0.0468 -0.5918 -0.0006
   40MOL   C10318121   5.212   7.924   2.457  0.4034  0.0906 -0.4220
   40MOL   C10418122   5.177   8.072   2.452  0.1992  0.4544  0.6123
   40MOL   O10518123   5.058   8.114   2.440 -0.3104  0.3207  0.3002
   40MOL   O10618124   5.282   8.154   2.475 -0.0460 -0.3582 -0.2201
   40MOL   C10718125   5.143   7.835   2.381  0.2722 -0.3338 -0.3676
   40MOL   C10818126   5.147   7.697   2.401 -0.2499 -1.0098 -0.0749
   40MOL   H10918127   5.000   7.359   2.545 -0.2838 -0.2550 -0.3653
   40MOL   H11018128   5.115   7.291   2.657 -0.1322 -1.2280 -0.0203
   40MOL   H11118129   5.157   7.255   2.363  2.6731 -3.5508 -0.0482
   40MOL   H11218130   5.279   7.253   2.498  1.0298  0.6522 -1.3571
   40MOL   H11318131   5.404   7.717   2.637  0.7475  0.2033 -1.2592
   40MOL   H11418132   5.365   7.958   2.595 -1.3806 -0.8943  2.1068
   40MOL   H11518133   5.072   7.867   2.306  0.3940  0.4472 -0.1525
   40MOL   H11618134   5.099   7.624   2.338  0.9634 -3.5407  1.8536
   40MOL   O11718135   5.257   0.023   2.429  0.7790  0.7029 -0.0278
   40MOL   C11818136   5.309   0.040   2.304 -0.1441  0.5290 -0.1914
   40MOL   C11918137   5.299   0.191   2.258 -0.4820 -0.5786  0.1480
   40MOL   O12018138   5.317   0.215   2.118 -0.2281  0.1306 -0.8317
   40MOL   C12118139   5.428   0.187   2.059  1.1395  0.3381  0.3041
   40MOL   O12218140   5.532   0.141   2.111 -0.0706 -0.8023 -0.0847
   40MOL   C12318141   5.414   0.213   1.916  0.8017  0.4317  0.7919
   40MOL   C12418142   5.505   0.147   1.831  0.2958  0.9797 -0.1903
   40MOL   C12518143   5.494   0.157   1.686 -0.4687  0.2523 -0.2643
   40MOL   C12618144   5.394   0.239   1.631  0.2175 -0.0194 -0.0072
   40MOL   C12718145   5.380   0.272   1.485  0.5382 -0.4378  0.2350
   40MOL   O12818146   5.283   0.339   1.436 -0.5031 -0.5168 -0.2257
   40MOL   O12918147   5.486   0.222   1.409 -0.0606 -0.2697 -0.0213
   40MOL   C13018148   5.295   0.296   1.716 -0.7662  0.2459 -0.2689
   40MOL   C13118149   5.308   0.284   1.854 -0.8215 -0.3105 -0.7615
   40MOL   H13218150   5.412   0.007   2.295 -0.4978 -0.7022  0.1586
   40MOL   H13318151   5.251   8.256   2.233  0.4367 -0.7939  0.4357
   40MOL   H13418152   5.370   0.253   2.312 -1.7972  0.8197  0.2851
   40MOL   H13518153   5.199   0.229   2.282 -0.3655  0.2257 -0.6228
   40MOL   H13618154   5.585   0.091   1.877  0.8744  2.2003  0.3120
   40MOL   H13718155   5.568   0.108   1.626 -0.0677  0.6771 -0.1205
   40MOL   H13818156   5.218   0.362   1.679  0.4831  2.1962  0.5353
   40MOL   H13918157   5.233   0.343   1.904 -1.3812  0.5822 -2.5782
   40MOL   O14018158   5.505   0.288   1.270  0.1434 -0.0564  0.2283
   40MOL   C14118159   5.472   0.191   1.170 -0.2729  0.6106  0.1112
   40MOL   C14218160   5.524   0.261   1.037  0.2096  0.4577 -0.3740
   40MOL   O14318161   5.451   0.384   1.025 -0.8388  0.2677  0.2978
   40MOL   C14418162   5.342   0.395   0.944 -0.6804 -0.2573  0.5686
   40MOL   O14518163   5.329   0.323   0.843  0.0329  0.1565  0.0334
   40MOL   C14618164   5.248   0.508   0.984 -0.0900  0.1661 -0.2804
   40MOL   C14718165   5.125   0.529   0.913 -0.8880  0.7473 -0.1471
   40MOL   C14818166   5.033   0.624   0.950 -0.2599  0.4549 -0.1327
   40MOL   C14918167   5.063   0.700   1.062  0.0898  0.2111  0.4263
   40MOL   C15018168   4.958   0.807   1.097 -0.6303  0.0934 -0.2792
   40MOL   O15118169   4.953   0.881   1.196 -0.2154  0.3235  0.1331
   40MOL   O15218170   4.875   0.827   0.996  0.1912 -0.1495  0.2898
   40MOL   C15318171   5.187   0.690   1.130  0.7165  0.0066 -0.2266
   40MOL   C15418172   5.277   0.589   1.097 -0.3788 -0.5437 -0.0975
   40MOL   H15518173   5.522   0.098   1.197  1.2714  1.4454  0.1880
   40MOL   H15618174   5.365   0.173   1.178 -0.0868 -1.7902 -2.3065
   40MOL   H15718175   5.488   0.190   0.963  0.9510  1.4666 -1.7324
   40MOL   H15818176   5.631   0.277   1.027  0.6236 -2.6335 -1.3396
   40MOL   H15918177   5.105   0.465   0.828  1.0883 -1.2902  0.8556
   40MOL   H16018178   4.938   0.624   0.897  0.0394 -0.2610 -0.6849
   40MOL   H16118179   5.203   0.750   1.219 -0.7402  0.5984 -0.3554
   40MOL   H16218180   5.359   0.563   1.162  1.1222  1.6010 -1.0656
   40MOL   O16318181   4.791   0.951   1.015  0.1608  0.0928  0.0071
   40MOL   C16418182   4.842   1.055   0.930 -0.0316  0.3380 -0.4652
   40MOL   C16518183   4.821   1.005   0.788 -0.0534  0.4816  0.6052
   40MOL   O16618184   4.920   0.911   0.736  0.0893  0.2117 -0.3673
   40MOL   C16718185   5.019   0.952   0.654  0.5933 -0.1790  0.0471
   40MOL   O16818186   5.030   1.068   0.612  0.3333  0.0506  0.3408
   40MOL   C16918187   5.111   0.850   0.601  0.4049 -0.2676 -0.0672
   40MOL   C17018188   5.107   0.711   0.634  0.5759  0.0980 -0.0707
   40MOL   C17118189   5.205   0.625   0.585 -0.1512 -0.3077  0.2353
   40MOL   C17218190   5.308   0.672   0.501 -0.3342 -0.5461  0.3444
   40MOL   C17318191   5.421   0.578   0.450  0.0890 -0.8245 -0.3776
   40MOL   O17418192   5.437   0.461   0.483 -0.0936 -0.0953  0.1343
   40MOL   O17518193   5.514   0.638   0.367  0.4943  0.6812  0.1186
   40MOL   C17618194   5.321   0.810   0.478 -0.7269  0.4187  0.4951
   40MOL   C17718195   5.224   0.894   0.527  0.4118 -0.5582 -0.6509
   40MOL   H17818196   4.778   1.141   0.947  0.7760  1.0245 -0.8658
   40MOL   H17918197   4.946   1.079   0.954 -0.5249  0.3660  1.7498
   40MOL   H18018198   4.816   1.087   0.716  0.9003  1.3073  1.4558
   40MOL   H18118199   4.722   0.961   0.785 -0.0929  0.5918  0.1903
   40MOL   H18218200   5.023   0.668   0.686  0.0092  0.6743 -0.4901
   40MOL   H18318201   5.202   0.519   0.606 -0.2906 -0.3123  0.1940
   40MOL   H18418202   5.402   0.838   0.413 -1.2082 -0.8295 -0.6618
   40MOL   H18518203   5.254   0.996   0.512  1.7304 -0.6268  1.3845
   40MOL   O18618204   5.626   0.553   0.337  0.2159  0.1463 -0.2921
   40MOL   C18718205   5.606   0.481   0.216 -0.0955  0.2157 -0.2047
   40MOL   C18818206   5.732   0.402   0.178  0.1744  0.3204  0.1967
   40MOL   O18918207   5.844   0.482   0.145  0.1938  0.0422  0.4983
   40MOL   C19018208   5.847   0.565   0.040  0.0107  0.3456 -0.5511
   40MOL   O19118209   5.755   0.592   8.242 -0.1476  0.0710 -0.1060
   40MOL   C19218210   5.985   0.608   8.275  0.3047  0.1124  0.3035
   40MOL   C19318211   6.096   0.556   0.069 -0.0330  0.4897  0.2924
   40MOL   C19418212   6.223   0.592   0.024 -0.4525  0.3751  0.0408
   40MOL   C19518213   6.240   0.665   8.183  0.4540 -0.3002  0.5475
   40MOL   C19618214   6.379   0.674   8.129  0.2981  0.2638 -0.7093
   40MOL   O19718215   6.476   0.627   8.190  0.2155 -0.0753 -0.0572
   40MOL   O19818216   6.382   0.713   7.998 -0.2150  0.6273  0.1058
   40MOL   C19918217   6.129   0.717   8.116  0.7406 -1.1193 -0.0167
   40MOL   C20018218   6.006   0.691   8.165 -0.2612  0.2739  0.4545
   40MOL   H20118219   5.532   0.405   0.242 -0.8658  0.9306 -0.2964
   40MOL   H20218220   5.565   0.539   0.134 -0.4790 -1.7277 -1.4049
   40MOL   H20318221   5.718   0.334   0.094  1.6714 -0.4152  0.5253
   40MOL   H20418222   5.766   0.326   0.249  1.9254 -0.0211 -0.9804
   40MOL   H20518223   6.087   0.475   0.140  2.0973  0.7307  0.8727
   40MOL   H20618224   6.304   0.535   0.068 -1.1814 -0.5091  0.2509
   40MOL   H20718225   6.147   0.780   8.029  1.1570 -2.8702 -1.2243
   40MOL   H20818226   5.923   0.734   8.112  1.4512  1.4684 -1.3003
   40MOL   O20918227   6.519   0.687   7.928 -0.0887 -0.1452  1.0940
   40MOL   C21018228   6.514   0.564   7.848  0.1593 -0.6282 -0.1325
   40MOL   C21118229   6.648   0.539   7.789 -0.3957  0.2952  1.0180
   40MOL   O21218230   6.679   0.636   7.691  0.1015 -0.1547 -0.9281
   40MOL   C21318231   6.721   0.608   7.567 -0.2989 -0.2145  0.0733
   40MOL   O21418232   6.751   0.495   7.528  0.4558  0.2251  0.7902
   40MOL   C21518233   6.743   0.729   7.484  0.1842 -0.5344 -0.2416
   40MOL   C21618234   6.768   0.707   7.349 -0.4423 -0.3750 -0.6226
   40MOL   C21718235   6.780   0.816   7.260  0.4286  0.5487 -0.4293
   40MOL   C21818236   6.791   0.950   7.307 -0.3609  0.0243 -0.3455
   40MOL   C21918237   6.816   1.057   7.213 -0.3754  0.9176  0.7163
   40MOL   O22018238   6.786   1.175   7.242  0.4517  0.5897 -0.1477
   40MOL   O22118239   6.863   1.017   7.090  0.1768  0.2562 -0.4924
   40MOL   C22218240   6.779   0.967   7.450  0.7861 -0.1802 -0.3295
   40MOL   C22318241   6.755   0.862   7.535  0.7014 -0.1056  0.1969
   40MOL   H22418242   6.481   0.490   7.921 -2.1604 -0.6115 -1.1270
   40MOL   H22518243   6.447   0.571   7.763 -0.2237 -0.4746  0.1750
   40MOL   H22618244   6.645   0.441   7.743  0.3767  0.1977  1.1613
   40MOL   H22718245   6.712   0.526   7.877  1.0070  0.6827  0.0687
   40MOL   H22818246   6.760   0.608   7.306  3.5983 -0.6044 -1.0701
   40MOL   H22918247   6.796   0.793   7.156 -3.0055  1.4341 -1.2277
   40MOL   H23018248   6.777   1.070   7.482 -0.2673 -0.6254  1.0483
   40MOL   H23118249   6.722   0.880   7.636  1.9955 -1.8083  0.9540
   40MOL   O23218250   6.886   1.132   6.989 -0.0905  0.9679 -0.4487
   40MOL   C23318251   7.029   1.136   6.964 -0.0355  0.1929 -0.0238
   40MOL   C23418252   7.052   1.199   6.823  0.2547  0.2041 -0.8032
   40MOL   O23518253   7.024   1.098   6.732 -0.0118 -0.0732  0.1355
   40MOL   C23618254   6.975   1.127   6.613 -0.0154  0.1951  0.1196
   40MOL   O23718255   6.975   1.238   6.565 -0.0225 -0.3028 -0.4048
   40MOL   C23818256   6.936   1.013   6.534 -0.0074  0.5216  0.1324
   40MOL   C23918257   6.949   0.882   6.587  0.3859 -0.4054  0.1950
   40MOL   C24018258   6.926   0.770   6.502  0.1978 -0.3830  1.1078
   40MOL   C24118259   6.891   0.785   6.365  0.1359  0.2284 -0.9562
   40MOL   C24218260   6.866   0.661   6.287  0.6189 -0.8770 -0.1991
   40MOL   O24318261   6.846   0.548   6.341  0.3519 -0.1779  0.0622
   40MOL   O24418262   6.886   0.681   6.159  0.2729 -0.3195 -0.2738
   40MOL   C24518263   6.873   0.920   6.317  0.0811  0.0276  0.4465
   40MOL   C24618264   6.893   1.032   6.400 -0.1050  0.5889 -0.0644
   40MOL   H24718265   7.071   1.206   7.037  0.0016 -0.2414  0.3729
   40MOL   H24818266   7.071   1.036   6.969 -0.3359  0.0565 -0.2299
   40MOL   H24918267   7.161   1.209   6.833  0.1166 -0.0633  1.0789
   40MOL   H25018268   7.007   1.298   6.818  0.4914  0.3528 -0.0856
   40MOL   H25118269   6.990   0.864   6.686  1.7022  1.6003  0.0192
   40MOL   H25218270   6.941   0.665   6.526 -0.9981 -0.8573 -0.1847
   40MOL   H25318271   6.839   0.936   6.216  0.7798  0.0952  0.2163
   40MOL   H25418272   6.873   1.127   6.353 -0.4508  0.0823 -0.9548
   40MOL   O25518273   6.861   0.561   6.075  0.1107  0.1135 -0.2257
   40MOL   C25618274   6.981   0.488   6.059 -0.0137 -0.3294 -0.3797
   40MOL   C25718275   6.983   0.407   5.933 -0.0097 -0.6887 -0.3919
   40MOL   O25818276   7.034   0.481   5.821 -0.1431  0.1790 -0.1440
   40MOL   C25918277   7.050   0.415   5.699 -0.1958  0.1607  0.7114
   40MOL   O26018278   7.053   0.297   5.677  0.7821  0.2034  0.3264
   40MOL   C26118279   7.072   0.503   5.585  0.3903  0.2977 -0.1616
   40MOL   C26218280   7.052   0.453   5.455 -0.3176 -0.1944 -0.4529
   40MOL   C26318281   7.085   0.534   5.342 -0.4747 -0.6435  0.1394
   40MOL   C26418282   7.129   0.665   5.364  0.7471 -0.4230  0.1774
   40MOL   C26518283   7.171   0.748   5.250  0.5522  0.3505  0.0020
   40MOL   O26618284   7.236   0.853   5.269 -0.3056  0.1820  0.0721
   40MOL   O26718285   7.151   0.695   5.129 -0.0009  0.6223  0.2823
   40MOL   C26818286   7.138   0.720   5.492  0.5350 -0.6019  0.6223
   40MOL   C26918287   7.106   0.642   5.602 -0.8223  0.4300  0.0003
   40MOL   H27018288   7.071   0.549   6.072 -0.1570 -0.0459 -0.7038
   40MOL   H27118289   6.983   0.423   6.147 -0.8365  0.3312  0.1381
   40MOL   H27218290   6.884   0.373   5.906 -0.0861 -0.0652 -0.9010
   40MOL   H27318291   7.036   0.313   5.952  1.0456 -0.0344  0.0013
   40MOL   H27418292   7.023   0.351   5.439  1.3343 -0.6931 -0.3511
   40MOL   H27518293   7.086   0.493   5.242 -1.7188  1.9017 -0.9607
   40MOL   H27618294   7.179   0.817   5.516 -0.3387 -0.5221  1.7854
   40MOL   H27718295   7.096   0.691   5.697 -0.0640  3.3722 -1.3948
   40MOL   O27818296   7.228   0.779   5.017 -0.3856 -0.1699 -0.3899
   40MOL   C27918297   7.130   0.870   4.962 -0.0436  0.2525 -0.7854
   40MOL   C28018298   7.200   0.965   4.865 -0.1540  0.3406  0.6142
   40MOL   O28118299   7.221   0.884   4.747 -0.3146 -0.2645  0.3891
   40MOL   C28218300   7.348   0.878   4.686 -1.3107 -0.2001  0.4748
   40MOL   O28318301   7.450   0.935   4.735 -0.5350  0.3121  0.4403
   40MOL   C28418302   7.348   0.792   4.570 -0.2633  0.0127  0.3886
   40MOL   C28518303   7.470   0.770   4.500  0.3725  0.1353 -0.4849
   40MOL   C28618304   7.470   0.670   4.398  0.4122 -0.7082  0.4258
   40MOL   C28718305   7.353   0.605   4.359  0.7191  1.0032  0.4539
   40MOL   C28818306   7.356   0.505   4.249  0.0893  0.2790  0.3065
   40MOL   O28918307   7.457   0.451   4.199 -0.0394 -0.2573  0.7659
   40MOL   O29018308   7.235   0.471   4.211  0.2048 -0.3525  0.7002
   40MOL   C29118309   7.237   0.638   4.422  0.1468  0.7619 -0.3376
   40MOL   C29218310   7.228   0.726   4.528 -0.1452  0.4462 -0.1961
   40MOL   H29318311   7.042   0.825   4.914  0.2251 -2.1235  0.8433
   40MOL   H29418312   7.082   0.940   5.030  0.7014  1.8258 -1.8504
   40MOL   H29518313   7.290   1.004   4.912 -0.5125 -0.9968  2.4708
   40MOL   H29618314   7.130   1.042   4.834  0.8887  0.8925 -0.4385
   40MOL   H29718315   7.563   0.818   4.523 -0.1696  1.5977 -1.2839
   40MOL   H29818316   7.564   0.656   4.346  0.7053 -2.7170  1.4644
   40MOL   H29918317   7.149   0.588   4.384  0.1476  1.4825 -1.3339
   40MOL   H30018318   7.139   0.732   4.588 -0.5639 -0.4322 -0.7155
   40MOL   O30118319   7.229   0.358   4.113 -0.6044  0.0247 -0.3828
   40MOL   C30218320   7.177   0.404   3.989 -0.3514  0.5969 -0.0040
   40MOL   C30318321   7.034   0.459   3.980  0.5365 -0.0110  0.2041
   40MOL   O30418322   7.012   0.580   4.052  0.2309  0.0124  0.1462
   40MOL   C30518323   7.047   0.700   4.001 -0.1912  0.6385  0.0063
   40MOL   O30618324   7.082   0.717   3.885 -0.0264  0.0439 -0.1688
   40MOL   C30718325   7.038   0.811   4.105  0.0559  0.1760  0.5771
   40MOL   C30818326   6.989   0.785   4.238 -0.6324 -0.0674  0.2753
   40MOL   C30918327   6.981   0.890   4.334  0.4010 -0.1554 -0.7072
   40MOL   C31018328   7.013   1.023   4.299 -0.0080  0.4530 -0.1259
   40MOL   C31118329   7.003   1.123   4.405  0.3137 -0.4185  0.2802
   40MOL   O31218330   7.001   1.247   4.392  0.2212  0.8141  0.4384
   40MOL   O31318331   7.005   1.066   4.527 -0.3987 -0.0143 -0.2698
   40MOL   C31418332   7.073   1.042   4.174 -0.2490 -0.3576  0.7395
   40MOL   C31518333   7.072   0.943   4.070  0.2074 -0.0476  0.3876
   40MOL   H31618334   7.245   0.466   3.931  0.4510 -1.4332 -1.3052
   40MOL   H31718335   7.172   0.319   3.920  2.2693 -0.6714  1.2960
   40MOL   H31818336   6.986   0.373   4.027 -0.5124  0.3181 -0.2366
   40MOL   H31918337   6.992   0.473   3.880  0.2562 -1.1094  0.1625
   40MOL   H32018338   6.959   0.687   4.274  1.2068  0.0393  2.2000
   40MOL   H32118339   6.949   0.859   4.432 -0.0225 -3.2460 -1.7446
   40MOL   H32218340   7.113   1.137   4.141 -0.4833 -0.4067  0.3110
   40MOL   H32318341   7.118   0.966   3.975  1.2613 -2.1710  0.3456
   40MOL   O32418342   7.006   1.166   4.642 -0.0498  0.3150  0.2076
   40MOL   C32518343   6.865   1.179   4.682 -0.6935 -0.0230  0.0597
   40MOL   C32618344   6.833   1.265   4.805  0.0478  0.3140  0.2059
   40MOL   O32718345   6.839   1.168   4.912 -0.4898 -0.3364  0.0949
   40MOL   C32818346   6.872   1.197   5.041  0.2164 -0.2295  0.1097
   40MOL   O32918347   6.891   1.310   5.080  0.6660 -0.3156  0.0559
   40MOL   C33018348   6.861   1.077   5.132 -0.5351 -0.2465 -0.1329
   40MOL   C33118349   6.804   0.956   5.081  0.0280 -0.5788 -0.1560
   40MOL   C33218350   6.784   0.849   5.171 -0.5163 -0.3240  0.2698
   40MOL   C33318351   6.823   0.856   5.304 -0.4532  0.2005  0.1494
   40MOL   C33418352   6.800   0.741   5.400  0.9445  0.5110 -0.0063
   40MOL   O33518353   6.764   0.630   5.361  0.2996  0.2220  0.5058
   40MOL   O33618354   6.813   0.773   5.528 -0.1240 -0.1151  0.1917
   40MOL   C33718355   6.886   0.977   5.348  0.3975  0.4746 -0.1685
   40MOL   C33818356   6.918   1.081   5.260 -0.5879  0.8426 -0.1310
   40MOL   H33918357   6.812   1.238   4.607 -0.8899  0.0327  0.2411
   40MOL   H34018358   6.815   1.082   4.683 -0.5146 -0.1259 -0.8794
   40MOL   H34118359   6.729   1.296   4.804 -0.1111 -0.1872 -1.5009
   40MOL   H34218360   6.906   1.341   4.832 -0.6930  1.1237 -0.0384
   40MOL   H34318361   6.759   0.951   4.983 -1.8245 -1.9127  0.7309
   40MOL   H34418362   6.731   0.759   5.144 -1.3071  0.2205  0.0000
   40MOL   H34518363   6.915   1.004   5.448 -0.6085 -0.8165  0.4843
   40MOL   H34618364   6.969   1.171   5.294 -0.4431  2.1083 -3.5318
   40MOL   O34718365   6.805   0.658   5.624  0.3116 -0.3214 -0.4371
   40MOL   C34818366   6.672   0.637   5.667  0.0198 -0.1569 -0.2332
   40MOL   C34918367   6.681   0.560   5.792  0.1813 -0.2832 -0.4673
   40MOL   O35018368   6.559   0.506   5.847  0.0314 -0.1143  0.1628
   40MOL   C35118369   6.532   0.375   5.824  0.5664  0.0921  0.1872
   40MOL   O35218370   6.614   0.287   5.807 -0.0810  0.4434  0.1915
   40MOL   C35318371   6.386   0.358   5.814 -0.4257 -0.0340 -0.1258
   40MOL   C35418372   6.292   0.463   5.802  0.2272 -0.5262  0.1369
   40MOL   C35518373   6.154   0.431   5.807 -0.2750 -0.0671  0.0399
   40MOL   C35618374   6.108   0.300   5.789  0.9132 -0.2766 -0.1601
   40MOL   C35718375   5.958   0.273   5.760 -0.3508  1.3142 -0.3012
   40MOL   O35818376   5.864   0.350   5.791 -0.1284 -0.0516 -0.1137
   40MOL   O35918377   5.940   0.158   5.696  0.3521 -0.3002  0.4510
   40MOL   C36018378   6.204   0.190   5.769 -0.3056 -0.5119 -0.5615
   40MOL   C36118379   6.337   0.222   5.780  0.5229  0.0427  0.4018
   40MOL   H36218380   6.624   0.733   5.687 -0.0536 -0.0820 -0.7402
   40MOL   H36318381   6.611   0.585   5.592  0.2216 -2.2062  0.9929
   40MOL   H36418382   6.727   0.627   5.866 -1.1099 -1.0306  1.0558
   40MOL   H36518383   6.757   0.485   5.775  0.0399 -0.3122 -0.9632
   40MOL   H36618384   6.338   0.560   5.796  2.2061 -1.5113 -0.9885
   40MOL   H36718385   6.082   0.511   5.809  0.4137  0.5547  0.8742
   40MOL   H36818386   6.169   0.093   5.738 -1.4202 -0.4090  0.3502
   40MOL   H36918387   6.409   0.142   5.777  0.6054  0.0506  2.0828
   40MOL   O37018388   5.795   0.120   5.674 -0.8393 -0.2887 -0.6939
   40MOL   C37118389   5.757   0.025   5.775 -0.4329 -0.1451  0.0367
   40MOL   C37218390   5.621   8.230   5.744 -0.5723  0.3924  0.8343
   40MOL   O37318391   5.525   0.053   5.750  0.6283 -0.4170 -0.2439
   40MOL   C37418392   5.400   0.038   5.710 -0.2948 -0.6510 -0.4166
   40MOL   O37518393   5.349   8.207   5.684 -0.1570 -0.1966  0.0753
   40MOL   C37618394   5.333   0.162   5.688 -0.7575 -0.1349 -0.4171
   40MOL   C37718395   5.194   0.161   5.661  0.7474 -0.7159 -0.3199
   40MOL   C37818396   5.125   0.276   5.627 -0.2315  1.0344  0.1362
   40MOL   C37918397   5.195   0.397   5.616 -0.2039 -0.1616 -0.2713
   40MOL   C38018398   5.113   0.521   5.579  0.6074  0.6852 -0.1289
   40MOL   O38118399   4.988   0.512   5.552 -0.3675 -0.9132  0.3452
   40MOL   O38218400   5.181   0.631   5.580 -0.2271 -0.3596  0.9307
   40MOL   C38318401   5.335   0.399   5.642  0.3166  0.1102 -0.2430
   40MOL   C38418402   5.401   0.287   5.686 -0.2207 -0.1173  0.0350
   40MOL   H38518403   5.830   8.220   5.768  0.3553  0.6215 -0.8331
   40MOL   H38618404   5.770   0.078   5.870  0.0575 -0.1176 -0.0414
   40MOL   H38718405   5.610   8.159   5.827 -0.5014 -1.0939 -0.4142
   40MOL   H38818406   5.610   8.186   5.646  1.1909  1.6814  0.0242
   40MOL   H38918407   5.140   0.068   5.670 -2.0175  0.9328  0.4403
   40MOL   H39018408   5.020   0.263   5.609 -0.0329  1.6316 -1.5523
   40MOL   H39118409   5.393   0.488   5.623  0.9003 -0.4062 -0.9458
   40MOL   H39218410   5.509   0.279   5.693 -0.1693  1.1951  0.9086
   40MOL   O39318411   5.106   0.744   5.517 -0.3056  0.4155 -0.4900
   40MOL   C39418412   5.163   0.783   5.393 -0.4141 -0.1888  0.7912
   40MOL   C39518413   5.209   0.665   5.308 -0.0401  0.2487 -0.3540
   40MOL   O39618414   5.103   0.596   5.248 -0.4760  0.5902 -0.0756
   40MOL   C39718415   5.108   0.462   5.221  0.7277 -0.1878 -0.0756
   40MOL   O39818416   5.206   0.394   5.246 -0.0487  0.3184 -0.0284
   40MOL   C39918417   4.981   0.416   5.155  0.6154  0.7133 -0.5684
   40MOL   C40018418   4.866   0.508   5.160 -0.2091  0.1666  0.1132
   40MOL   C40118419   4.750   0.462   5.096 -0.3456  0.0664 -0.5303
   40MOL   C40218420   4.743   0.343   5.025  0.0547  0.3347  0.3327
   40MOL   C40318421   4.620   0.309   4.947  0.7101  0.0487 -0.1663
   40MOL   O40418422   4.541   0.401   4.911  0.1448  0.0752  0.3233
   40MOL   O40518423   4.605   0.180   4.918  0.3753 -0.0494 -0.0567
   40MOL   C40618424   4.856   0.256   5.022  0.2505 -0.2472 -0.3279
   40MOL   C40718425   4.978   0.290   5.086  0.0165  0.2912  0.0074
   40MOL   H40818426   5.092   0.848   5.342  1.1559  1.4546  0.6603
   40MOL   H40918427   5.251   0.843   5.416 -0.3646  0.1706 -0.2792
   40MOL   H41018428   5.285   0.607   5.361 -0.7488  2.3502  3.1211
   40MOL   H41118429   5.260   0.713   5.224 -0.8287 -0.6161 -1.3388
   40MOL   H41218430   4.862   0.600   5.216 -2.0396 -1.1965  2.3186
   40MOL   H41318431   4.662   0.524   5.091 -0.5317 -0.2499 -1.1354
   40MOL   H41418432   4.856   0.160   4.973  0.6896  0.0654 -0.9551
   40MOL   H41518433   5.065   0.226   5.078  1.3623  2.1103 -0.2084
   40MOL   O41618434   4.479   0.152   4.849 -0.3558 -0.0211  0.0750
   40MOL   C41718435   4.381   0.096   4.934 -0.3468 -0.1210 -0.1034
   40MOL   C41818436   4.308   0.212   5.002 -0.0841 -0.1329 -0.2050
   40MOL   O41918437   4.361   0.247   5.127 -0.4802 -0.4002  0.5030
   40MOL   C42018438   4.298   0.220   5.246 -0.4520  0.2702 -0.5069
   40MOL   O42118439   4.189   0.167   5.250 -0.1176  0.4704 -0.8686
   40MOL   C42218440   4.378   0.279   5.360  0.0537  0.1453 -0.0379
   40MOL   C42318441   4.317   0.286   5.483 -0.2306 -0.0284 -0.0510
   40MOL   C42418442   4.378   0.357   5.586 -0.0135 -0.2334  0.2762
   40MOL   C42518443   4.506   0.410   5.571 -0.6618 -0.0566 -0.0447
   40MOL   C42618444   4.560   0.488   5.684 -0.2830 -0.0907 -0.4006
   40MOL   O42718445   4.517   0.478   5.798  0.0770  0.2706  0.1492
   40MOL   O42818446   4.660   0.567   5.645  0.5098  0.5188 -0.1135
   40MOL   C42918447   4.572   0.395   5.448 -0.2991 -0.0532 -0.5173
   40MOL   C43018448   4.509   0.325   5.343  0.6271  0.4704 -0.2391
   40MOL   H43118449   4.312   0.039   4.872 -0.0209 -0.8786  0.2267
   40MOL   H43218450   4.421   0.026   5.007  2.6044  1.4349 -0.1478
   40MOL   H43318451   4.204   0.180   5.009 -0.6254  1.2046 -1.7665
   40MOL   H43418452   4.308   0.303   4.942  2.5235 -1.0300 -1.6357
   40MOL   H43518453   4.216   0.250   5.491 -1.0432  1.5051 -2.5218
   40MOL   H43618454   4.330   0.383   5.679  0.6990  1.8751  0.0893
   40MOL   H43718455   4.672   0.434   5.435 -0.7915  1.1778 -0.5660
   40MOL   H43818456   4.560   0.314   5.249  0.1811 -0.5063 -0.3669
   40MOL   O43918457   4.698   0.672   5.747  0.8988 -0.0567 -0.2929
   40MOL   C44018458   4.812   0.630   5.817 -0.5562 -0.5387 -0.2408
   40MOL   C44118459   4.818   0.697   5.952  0.2301  0.2622  0.3347
   40MOL   O44218460   4.747   0.621   6.051  0.1041  0.2589  0.0114
   40MOL   C44318461   4.715   0.668   6.171 -0.2610 -0.5319 -0.5739
   40MOL   O44418462   4.752   0.780   6.214 -0.3360  0.1921 -0.0311
   40MOL   C44518463   4.620   0.573   6.241  0.5277  0.2070  0.6750
   40MOL   C44618464   4.597   0.592   6.378 -0.0331  0.1257  0.0273
   40MOL   C44718465   4.511   0.509   6.448 -0.8569  0.3815 -0.0515
   40MOL   C44818466   4.441   0.405   6.383  0.0540 -0.0167  0.3115
   40MOL   C44918467   4.364   0.303   6.461  0.3009 -0.3948  0.2299
   40MOL   O45018468   4.357   0.315   6.581 -0.0898  0.2414  0.3037
   40MOL   O45118469   4.302   0.201   6.401  0.0933  0.1690  0.3784
   40MOL   C45218470   4.465   0.379   6.246  0.0285  0.2134  0.3335
   40MOL   C45318471   4.550   0.463   6.176 -0.1049  0.8830 -0.2504
   40MOL   H45418472   4.830   0.523   5.810  0.6703 -0.5709  2.5707
   40MOL   H45518473   4.896   0.664   5.756 -1.1974  0.5843 -0.5128
   40MOL   H45618474   4.782   0.800   5.953 -0.3184  0.0808 -0.0352
   40MOL   H45718475   4.920   0.696   5.988  0.6374 -0.6987 -0.8227
   40MOL   H45818476   4.644   0.670   6.435  1.1669  0.7562 -1.7829
   40MOL   H45918477   4.499   0.534   6.553 -2.7521 -0.1369 -0.1228
   40MOL   H46018478   4.421   0.291   6.202 -1.1820  1.6442 -1.4019
   40MOL   H46118479   4.554   0.451   6.069  0.7010  0.9762 -0.2318
   40MOL   H46218480   4.262   0.150   6.470  0.0691  0.6644  0.7375
   41MOL     O118481   2.343   1.321   4.907 -0.3596  0.6234 -0.4798
   41MOL     C218482   2.226   1.398   4.898 -0.8156 -0.4769 -0.2885
   41MOL     C318483   2.146   1.399   5.028  0.5979  0.0077 -0.0610
   41MOL     O418484   2.060   1.284   5.033 -0.5911 -0.3871 -0.1781
   41MOL     C518485   2.003   1.238   5.147 -0.1678  0.2083  0.5243
   41MOL     O618486   2.007   1.295   5.258 -0.6671 -0.0297  0.2104
   41MOL     C718487   1.948   1.095   5.139  0.4283 -0.4787  0.0001
   41MOL     C818488   1.919   1.033   5.260 -0.5164 -0.2793  0.4251
   41MOL     C918489   1.864   0.905   5.258 -0.7582  0.0653  0.5029
   41MOL    C1018490   1.851   0.828   5.138 -0.2584  0.4616  0.3991
   41MOL    C1118491   1.791   0.696   5.137 -0.8915  0.1139  0.7555
   41MOL    O1218492   1.757   0.635   5.037 -0.5643 -0.0869  0.4819
   41MOL    O1318493   1.774   0.649   5.263 -0.2105  0.1437 -0.4049
   41MOL    C1418494   1.902   0.885   5.022  0.3821  0.4030 -0.0000
   41MOL    C1518495   1.938   1.019   5.021  0.1517  0.2878  0.9889
   41MOL    H1618496   2.251   1.495   4.855  0.4084 -0.4188  0.5317
   41MOL    H1718497   2.166   1.356   4.818 -1.1358 -1.5203  0.4900
   41MOL    H1818498   2.086   1.490   5.025  1.2567  0.6361  3.3821
   41MOL    H1918499   2.208   1.403   5.117  2.0741 -2.2506 -0.9338
   41MOL    H2018500   1.942   1.088   5.350 -0.8393  0.5876 -0.0222
   41MOL    H2118501   1.826   0.859   5.349  3.3853  1.7922  3.2599
   41MOL    H2218502   1.896   0.840   4.924 -1.9790 -0.5540  0.5481
   41MOL    H2318503   1.955   1.067   4.925  0.8541  0.8596  1.3897
   41MOL    H2418504   2.330   1.232   4.880  1.1640  0.9005 -2.2013
   41MOL    O2518505   1.735   0.499   5.270 -0.1058 -0.1635 -0.5303
   41MOL    C2618506   1.842   0.431   5.331  0.5552 -0.3973  0.0681
   41MOL    C2718507   1.814   0.285   5.334  0.2734 -0.1038  0.6015
   41MOL    O2818508   1.709   0.269   5.428 -0.0446 -0.1253 -0.4954
   41MOL    C2918509   1.727   0.285   5.564  0.2148  0.0622 -1.2558
   41MOL    O3018510   1.817   0.349   5.621  0.1149  0.3393 -0.3296
   41MOL    C3118511   1.626   0.208   5.642  0.8287 -1.2555  0.0026
   41MOL    C3218512   1.624   0.220   5.785 -0.6652 -0.2926 -0.1366
   41MOL    C3318513   1.514   0.178   5.863 -0.0596  0.6131 -0.3034
   41MOL    C3418514   1.410   0.104   5.805  0.4307 -0.2744 -0.5178
   41MOL    C3518515   1.303   0.039   5.885  0.3930 -0.0276 -0.0267
   41MOL    O3618516   1.303   0.032   6.006 -0.6053 -0.4344  0.3805
   41MOL    O3718517   1.198   0.003   5.815 -0.3037  0.2328 -0.5446
   41MOL    C3818518   1.410   0.087   5.664  0.4478 -0.4782 -0.4944
   41MOL    C3918519   1.518   0.137   5.585 -0.6793  0.1073  0.5782
   41MOL    H4018520   1.923   0.445   5.260  0.4310  0.8567  0.1644
   41MOL    H4118521   1.856   0.476   5.429 -1.8874  1.1524 -0.2587
   41MOL    H4218522   1.901   0.228   5.368  1.2286  1.9966  1.7844
   41MOL    H4318523   1.791   0.244   5.235 -1.4160 -0.5934  1.1818
   41MOL    H4418524   1.704   0.278   5.829 -0.0191 -3.1574  2.6305
   41MOL    H4518525   1.517   0.188   5.971 -1.7660 -0.4719 -0.1535
   41MOL    H4618526   1.330   0.040   5.610  0.4096 -3.5247  2.0611
   41MOL    H4718527   1.509   0.124   5.478 -0.8919  0.6118  0.5313
   41MOL    O4818528   1.102   8.193   5.894 -0.1091  1.0391 -0.1265
   41MOL    C4918529   1.105   8.060   5.848  0.2961  0.5826 -0.1727
   41MOL    C5018530   1.034   8.052   5.712  0.0409 -0.1635  0.3554
   41MOL    O5118531   1.104   8.107   5.605 -0.5691 -0.3505 -0.4191
   41MOL    C5218532   1.173   8.026   5.520  0.4587 -0.2719  0.1246
   41MOL    O5318533   1.173   7.902   5.522 -0.3752 -0.2686  0.7101
   41MOL    C5418534   1.247   8.103   5.416  0.6934 -0.8481  0.5341
   41MOL    C5518535   1.224   8.243   5.399 -0.2440 -0.1600 -0.4367
   41MOL    C5618536   1.290   0.034   5.291 -0.0691  0.1297  0.1356
   41MOL    C5718537   1.384   8.238   5.212 -0.9316 -0.0658  0.1160
   41MOL    C5818538   1.459   0.026   5.101 -0.3881 -0.0293  0.7236
   41MOL    O5918539   1.506   8.243   5.005 -0.5790  0.0450 -0.4645
   41MOL    O6018540   1.468   0.160   5.132 -0.1803  0.1690  0.2871
   41MOL    C6118541   1.405   8.103   5.240 -0.8183 -0.7188  0.3450
   41MOL    C6218542   1.331   8.033   5.331 -0.4137  0.5479 -0.2362
   41MOL    H6318543   1.206   8.019   5.854  0.1147 -0.4436 -3.3563
   41MOL    H6418544   1.059   8.004   5.930  2.3064 -0.1863  0.4640
   41MOL    H6518545   0.941   8.109   5.719  0.6651  1.2782 -2.3593
   41MOL    H6618546   0.997   7.950   5.705 -0.7682  0.1165  0.4438
   41MOL    H6718547   1.136   0.009   5.446 -0.8743  0.3715 -2.0620
   41MOL    H6818548   1.255   0.131   5.262  4.3281  1.0576 -2.5740
   41MOL    H6918549   1.477   8.040   5.190 -1.6642 -0.6770 -0.9546
   41MOL    H7018550   1.341   7.926   5.342 -4.5325 -0.1426 -2.3121
   41MOL    O7118551   1.536   0.243   5.036 -0.2073 -0.5682  0.3032
   41MOL    C7218552   1.449   0.335   4.982 -0.3048  1.1463  0.8572
   41MOL    C7318553   1.467   0.458   5.076  0.1631  0.0647  0.9334
   41MOL    O7418554   1.383   0.445   5.190 -0.0716 -0.6808 -0.2172
   41MOL    C7518555   1.300   0.537   5.223  0.1733 -0.1583 -0.3723
   41MOL    O7618556   1.269   0.626   5.146  0.4681  0.1639 -0.6380
   41MOL    C7718557   1.247   0.521   5.361  1.2085  0.1999 -0.6700
   41MOL    C7818558   1.152   0.614   5.410 -0.0953  0.0761 -0.2536
   41MOL    C7918559   1.093   0.597   5.535  0.3645  0.4333 -0.2957
   41MOL    C8018560   1.132   0.491   5.617 -0.4504  0.2144  0.3965
   41MOL    C8118561   1.070   0.471   5.753 -0.1451  0.1640  0.0280
   41MOL    O8218562   1.127   0.419   5.847 -0.7952  0.1049  0.0268
   41MOL    O8318563   0.941   0.515   5.759 -0.3162 -0.1706  0.4156
   41MOL    C8418564   1.239   0.402   5.576 -0.0794 -0.3655  0.5441
   41MOL    C8518565   1.290   0.416   5.446  0.0344 -0.5309  0.3669
   41MOL    H8618566   1.492   0.353   4.883 -1.3922  2.2873  0.5819
   41MOL    H8718567   1.345   0.304   4.977  0.0467 -0.0671  1.0399
   41MOL    H8818568   1.436   0.543   5.014  1.8319 -0.5270 -0.7516
   41MOL    H8918569   1.572   0.480   5.090  1.6671 -3.0256 -4.0226
   41MOL    H9018570   1.122   0.703   5.357 -0.8435  0.1383  0.2692
   41MOL    H9118571   1.034   0.674   5.584  0.9087  2.2640 -2.4211
   41MOL    H9218572   1.273   0.323   5.642 -0.5182 -0.6851  0.3885
   41MOL    H9318573   1.352   0.333   5.416  1.1984  0.2069  0.6919
   41MOL    O9418574   0.880   0.497   5.896 -0.7486 -0.2763 -0.3197
   41MOL    C9518575   0.829   0.617   5.939 -0.2010  0.3793  0.1724
   41MOL    C9618576   0.935   0.733   5.929 -0.7626  0.2912  0.2030
   41MOL    O9718577   0.932   0.804   5.808  0.1049 -0.1890 -0.1635
   41MOL    C9818578   0.993   0.927   5.790  0.0555  0.4151  0.1019
   41MOL    O9918579   1.035   0.996   5.884  0.6400 -0.0479 -0.3520
   41MOL   C10018580   1.010   0.968   5.652 -0.6225 -0.6310  0.3874
   41MOL   C10118581   0.934   0.904   5.549  0.0161  0.0555 -0.0684
   41MOL   C10218582   0.960   0.935   5.413 -0.3312 -0.2201 -0.2847
   41MOL   C10318583   1.051   1.030   5.373 -0.5112 -0.0175 -0.1939
   41MOL   C10418584   1.099   1.045   5.232  0.4075 -0.5945  0.2024
   41MOL   O10518585   1.207   1.099   5.195 -0.1338  0.4041 -0.1570
   41MOL   O10618586   1.008   1.001   5.141 -0.2331  0.2373  0.2933
   41MOL   C10718587   1.125   1.098   5.480 -0.1038 -0.4136  0.0074
   41MOL   C10818588   1.110   1.067   5.618 -0.4745 -0.4592  0.2588
   41MOL   H10918589   0.740   0.655   5.887 -0.5363  1.7708  1.7455
   41MOL   H11018590   0.801   0.609   6.044 -0.1998  1.1351  0.2260
   41MOL   H11118591   1.034   0.695   5.951 -0.5234  1.2777  0.8859
   41MOL   H11218592   0.919   0.803   6.012 -1.6816 -2.3872  2.3801
   41MOL   H11318593   0.853   0.837   5.571  0.6368 -0.6914 -0.0713
   41MOL   H11418594   0.906   0.879   5.338  0.7162 -1.0955 -0.3899
   41MOL   H11518595   1.199   1.171   5.452 -0.1771 -0.5000 -0.4228
   41MOL   H11618596   1.165   1.117   5.697 -1.4396  1.4089 -0.2188
   41MOL   O11718597   1.058   0.975   5.008  0.1683  0.1194 -0.0740
   41MOL   C11818598   1.033   0.837   4.987 -0.2178 -0.1463  0.2364
   41MOL   C11918599   1.064   0.796   4.842  0.2095 -0.1050  0.4487
   41MOL   O12018600   1.199   0.814   4.810  0.2855  0.8278  0.2544
   41MOL   C12118601   1.239   0.814   4.682 -1.0282 -0.1481 -0.0753
   41MOL   O12218602   1.168   0.758   4.596  0.2868 -0.3640  0.2565
   41MOL   C12318603   1.379   0.864   4.667 -0.2090 -0.1394  0.3805
   41MOL   C12418604   1.475   0.868   4.775  0.4961 -0.5364 -0.0793
   41MOL   C12518605   1.602   0.914   4.751  0.9570  0.0924 -0.6594
   41MOL   C12618606   1.647   0.947   4.617  0.1249  0.1769 -0.0505
   41MOL   C12718607   1.787   0.988   4.582  0.8133 -0.1365 -0.5618
   41MOL   O12818608   1.810   1.060   4.488  0.3719  0.0639  0.4651
   41MOL   O12918609   1.868   0.951   4.675 -0.2601 -0.1518  0.2557
   41MOL   C13018610   1.552   0.943   4.517 -0.0450 -0.2055  0.5066
   41MOL   C13118611   1.418   0.910   4.538  0.1066 -0.5774 -0.0540
   41MOL   H13218612   1.096   0.776   5.052  0.1821 -0.1054 -0.1170
   41MOL   H13318613   0.936   0.804   5.025 -0.4577  0.1912 -0.0856
   41MOL   H13418614   0.999   0.848   4.772  0.5773 -1.6654 -1.0982
   41MOL   H13518615   1.036   0.690   4.837 -0.4199 -0.0596  2.4471
   41MOL   H13618616   1.455   0.832   4.874 -0.1429  0.4437  0.1581
   41MOL   H13718617   1.675   0.920   4.830  2.0327 -0.7541 -1.5723
   41MOL   H13818618   1.580   0.960   4.414  2.2826 -3.4461  0.5152
   41MOL   H13918619   1.354   0.889   4.453 -1.9207  0.0287  1.2671
   41MOL   O14018620   2.015   0.991   4.638  0.2586 -0.2493  0.0557
   41MOL   C14118621   2.097   0.881   4.609 -0.5392 -0.3669  0.7518
   41MOL   C14218622   2.244   0.918   4.603  0.7897  1.1692  0.5295
   41MOL   O14318623   2.301   0.874   4.725 -0.2559  0.7511  0.3813
   41MOL   C14418624   2.299   0.950   4.827  0.1411 -0.5502 -0.2982
   41MOL   O14518625   2.246   1.060   4.832 -0.4953 -0.1383 -0.1500
   41MOL   C14618626   2.381   0.898   4.934 -0.3545  0.9799  0.2418
   41MOL   C14718627   2.484   0.806   4.913  0.2885  0.0699  0.1984
   41MOL   C14818628   2.568   0.761   5.013 -0.9264 -0.5826 -0.6823
   41MOL   C14918629   2.538   0.794   5.151 -0.3375 -0.0927 -0.8959
   41MOL   C15018630   2.634   0.739   5.249  0.0272  0.6597  1.3789
   41MOL   O15118631   2.725   0.661   5.213  0.5753 -0.0629 -0.5951
   41MOL   O15218632   2.602   0.772   5.374  0.5136  0.1790  0.7219
   41MOL   C15318633   2.422   0.875   5.177  0.2784  0.3155 -0.3090
   41MOL   C15418634   2.354   0.931   5.068  0.1405  0.3159 -0.4589
   41MOL   H15518635   2.077   0.813   4.692 -2.3199  1.2620  1.7188
   41MOL   H15618636   2.059   0.839   4.516  0.6399  2.3064 -0.9955
   41MOL   H15718637   2.257   1.021   4.569  2.1554  0.5980 -0.7640
   41MOL   H15818638   2.295   0.857   4.528 -3.1648  0.5857 -1.8009
   41MOL   H15918639   2.496   0.760   4.816  0.9689 -0.0486  0.3346
   41MOL   H16018640   2.650   0.696   4.985  1.1430  2.2121 -1.4139
   41MOL   H16118641   2.398   0.895   5.281 -0.6627 -0.7003 -0.3116
   41MOL   H16218642   2.263   0.984   5.092 -1.0022 -1.9668  0.3923
   41MOL   O16318643   2.695   0.720   5.475 -0.1666  0.4153 -0.1809
   41MOL   C16418644   2.623   0.623   5.558  0.0812  0.0253 -0.9376
   41MOL   C16518645   2.733   0.531   5.630  0.6937 -0.5107  0.1844
   41MOL   O16618646   2.684   0.483   5.750 -0.6658  0.6455 -0.0448
   41MOL   C16718647   2.600   0.378   5.741  0.3165 -0.6556 -0.2995
   41MOL   O16818648   2.532   0.343   5.638  0.0403  0.7111 -0.0778
   41MOL   C16918649   2.585   0.311   5.873  0.0870 -0.2886 -0.4985
   41MOL   C17018650   2.685   0.321   5.972  0.4054 -0.7674 -1.5355
   41MOL   C17118651   2.678   0.255   6.095 -0.1529 -0.4529  0.1794
   41MOL   C17218652   2.562   0.172   6.118 -0.3845 -0.8515 -0.0482
   41MOL   C17318653   2.551   0.088   6.238 -0.1489  0.4570  0.0133
   41MOL   O17418654   2.461   0.001   6.239 -0.1588 -0.0290  0.0110
   41MOL   O17518655   2.638   0.112   6.334  0.7473 -0.3399 -0.2667
   41MOL   C17618656   2.449   0.180   6.029  0.3083  0.4151  0.3260
   41MOL   C17718657   2.464   0.242   5.906  0.1512  0.2622 -0.0453
   41MOL   H17818658   2.569   0.696   5.617  0.7935 -1.5244  1.7102
   41MOL   H17918659   2.561   0.564   5.490 -1.6967 -0.5711  1.1580
   41MOL   H18018660   2.816   0.596   5.660 -0.8097  0.8608  1.4582
   41MOL   H18118661   2.768   0.452   5.564  0.7145  2.7977 -3.9985
   41MOL   H18218662   2.767   0.390   5.955 -0.5021  1.0153  0.8742
   41MOL   H18318663   2.752   0.263   6.173 -0.3574  0.1176  0.3157
   41MOL   H18418664   2.360   0.125   6.055 -0.6629  0.8147 -1.9934
   41MOL   H18518665   2.385   0.253   5.833  1.7199  0.5676 -1.7431
   41MOL   O18618666   2.616   0.022   6.452 -0.1276 -0.4873  0.0165
   41MOL   C18718667   2.506   0.077   6.525  0.0147 -1.0214  0.0401
   41MOL   C18818668   2.441   8.257   6.634  0.3640 -0.4589 -0.0681
   41MOL   O18918669   2.371   0.041   6.746  1.0122  0.5839  0.5674
   41MOL   C19018670   2.238   0.047   6.760  0.0346 -0.2918 -0.1174
   41MOL   O19118671   2.166   8.268   6.678 -0.2205  0.8023  0.0676
   41MOL   C19218672   2.193   0.119   6.881 -1.2010  0.3905  0.4637
   41MOL   C19318673   2.056   0.140   6.911 -0.1988 -0.3021 -0.1469
   41MOL   C19418674   2.012   0.203   7.030  0.1020 -1.1381 -0.2810
   41MOL   C19518675   2.107   0.253   7.119 -0.2790 -0.0046  0.1962
   41MOL   C19618676   2.058   0.318   7.241  0.1505  1.2303 -0.3715
   41MOL   O19718677   1.945   0.362   7.256 -0.0513 -0.0461 -0.2945
   41MOL   O19818678   2.162   0.326   7.333 -0.4095  0.3097 -0.4442
   41MOL   C19918679   2.242   0.248   7.081  0.8392  1.2316 -0.1376
   41MOL   C20018680   2.288   0.174   6.972 -0.3978  0.5328  0.0555
   41MOL   H20118681   2.547   0.161   6.582 -1.4158 -0.8296  0.8141
   41MOL   H20218682   2.418   0.101   6.466  1.0995 -1.6571 -1.8809
   41MOL   H20318683   2.515   8.190   6.677 -0.8852 -2.2810 -0.7003
   41MOL   H20418684   2.370   8.196   6.577 -0.9259  1.2888 -0.4058
   41MOL   H20518685   1.986   0.110   6.835  0.8049 -2.9518 -0.0788
   41MOL   H20618686   1.905   0.208   7.049  0.2794 -1.5728  0.9044
   41MOL   H20718687   2.329   0.275   7.139  0.7764  0.5611  0.2785
   41MOL   H20818688   2.394   0.173   6.952 -0.5335  0.6285 -0.6752
   41MOL   O20918689   2.137   0.397   7.462 -0.0076 -0.0339  0.5549
   41MOL   C21018690   2.083   0.302   7.557  0.2608 -0.8751 -0.2147
   41MOL   C21118691   2.204   0.225   7.617 -0.2176 -0.4504 -0.0146
   41MOL   O21218692   2.182   0.137   7.730  0.1409  0.3948 -0.2291
   41MOL   C21318693   2.187   0.179   7.860  0.3522  0.1689 -0.1742
   41MOL   O21418694   2.187   0.298   7.890 -0.5617  0.2410 -0.0439
   41MOL   C21518695   2.189   0.059   7.952 -0.1944  0.0796  0.2799
   41MOL   C21618696   2.139   8.211   7.909  0.0774 -0.5932 -0.7196
   41MOL   C21718697   2.145   8.100   7.998  0.1128  0.6179 -0.2552
   41MOL   C21818698   2.192   8.114   8.133  0.0192  0.1464  0.6014
   41MOL   C21918699   2.202   8.000   8.222 -0.5787  0.0008 -0.2451
   41MOL   O22018700   2.275   8.001   0.045  0.1306  0.4736  0.0622
   41MOL   O22118701   2.110   7.905   8.190 -0.4429 -0.5042 -0.0550
   41MOL   C22218702   2.234   8.244   8.175  0.1572  0.5250  0.4189
   41MOL   C22318703   2.239   0.072   8.082 -0.3550 -0.0284  0.2066
   41MOL   H22418704   2.035   0.351   7.642  0.1718  0.3060 -0.9401
   41MOL   H22518705   2.027   0.222   7.508  1.6015 -2.6061  1.0311
   41MOL   H22618706   2.275   0.304   7.643  0.0640 -0.4197 -0.8700
   41MOL   H22718707   2.248   0.166   7.537 -0.5717  3.8681 -3.5799
   41MOL   H22818708   2.106   8.199   7.807  1.8598 -1.0403 -1.2513
   41MOL   H22918709   2.109   8.002   7.969  1.1696 -0.0614  0.7357
   41MOL   H23018710   2.270   8.266   8.274 -1.3961  2.1964  0.6415
   41MOL   H23118711   2.258   0.169   8.126 -1.4641 -0.8957  2.7332
   41MOL   O23218712   2.097   7.794   0.014  0.1402  0.2125  0.2350
   41MOL   C23318713   2.005   7.833   0.117  0.0625  0.5369 -0.5763
   41MOL   C23418714   2.005   7.723   0.228 -0.0656  0.1742  0.7474
   41MOL   O23518715   1.908   7.625   0.206  0.0868  0.5203 -0.2364
   41MOL   C23618716   1.946   7.502   0.168  0.0007 -0.1299  0.0306
   41MOL   O23718717   2.064   7.478   0.147  0.1243 -0.4242  0.4916
   41MOL   C23818718   1.825   7.410   0.154 -0.1676  0.5822 -0.1699
   41MOL   C23918719   1.847   7.278   0.115 -0.3240 -0.1141 -0.5774
   41MOL   C24018720   1.749   7.180   0.118 -0.3436  0.1579 -0.0698
   41MOL   C24118721   1.621   7.214   0.159 -0.4211  1.0853  0.7934
   41MOL   C24218722   1.505   7.121   0.154 -0.8289  0.3431 -0.1147
   41MOL   O24318723   1.391   7.159   0.173 -0.1829  0.2725 -0.8112
   41MOL   O24418724   1.534   6.986   0.121 -0.0070  0.1883  0.2176
   41MOL   C24518725   1.596   7.348   0.189 -0.5036 -0.4364  0.3849
   41MOL   C24618726   1.694   7.448   0.182  1.2143 -0.2131  0.1249
   41MOL   H24718727   2.049   7.921   0.165  1.5494 -1.1960  1.3440
   41MOL   H24818728   1.911   7.844   0.063  0.9887 -0.1248 -2.4060
   41MOL   H24918729   1.978   7.769   0.323  0.0262 -0.5447  1.1282
   41MOL   H25018730   2.106   7.684   0.244  0.0197 -0.7631 -1.7995
   41MOL   H25118731   1.951   7.254   0.094  0.2195  0.8506  0.9740
   41MOL   H25218732   1.777   7.076   0.116  1.4645  0.5201  2.6272
   41MOL   H25318733   1.502   7.376   0.235  0.2347  0.1969  1.5577
   41MOL   H25418734   1.673   7.547   0.222 -0.6952 -1.3342  2.0384
   41MOL   O25518735   1.405   6.906   0.081 -0.1160  0.0783 -0.3311
   41MOL   C25618736   1.411   6.887   8.217  0.6054 -0.4671  0.1490
   41MOL   C25718737   1.273   6.879   8.156 -0.3038 -0.2468 -0.1218
   41MOL   O25818738   1.233   6.744   8.137  0.5744  0.0351 -0.1470
   41MOL   C25918739   1.115   6.706   8.076  0.1956  0.1398 -0.7720
   41MOL   O26018740   1.030   6.788   8.041  0.2470  0.1928 -0.2769
   41MOL   C26118741   1.105   6.557   8.054  0.0768 -0.1186 -0.8206
   41MOL   C26218742   1.016   6.511   7.956 -0.2160 -0.3914 -0.4820
   41MOL   C26318743   1.018   6.376   7.910  0.3061  0.2403  0.1143
   41MOL   C26418744   1.102   6.283   7.973  0.0668 -0.3084 -0.1577
   41MOL   C26518745   1.098   6.141   7.931 -0.4659 -0.1177 -0.5688
   41MOL   O26618746   1.143   6.050   7.997 -0.5503  0.0842  0.0836
   41MOL   O26718747   1.038   6.126   7.801  0.2816  0.5612 -0.1434
   41MOL   C26818748   1.174   6.323   8.089  0.1692  0.2539  0.2518
   41MOL   C26918749   1.175   6.462   8.127 -0.8510  0.4091 -0.4172
   41MOL   H27018750   1.456   6.979   8.179 -2.1563  1.3895  1.1929
   41MOL   H27118751   1.465   6.799   8.183 -0.2435 -0.5716 -0.9508
   41MOL   H27218752   1.265   6.952   8.075  0.7349  0.8772  0.7676
   41MOL   H27318753   1.208   6.934   8.224 -0.8487  1.5351 -2.0104
   41MOL   H27418754   0.950   6.582   7.909 -0.3202  0.9374  1.5912
   41MOL   H27518755   0.954   6.352   7.827 -0.1587  2.1381 -0.0948
   41MOL   H27618756   1.235   6.251   8.141  1.5491  1.7731  0.7685
   41MOL   H27718757   1.249   6.483   8.203 -1.5780  0.1649  0.3592
   41MOL   O27818758   1.038   5.984   7.748 -0.1954 -0.0006 -0.5383
   41MOL   C27918759   0.906   5.936   7.741  0.2673 -0.2668  0.2665
   41MOL   C28018760   0.922   5.786   7.713  0.5496 -0.3331  0.0246
   41MOL   O28118761   0.963   5.719   7.830  0.1605 -0.2259  0.6306
   41MOL   C28218762   0.965   5.588   7.832 -0.4538  0.0741  0.9352
   41MOL   O28318763   0.950   5.521   7.729 -0.2410 -0.2396  0.5414
   41MOL   C28418764   0.986   5.532   7.965  0.5467  0.4099  0.2027
   41MOL   C28518765   1.058   5.601   8.068 -0.7298 -0.0926 -0.8978
   41MOL   C28618766   1.048   5.551   8.199  0.1303  0.3316  0.3591
   41MOL   C28718767   0.991   5.420   8.230 -0.3129 -0.5429  0.0036
   41MOL   C28818768   0.978   5.381   0.096 -0.1565  0.0404  0.5647
   41MOL   O28918769   1.016   5.451   0.186  0.5801 -0.1838 -0.2028
   41MOL   O29018770   0.923   5.257   0.116  0.0615  0.3410 -0.2253
   41MOL   C29118771   0.935   5.352   8.120  0.5525 -0.0088 -0.4364
   41MOL   C29218772   0.931   5.406   7.989 -0.4891  0.0165 -0.2868
   41MOL   H29318773   0.843   5.937   7.830 -0.6428  0.9861 -0.3868
   41MOL   H29418774   0.870   5.994   7.657 -0.4559 -1.5461 -0.3138
   41MOL   H29518775   1.001   5.772   7.638  0.2882  1.3541 -0.6024
   41MOL   H29618776   0.838   5.734   7.667  2.2206 -2.1800 -1.0542
   41MOL   H29718777   1.097   5.701   8.053 -0.8368 -0.3267 -2.8470
   41MOL   H29818778   1.103   5.598   0.004  3.1253 -0.7991 -0.9601
   41MOL   H29918779   0.897   5.254   8.147  1.4454  0.1484  1.4484
   41MOL   H30018780   0.889   5.352   7.905 -1.0716 -0.5049  0.3268
   41MOL   O30118781   0.928   5.213   0.264 -0.1443  0.4574  0.1403
   41MOL   C30218782   1.035   5.120   0.277 -0.1838 -0.3792  0.4043
   41MOL   C30318783   1.013   5.039   0.401 -0.6216 -0.8792  0.4816
   41MOL   O30418784   1.012   4.903   0.361  0.0618 -0.7301  0.2888
   41MOL   C30518785   1.091   4.817   0.418 -0.0175 -0.1248 -0.1885
   41MOL   O30618786   1.193   4.838   0.487  0.4906 -0.4967 -0.1934
   41MOL   C30718787   1.060   4.673   0.382 -0.9953 -0.3377 -0.2823
   41MOL   C30818788   1.128   4.569   0.445 -0.8133  0.1655  0.3227
   41MOL   C30918789   1.120   4.432   0.420  0.0689  0.0861  0.3985
   41MOL   C31018790   1.028   4.387   0.325 -0.3644 -0.1928  1.0067
   41MOL   C31118791   1.014   4.243   0.294 -0.0542 -0.9609 -0.1833
   41MOL   O31218792   1.067   4.147   0.358 -0.3642  0.6759 -0.4043
   41MOL   O31318793   0.919   4.221   0.203 -0.0736 -0.0240  0.4601
   41MOL   C31418794   0.948   4.487   0.264 -0.0659  0.0883  0.4490
   41MOL   C31518795   0.962   4.628   0.296 -0.1422 -0.1323  0.5510
   41MOL   H31618796   1.036   5.056   0.189 -4.2239 -0.0030 -0.0056
   41MOL   H31718797   1.133   5.166   0.265 -0.5253 -0.0351 -1.1847
   41MOL   H31818798   0.914   5.063   0.439 -1.0286 -0.8394 -0.6071
   41MOL   H31918799   1.088   5.072   0.473  1.0186  0.8158 -1.9311
   41MOL   H32018800   1.201   4.593   0.521  1.4821  0.9683 -2.0452
   41MOL   H32118801   1.199   4.361   0.443  0.5781 -0.3469 -2.4387
   41MOL   H32218802   0.877   4.462   0.187 -1.4458  1.5139  1.2186
   41MOL   H32318803   0.892   4.700   0.256 -0.2832 -1.4092 -1.6153
   41MOL   O32418804   0.852   4.086   0.218  0.5237  0.2306 -0.2637
   41MOL   C32518805   0.715   4.106   0.263  0.3034 -0.1045 -0.0966
   41MOL   C32618806   0.714   4.161   0.406 -0.8258  0.5359  0.2826
   41MOL   O32718807   0.698   4.298   0.419 -0.1954  0.1970  0.3950
   41MOL   C32818808   0.677   4.350   0.530 -0.1102  0.0589  0.0111
   41MOL   O32918809   0.675   4.298   0.646 -0.0064 -0.1063  0.3429
   41MOL   C33018810   0.646   4.497   0.517 -0.1225 -0.0245  0.1367
   41MOL   C33118811   0.627   4.577   0.634 -0.5720 -0.2209  0.1680
   41MOL   C33218812   0.611   4.716   0.618 -0.4884 -0.6845 -1.3543
   41MOL   C33318813   0.606   4.774   0.490 -0.8205 -0.1018 -0.1084
   41MOL   C33418814   0.580   4.917   0.481  0.2626  0.1870  0.1094
   41MOL   O33518815   0.583   4.994   0.576  0.7896 -0.2373 -0.4141
   41MOL   O33618816   0.546   4.958   0.361 -0.2807 -0.0929 -0.0143
   41MOL   C33718817   0.614   4.696   0.377  0.1903 -0.3477  1.1527
   41MOL   C33818818   0.643   4.555   0.389  0.3599 -0.2457  0.3843
   41MOL   H33918819   0.659   4.163   0.189 -1.2087  0.2865  1.3076
   41MOL   H34018820   0.676   4.006   0.250  0.2834 -0.0705 -0.3047
   41MOL   H34118821   0.805   4.145   0.463 -0.9191 -0.7120  0.0830
   41MOL   H34218822   0.638   4.111   0.466  0.1356 -1.0839  0.1633
   41MOL   H34318823   0.629   4.541   0.735 -0.8926  2.5286  1.2072
   41MOL   H34418824   0.599   4.776   0.706 -2.4812 -2.7893 -0.1454
   41MOL   H34518825   0.597   4.741   0.280 -3.9139  1.8218  2.7464
   41MOL   H34618826   0.653   4.503   0.295  2.3329 -0.9295  0.9498
   41MOL   O34718827   0.511   5.105   0.354 -0.0231  0.4798  0.0384
   41MOL   C34818828   0.627   5.170   0.320  0.1862 -0.0457 -0.4563
   41MOL   C34918829   0.598   5.325   0.320 -0.4850  0.7547 -1.2279
   41MOL   O35018830   0.495   5.364   0.232  0.6450  0.2259  0.3633
   41MOL   C35118831   0.526   5.421   0.112 -0.0597 -0.3020  0.5489
   41MOL   O35218832   0.642   5.445   0.077 -0.1721  0.4043  0.2561
   41MOL   C35318833   0.406   5.454   0.025  0.7216  0.3152 -0.2892
   41MOL   C35418834   0.433   5.519   8.178  0.7388 -0.0679 -0.1432
   41MOL   C35518835   0.326   5.561   8.098  0.0935  0.0677  0.3257
   41MOL   C35618836   0.197   5.517   8.131  0.3253  0.2849 -0.7175
   41MOL   C35718837   0.084   5.534   8.024 -0.8479 -0.9336  0.1211
   41MOL   O35818838   8.247   5.494   8.050 -0.0692 -0.0659 -0.1399
   41MOL   O35918839   0.133   5.583   7.902 -0.4224  0.3716  0.3782
   41MOL   C36018840   0.169   5.447   8.251 -0.2203  0.3683 -0.4854
   41MOL   C36118841   0.274   5.420   0.062  0.2307 -0.0196 -0.4881
   41MOL   H36218842   0.708   5.157   0.392 -0.6961 -0.1291  0.5357
   41MOL   H36318843   0.663   5.128   0.226  0.7645 -1.8491  0.5496
   41MOL   H36418844   0.692   5.375   0.296  0.1970 -1.0480 -2.4244
   41MOL   H36518845   0.582   5.344   0.426  2.0528 -3.1640 -0.0432
   41MOL   H36618846   0.533   5.543   8.144  0.3200 -1.9011 -2.7835
   41MOL   H36718847   0.346   5.610   8.003  2.1648 -0.2622  0.5600
   41MOL   H36818848   0.066   5.424   8.273 -0.0663  0.4052  0.3134
   41MOL   H36918849   0.246   5.352   0.141  0.5488 -0.7949 -1.0290
   41MOL   O37018850   0.045   5.678   7.836 -0.3190 -0.4676 -0.1417
   41MOL   C37118851   0.103   5.724   7.718  0.5215  0.7699  0.2846
   41MOL   C37218852   8.267   5.756   7.609 -0.0144 -0.0898 -0.8465
   41MOL   O37318853   8.195   5.868   7.644 -0.0215  0.2788  1.0871
   41MOL   C37418854   8.123   5.934   7.553 -0.3408 -0.1485  0.9324
   41MOL   O37518855   8.111   5.902   7.435 -0.4508  0.4077  0.0728
   41MOL   C37618856   8.064   6.054   7.600  0.7863 -0.4686 -0.5085
   41MOL   C37718857   7.998   6.141   7.508  0.0401  0.1353 -0.4496
   41MOL   C37818858   7.942   6.266   7.550 -0.2166  0.9057  0.4703
   41MOL   C37918859   7.950   6.306   7.686 -0.3150  0.5720 -0.2845
   41MOL   C38018860   7.910   6.441   7.728 -0.3376 -0.1376  0.2660
   41MOL   O38118861   7.930   6.483   7.843  0.3306 -0.0299 -0.4756
   41MOL   O38218862   7.872   6.515   7.618  0.0301 -0.0109 -0.4281
   41MOL   C38318863   8.013   6.210   7.779  0.0343  0.1808 -0.1495
   41MOL   C38418864   8.057   6.079   7.736  0.2062 -0.2534 -0.0202
   41MOL   H38518865   0.163   5.813   7.737 -0.1154  1.0082  1.1940
   41MOL   H38618866   0.148   5.633   7.677 -2.0401  0.1726 -1.3342
   41MOL   H38718867   8.192   5.677   7.606  1.1129 -1.1913 -0.2217
   41MOL   H38818868   0.034   5.772   7.510 -0.8756 -2.8410 -1.7068
   41MOL   H38918869   7.992   6.123   7.402  0.2301 -0.7262 -0.3178
   41MOL   H39018870   7.899   6.331   7.476 -0.6416  1.3329  1.0846
   41MOL   H39118871   8.028   6.237   7.882  1.2500  0.7042 -0.4637
   41MOL   H39218872   8.085   6.007   7.812  0.8955  1.6021  1.5509
   41MOL   O39318873   7.833   6.654   7.646  0.1200  0.3918  0.1252
   41MOL   C39418874   7.929   6.729   7.581 -1.2232 -0.0631 -0.3978
   41MOL   C39518875   7.885   6.875   7.617  0.3530 -0.8189  0.6469
   41MOL   O39618876   7.932   6.915   7.747  0.2539 -0.2879 -0.1746
   41MOL   C39718877   7.906   7.037   7.795 -0.3097  0.3380  0.1218
   41MOL   O39818878   7.852   7.125   7.725  0.2603  0.3894 -0.3159
   41MOL   C39918879   7.956   7.065   7.934 -0.4258  0.0209 -0.2359
   41MOL   C40018880   7.957   7.198   7.987 -0.2578 -0.5550 -0.1134
   41MOL   C40118881   7.996   7.219   8.120 -0.3101 -0.7101  0.6800
   41MOL   C40218882   8.044   7.116   8.203  0.5028  0.3582 -0.1305
   41MOL   C40318883   8.069   7.138   0.074  0.5455 -0.3417 -0.3951
   41MOL   O40418884   8.069   7.253   0.116  0.0658  0.2978  0.5237
   41MOL   O40518885   8.096   7.027   0.143 -0.0982 -0.2403  0.8755
   41MOL   C40618886   8.035   6.983   8.154  0.7242  0.2552  0.2021
   41MOL   C40718887   7.994   6.959   8.022 -0.0486  0.5544 -0.4184
   41MOL   H40818888   8.029   6.715   7.623 -0.7158 -0.0872 -1.6175
   41MOL   H40918889   7.934   6.722   7.473 -0.4949 -0.9608 -0.3141
   41MOL   H41018890   7.781   6.900   7.594  1.2701  2.4356 -0.1169
   41MOL   H41118891   7.929   6.938   7.540 -2.3511 -0.9147 -1.0449
   41MOL   H41218892   7.928   7.287   7.935 -0.8699 -0.2621  0.7216
   41MOL   H41318893   8.005   7.323   8.149 -2.1660 -0.6857  1.1859
   41MOL   H41418894   8.053   6.894   8.213  0.0472  0.0772  0.1386
   41MOL   H41518895   7.971   6.858   7.993  0.6582  0.1244  0.5209
   41MOL   O41618896   8.072   7.048   0.283 -0.1492  0.2432  0.0306
   41MOL   C41718897   8.023   6.927   0.329  0.1458  0.1493 -0.8179
   41MOL   C41818898   7.989   6.919   0.481  0.1979  0.5691  0.6994
   41MOL   O41918899   8.100   6.935   0.559 -0.3525 -0.4480 -0.3460
   41MOL   C42018900   8.138   7.063   0.599  0.0994  0.7760  0.6391
   41MOL   O42118901   8.094   7.165   0.553 -0.3219 -0.3729  1.1126
   41MOL   C42218902   8.240   7.062   0.708 -0.4641  0.5258 -0.3343
   41MOL   C42318903   8.268   7.177   0.785 -0.6353 -0.2033 -0.2474
   41MOL   C42418904   0.077   7.165   0.896 -0.0399  0.4752 -0.9114
   41MOL   C42518905   0.128   7.041   0.933 -0.6302  0.2307  0.3523
   41MOL   C42618906   0.222   7.025   1.052  0.8257 -0.5944  0.3867
   41MOL   O42718907   0.241   7.113   1.136  0.2095 -0.0354 -0.1428
   41MOL   O42818908   0.280   6.910   1.048 -0.3740  0.5677 -0.1938
   41MOL   C42918909   0.102   6.931   0.849  0.1242  0.2978 -0.4546
   41MOL   C43018910   0.015   6.934   0.739 -0.1992 -0.7680  0.6787
   41MOL   H43118911   7.947   6.892   0.260 -1.0077  0.0594  0.4731
   41MOL   H43218912   8.111   6.866   0.309  1.3546  1.6888 -0.3234
   41MOL   H43318913   7.953   6.818   0.496 -1.9838  1.1687 -0.2692
   41MOL   H43418914   7.906   6.987   0.503 -0.1284 -0.0275  1.3288
   41MOL   H43518915   8.234   7.275   0.755  0.9937  0.1348 -1.0493
   41MOL   H43618916   0.094   7.255   0.954 -0.0030  0.8210 -1.4589
   41MOL   H43718917   0.137   6.829   0.862 -0.3605  0.0306 -1.2249
   41MOL   H43818918   0.001   6.843   0.682  0.3484 -0.5894  0.2536
   41MOL   O43918919   0.384   6.883   1.148 -0.1963  0.3994  0.3714
   41MOL   C44018920   0.323   6.810   1.258  0.2071  0.4870  0.8181
   41MOL   C44118921   0.305   6.662   1.226 -0.1113  0.1575 -0.1374
   41MOL   O44218922   0.169   6.636   1.210  0.0311  0.0051 -0.1006
   41MOL   C44318923   0.124   6.508   1.181 -0.1178 -0.5024 -0.0410
   41MOL   O44418924   0.199   6.428   1.124 -0.4163  0.4552  0.0587
   41MOL   C44518925   8.256   6.483   1.213  0.0734  0.2511 -0.2864
   41MOL   C44618926   8.165   6.594   1.221 -0.6163  0.4111  0.4790
   41MOL   C44718927   8.029   6.570   1.224  0.7995  0.2242  0.3241
   41MOL   C44818928   7.980   6.436   1.220  0.5510  0.3939 -0.4413
   41MOL   C44918929   7.836   6.405   1.219  0.0989  0.2107  0.7446
   41MOL   O45018930   7.794   6.291   1.242  0.5230  0.0896  0.2845
   41MOL   O45118931   7.759   6.507   1.173  0.0193  0.2173  0.2082
   41MOL   C45218932   8.072   6.324   1.233  1.0401  0.2112 -0.4086
   41MOL   C45318933   8.211   6.352   1.231 -0.6563 -0.0786 -0.8556
   41MOL   H45418934   0.402   6.811   1.333 -0.2183 -0.4407  1.2898
   41MOL   H45518935   0.236   6.867   1.293  0.6181  1.1745  0.7258
   41MOL   H45618936   0.336   6.600   1.310 -0.5855  0.0698 -0.0279
   41MOL   H45718937   0.351   6.631   1.132  0.8098  1.6750 -0.2144
   41MOL   H45818938   8.184   6.700   1.219 -2.0757  0.6488 -2.7553
   41MOL   H45918939   7.957   6.650   1.221 -0.3935 -0.9110 -2.1367
   41MOL   H46018940   8.024   6.227   1.237  0.4131  0.5812  1.6032
   41MOL   H46118941   0.013   6.276   1.235 -0.6096 -0.0207 -0.6390
   41MOL   H46218942   7.684   6.459   1.143 -0.2271  0.9868 -0.4207
   42MOL     O118943   7.619   2.585   0.387 -0.2224  0.3677  0.0168
   42MOL     C218944   7.591   2.648   0.259  0.0814  0.4270 -0.1482
   42MOL     C318945   7.650   2.781   0.242  0.1291  0.2282 -0.1061
   42MOL     O418946   7.562   2.884   0.284  0.8404  0.1848 -0.0833
   42MOL     C518947   7.594   3.008   0.277  0.3958 -0.2592 -0.0396
   42MOL     O618948   7.703   3.044   0.233 -0.4793  0.5038  0.5270
   42MOL     C718949   7.481   3.094   0.320 -0.5351 -0.4878  0.0515
   42MOL     C818950   7.500   3.232   0.293 -1.0434 -0.7092  0.0414
   42MOL     C918951   7.393   3.321   0.320 -0.5099 -0.1900 -0.4600
   42MOL    C1018952   7.266   3.263   0.359 -0.0777  0.0311 -0.9677
   42MOL    C1118953   7.158   3.361   0.383  0.4396  0.4038  0.4304
   42MOL    O1218954   7.176   3.483   0.404 -0.7989  0.1664 -0.7745
   42MOL    O1318955   7.038   3.298   0.387 -0.0021  0.1258 -0.0062
   42MOL    C1418956   7.249   3.127   0.381  0.1493  0.5145  0.1738
   42MOL    C1518957   7.353   3.041   0.358  0.5540  0.5136  0.0218
   42MOL    H1618958   7.648   2.588   0.189  0.6907 -0.4769  1.1146
   42MOL    H1718959   7.486   2.643   0.229  0.4945 -0.9315 -1.3906
   42MOL    H1818960   7.668   2.787   0.135 -0.5072  0.6539 -0.1904
   42MOL    H1918961   7.743   2.782   0.299  1.5943 -1.8415 -2.3727
   42MOL    H2018962   7.591   3.278   0.256 -0.9039  0.9671  2.3347
   42MOL    H2118963   7.402   3.428   0.314 -2.2066 -0.0165 -0.2598
   42MOL    H2218964   7.156   3.077   0.406  0.4996 -1.3383 -1.9638
   42MOL    H2318965   7.340   2.934   0.362 -1.4907  0.7376  0.0016
   42MOL    H2418966   7.610   2.643   0.461  0.2034  1.3635 -0.6908
   42MOL    O2518967   6.916   3.393   0.407 -0.3206 -0.4391  0.1680
   42MOL    C2618968   6.851   3.400   0.280 -0.0223  0.0720 -1.0220
   42MOL    C2718969   6.795   3.547   0.249 -0.6794  0.8711  0.0415
   42MOL    O2818970   6.808   3.574   0.112  0.5181 -0.5328 -0.2089
   42MOL    C2918971   6.703   3.603   0.039 -0.9778 -0.3349 -0.0531
   42MOL    O3018972   6.586   3.593   0.078 -0.4126 -0.4471  0.6915
   42MOL    C3118973   6.742   3.651   8.181  0.3695  0.8135 -0.7290
   42MOL    C3218974   6.875   3.660   8.130  0.9176 -0.9881 -0.3351
   42MOL    C3318975   6.900   3.710   8.005 -0.1417  0.4826  0.2311
   42MOL    C3418976   6.794   3.752   7.918 -0.2099 -0.8814 -0.5084
   42MOL    C3518977   6.815   3.783   7.773 -0.2833  0.1098 -0.2055
   42MOL    O3618978   6.723   3.780   7.690  0.4139  0.2003 -0.1945
   42MOL    O3718979   6.937   3.825   7.746 -0.0286 -0.3858  0.4815
   42MOL    C3818980   6.664   3.763   7.977  0.4153 -0.2825  0.2447
   42MOL    C3918981   6.644   3.707   8.100  0.3610  0.0851  0.1011
   42MOL    H4018982   6.920   3.380   0.199 -1.2107  0.1749 -2.0795
   42MOL    H4118983   6.771   3.328   0.266 -1.5577  1.5813 -0.1775
   42MOL    H4218984   6.865   3.609   0.303  0.3688 -0.3374  0.1037
   42MOL    H4318985   6.702   3.563   0.304 -0.0923  1.0407  0.9952
   42MOL    H4418986   6.961   3.637   8.192  0.1015  3.1570  2.5783
   42MOL    H4518987   7.006   3.710   7.982 -0.0289 -1.2809  0.6872
   42MOL    H4618988   6.585   3.809   7.919 -0.2961  0.3091  1.6671
   42MOL    H4718989   6.539   3.700   8.123 -0.6487  0.3218 -4.0871
   42MOL    O4818990   6.951   3.886   7.606  0.5742  0.7553 -0.0293
   42MOL    C4918991   6.906   4.017   7.609  0.4750  0.6862  0.3107
   42MOL    C5018992   6.917   4.068   7.463 -0.1981 -0.0133 -0.2480
   42MOL    O5118993   6.999   4.186   7.458 -0.0640  0.5186  0.1521
   42MOL    C5218994   7.001   4.247   7.338  1.1918 -0.4134  0.0416
   42MOL    O5318995   6.932   4.217   7.241  0.1144 -0.1440  0.0757
   42MOL    C5418996   7.104   4.350   7.336  0.0685 -0.0758 -0.0958
   42MOL    C5518997   7.175   4.395   7.452  0.1777 -0.3222 -0.4116
   42MOL    C5618998   7.268   4.503   7.438 -0.3104  0.7325 -0.5139
   42MOL    C5718999   7.302   4.548   7.308 -0.6752  0.3566  0.4996
   42MOL    C5819000   7.414   4.641   7.289 -0.3572 -1.0643 -0.1004
   42MOL    O5919001   7.504   4.676   7.373  0.4182 -0.1278  0.0039
   42MOL    O6019002   7.408   4.698   7.166 -0.4027  0.0748  0.4026
   42MOL    C6119003   7.243   4.489   7.192 -0.3507 -0.2761 -0.3552
   42MOL    C6219004   7.141   4.399   7.206 -0.5948 -0.0459  0.0508
   42MOL    H6319005   6.802   4.030   7.640 -0.2061 -0.6452 -1.3473
   42MOL    H6419006   6.963   4.064   7.689 -1.6767  2.6750  0.7603
   42MOL    H6519007   6.816   4.070   7.423 -0.8397 -0.3960  1.3161
   42MOL    H6619008   6.966   3.992   7.403 -0.4732  1.6814 -2.6967
   42MOL    H6719009   7.150   4.362   7.552  2.4212  1.4353  0.7686
   42MOL    H6819010   7.305   4.547   7.530 -1.5919 -1.4730  1.1002
   42MOL    H6919011   7.267   4.520   7.092  0.9100 -0.0501 -0.0006
   42MOL    H7019012   7.084   4.359   7.124  0.4848 -0.7987 -0.3500
   42MOL    O7119013   7.499   4.805   7.159  0.1976 -0.4311 -0.4609
   42MOL    C7219014   7.441   4.914   7.080 -0.2572  0.0611  1.3535
   42MOL    C7319015   7.543   5.024   7.062  0.0520 -0.6588 -0.4395
   42MOL    O7419016   7.661   4.978   6.996 -0.4177 -0.5582 -0.0697
   42MOL    C7519017   7.768   5.072   7.002  0.2653  0.3775  0.7684
   42MOL    O7619018   7.768   5.163   7.082 -0.5562 -0.7291 -0.5397
   42MOL    C7719019   7.853   5.060   6.888 -0.8188  0.0954 -0.6657
   42MOL    C7819020   7.822   5.001   6.767 -0.2512  0.3592  0.1267
   42MOL    C7919021   7.909   4.995   6.660  0.1313 -0.4892 -0.1981
   42MOL    C8019022   8.042   5.052   6.678  0.0440  0.7617 -0.4104
   42MOL    C8119023   8.145   5.040   6.579 -0.3192  0.1248 -0.0565
   42MOL    O8219024   8.260   5.075   6.596  0.3086 -0.2604 -0.6186
   42MOL    O8319025   8.110   4.978   6.468 -0.2020  0.1574 -0.7145
   42MOL    C8419026   8.075   5.111   6.802  0.1698  0.0335  0.3474
   42MOL    C8519027   7.985   5.115   6.908 -0.2975  0.0720 -0.4420
   42MOL    H8619028   7.397   4.879   6.987 -0.9022  1.0621  1.2700
   42MOL    H8719029   7.349   4.948   7.128 -0.4856  1.4016 -0.0090
   42MOL    H8819030   7.572   5.049   7.164 -1.2447 -0.3236 -0.1439
   42MOL    H8919031   7.490   5.112   7.023  0.3818 -1.1634 -2.0726
   42MOL    H9019032   7.722   4.961   6.757  0.0906 -0.7018  0.8530
   42MOL    H9119033   7.872   4.951   6.568 -0.4334  0.2829 -0.3472
   42MOL    H9219034   8.175   5.147   6.820  0.2503 -0.3435  0.6449
   42MOL    H9319035   8.025   5.151   7.002 -1.1459  3.2296 -1.2298
   42MOL    O9419036   8.224   4.942   6.380  0.3255 -0.2647  0.4634
   42MOL    C9519037   8.261   4.802   6.405 -0.5935 -0.2131 -0.9901
   42MOL    C9619038   8.141   4.713   6.376  0.5087 -0.3476 -0.3939
   42MOL    O9719039   8.086   4.734   6.248 -0.6040 -0.3562 -0.2685
   42MOL    C9819040   8.110   4.635   6.159  0.4910 -0.4672 -0.4062
   42MOL    O9919041   8.169   4.530   6.182 -0.0735 -0.0444  0.2229
   42MOL   C10019042   8.044   4.664   6.027 -0.1493 -0.7554  0.2386
   42MOL   C10119043   8.081   4.579   5.922  0.0457 -0.7000 -0.5267
   42MOL   C10219044   8.019   4.601   5.795  0.7765  0.1091  0.0474
   42MOL   C10319045   7.924   4.701   5.773 -0.7584  0.5039 -0.0080
   42MOL   C10419046   7.850   4.715   5.644 -0.2673 -0.9347  0.1234
   42MOL   O10519047   7.772   4.811   5.618  0.1733  0.0194  0.4087
   42MOL   O10619048   7.880   4.616   5.556 -0.0845 -0.1406  0.3720
   42MOL   C10719049   7.888   4.779   5.881  0.3020  0.3059 -0.6823
   42MOL   C10819050   7.951   4.767   6.005 -0.5522  0.2155  0.2652
   42MOL   H10919051   0.065   4.790   6.331  0.2202  1.3394 -0.4067
   42MOL   H11019052   0.009   4.778   6.508  0.5253 -0.2178 -1.2411
   42MOL   H11119053   8.060   4.744   6.442  1.9649 -0.2287  1.3946
   42MOL   H11219054   8.161   4.608   6.399 -0.9082 -0.8293 -1.3018
   42MOL   H11319055   8.152   4.502   5.946  0.1075 -0.0788  1.3324
   42MOL   H11419056   8.040   4.537   5.711  0.3466 -0.0908  0.0934
   42MOL   H11519057   7.798   4.838   5.876 -0.6857 -1.2180 -1.4766
   42MOL   H11619058   7.919   4.826   6.090 -1.3418  1.3762 -0.8295
   42MOL   O11719059   7.809   4.634   5.421 -0.9090  0.0374 -0.0338
   42MOL   C11819060   7.703   4.534   5.418 -0.2319  0.1286 -0.5413
   42MOL   C11919061   7.755   4.393   5.429 -0.7646 -0.8145 -0.0370
   42MOL   O12019062   7.641   4.308   5.444 -0.5601 -0.3698 -0.1536
   42MOL   C12119063   7.655   4.194   5.509 -0.1065  0.1969  0.8605
   42MOL   O12219064   7.764   4.141   5.535 -0.1901 -0.0956  0.2072
   42MOL   C12319065   7.517   4.136   5.545 -0.1120 -0.8453  0.1601
   42MOL   C12419066   7.510   4.014   5.616  0.2403 -0.0596  0.4869
   42MOL   C12519067   7.389   3.960   5.661 -0.0838  0.2224  0.5443
   42MOL   C12619068   7.265   4.020   5.631 -0.3468  0.2034 -0.2142
   42MOL   C12719069   7.139   3.961   5.689  0.0129  0.2362  0.3740
   42MOL   O12819070   7.132   3.862   5.759 -0.3999 -0.5101 -0.1469
   42MOL   O12919071   7.030   4.030   5.637  0.5899 -0.1459 -0.3446
   42MOL   C13019072   7.267   4.135   5.549  0.0870 -0.1484 -0.1710
   42MOL   C13119073   7.391   4.195   5.512  0.1714 -0.0713  0.2062
   42MOL   H13219074   7.624   4.553   5.490  0.3787 -0.5854  0.3295
   42MOL   H13319075   7.664   4.540   5.316  0.3754 -1.4907 -0.8735
   42MOL   H13419076   7.832   4.386   5.506  0.7595 -0.7750 -1.5224
   42MOL   H13519077   7.808   4.363   5.338  0.5008 -2.9319  1.3779
   42MOL   H13619078   7.604   3.965   5.637  0.6720  0.0620 -1.0920
   42MOL   H13719079   7.386   3.863   5.709  2.6272 -0.0569  0.2368
   42MOL   H13819080   7.179   4.190   5.518  0.4603  2.2652  2.8403
   42MOL   H13919081   7.390   4.286   5.453 -0.2910 -0.0679  0.2143
   42MOL   O14019082   6.903   3.956   5.671 -0.0161 -0.6712  0.2692
   42MOL   C14119083   6.829   4.031   5.760  0.6112 -0.3509 -0.1969
   42MOL   C14219084   6.762   4.153   5.681 -0.1012  0.2208  0.5545
   42MOL   O14319085   6.675   4.079   5.596 -0.4429  0.4566 -0.1789
   42MOL   C14419086   6.647   4.113   5.465 -0.6103 -0.1401  0.3361
   42MOL   O14519087   6.685   4.218   5.411 -0.2703  0.3713  0.0846
   42MOL   C14619088   6.548   4.030   5.399 -1.0016  1.3091  0.5300
   42MOL   C14719089   6.480   3.928   5.472 -0.5215  0.6130 -0.0340
   42MOL   C14819090   6.377   3.853   5.420  0.0294  0.4170 -0.5494
   42MOL   C14919091   6.332   3.877   5.283  0.4354 -1.0448 -0.5956
   42MOL   C15019092   6.227   3.788   5.221 -0.3423  0.1883 -0.0804
   42MOL   O15119093   6.166   3.817   5.120 -0.6771  0.0439  0.4542
   42MOL   O15219094   6.225   3.667   5.276 -0.0745 -0.4977 -0.0899
   42MOL   C15319095   6.395   3.984   5.211 -0.1573 -1.0547 -0.0681
   42MOL   C15419096   6.505   4.054   5.266  0.3005 -0.1300  0.0970
   42MOL   H15519097   6.747   3.981   5.811  1.4982  0.0189  1.5984
   42MOL   H15619098   6.890   4.075   5.839  0.1862  0.0123 -0.0710
   42MOL   H15719099   6.837   4.205   5.621  0.2823  1.2798  1.9219
   42MOL   H15819100   6.701   4.213   5.749 -1.9695  0.4901 -1.2986
   42MOL   H15919101   6.497   3.910   5.577 -3.8293  2.2348  0.8209
   42MOL   H16019102   6.330   3.769   5.469  1.2062  0.6579  1.0530
   42MOL   H16119103   6.361   4.017   5.114 -1.2251 -1.1049  0.2811
   42MOL   H16219104   6.563   4.121   5.204  1.4016  0.8600  2.1159
   42MOL   O16319105   6.112   3.581   5.235 -0.0439 -0.1164  0.1583
   42MOL   C16419106   6.167   3.465   5.172  0.5415  0.8032  0.1939
   42MOL   C16519107   6.067   3.358   5.116 -0.0121 -0.3278  0.3546
   42MOL   O16619108   5.979   3.302   5.210  0.4613  0.8360 -0.2941
   42MOL   C16719109   6.014   3.204   5.293 -0.0525  0.5039  0.2980
   42MOL   O16819110   6.128   3.160   5.297  0.1348  0.1540 -0.2939
   42MOL   C16919111   5.891   3.148   5.364 -0.5896 -0.9917  0.0955
   42MOL   C17019112   5.764   3.213   5.346  0.0919 -0.0836 -0.4728
   42MOL   C17119113   5.647   3.153   5.405 -0.1301  0.5817  1.0243
   42MOL   C17219114   5.656   3.022   5.458  0.2085 -0.2787  0.2938
   42MOL   C17319115   5.532   2.950   5.482  0.2143 -0.2853  0.5586
   42MOL   O17419116   5.420   3.002   5.485 -0.5934 -0.2606 -0.4448
   42MOL   O17519117   5.552   2.813   5.492 -0.0983 -0.3775  0.3044
   42MOL   C17619118   5.781   2.960   5.468 -0.4494  0.0139  0.3816
   42MOL   C17719119   5.900   3.023   5.429 -0.3849  0.5976  0.4584
   42MOL   H17819120   6.231   3.507   5.094  0.9032 -1.0121 -0.5226
   42MOL   H17919121   6.225   3.411   5.247 -0.5447 -0.5873  0.0532
   42MOL   H18019122   6.127   3.277   5.076 -1.2587 -2.3918  2.4929
   42MOL   H18119123   5.997   3.395   5.041  0.1166 -0.2190  0.2876
   42MOL   H18219124   5.757   3.304   5.288 -1.4358 -0.0396 -0.2381
   42MOL   H18319125   5.550   3.198   5.385  0.7911  1.4848 -1.5747
   42MOL   H18419126   5.785   2.860   5.510  1.6434  0.2326  0.7475
   42MOL   H18519127   5.990   2.968   5.453  0.6340  2.2203  0.4345
   42MOL   O18619128   5.424   2.750   5.533 -0.4534 -0.4572 -0.5180
   42MOL   C18719129   5.406   2.773   5.678 -0.6552 -0.8753  0.0117
   42MOL   C18819130   5.263   2.733   5.695 -0.0158  0.4894  0.1575
   42MOL   O18919131   5.261   2.606   5.758  0.0367 -0.3096  0.2107
   42MOL   C19019132   5.308   2.594   5.886 -0.1538 -0.0969 -0.2131
   42MOL   O19119133   5.356   2.684   5.955  0.3777  0.3925  0.4111
   42MOL   C19219134   5.312   2.453   5.933  0.1538 -0.8514 -0.1809
   42MOL   C19319135   5.246   2.347   5.870 -0.1387 -0.0788 -0.7340
   42MOL   C19419136   5.247   2.212   5.923 -0.3779 -0.3093 -0.3292
   42MOL   C19519137   5.337   2.178   6.027  0.2440  0.4202 -1.2101
   42MOL   C19619138   5.361   2.032   6.067 -1.0353  0.4615 -0.6410
   42MOL   O19719139   5.471   1.981   6.080  0.4328 -0.8086 -0.4362
   42MOL   O19819140   5.246   1.964   6.063  0.0965 -0.4948  0.1769
   42MOL   C19919141   5.413   2.283   6.090  0.2808 -0.9094 -0.3787
   42MOL   C20019142   5.395   2.419   6.045  0.0168  0.8147 -0.3167
   42MOL   H20119143   5.485   2.718   5.730 -1.8356 -0.6340  2.1132
   42MOL   H20219144   5.412   2.876   5.712  2.7867 -1.2563  0.7606
   42MOL   H20319145   5.207   2.735   5.602 -2.5461  0.4497  1.6375
   42MOL   H20419146   5.208   2.805   5.755  1.3505  0.6463  1.2680
   42MOL   H20519147   5.196   2.356   5.774 -2.8283 -0.3890  0.6030
   42MOL   H20619148   5.172   2.145   5.884  1.0909 -3.1758  1.5372
   42MOL   H20719149   5.480   2.261   6.171  0.6063  0.8837 -0.1427
   42MOL   H20819150   5.467   2.486   6.089  0.0746 -0.8769  2.2680
   42MOL   O20919151   5.264   1.830   6.126  0.6704  0.4745 -0.3078
   42MOL   C21019152   5.290   1.727   6.036 -0.1718 -0.7790 -0.8094
   42MOL   C21119153   5.436   1.682   6.017 -0.4042  0.1148  0.0189
   42MOL   O21219154   5.507   1.747   5.909  0.1706  0.3729  0.0080
   42MOL   C21319155   5.482   1.709   5.786 -0.2661 -0.2616  0.2437
   42MOL   O21419156   5.392   1.636   5.756 -0.0907  0.1700 -0.2178
   42MOL   C21519157   5.558   1.792   5.676  0.1555 -0.1557  0.2683
   42MOL   C21619158   5.663   1.882   5.713  0.7022  0.4025  0.3115
   42MOL   C21719159   5.739   1.945   5.617  0.1309 -0.5859 -0.1615
   42MOL   C21819160   5.710   1.929   5.480  0.1261  0.0783  0.1602
   42MOL   C21919161   5.783   2.005   5.379 -0.2288 -0.4687  0.2197
   42MOL   O22019162   5.804   1.964   5.263 -0.0575  0.1226 -0.1583
   42MOL   O22119163   5.831   2.118   5.427  0.1801  0.2880  0.2390
   42MOL   C22219164   5.601   1.849   5.444 -0.2208  0.8109 -0.1859
   42MOL   C22319165   5.536   1.774   5.541  0.8046  0.4855 -0.6261
   42MOL   H22419166   5.254   1.639   6.088  0.9375 -1.2438 -0.8033
   42MOL   H22519167   5.245   1.739   5.937  0.4213  1.0891 -0.8722
   42MOL   H22619168   5.445   1.574   6.003  0.9980  0.2356 -0.0698
   42MOL   H22719169   5.492   1.699   6.109 -0.7410 -2.1927  0.6837
   42MOL   H22819170   5.696   1.886   5.815  1.0935 -1.1003  0.2533
   42MOL   H22919171   5.823   2.007   5.644 -0.9244  0.8195 -0.0810
   42MOL   H23019172   5.567   1.839   5.342  0.0039 -1.2125 -0.0745
   42MOL   H23119173   5.467   1.702   5.500  1.3100 -0.5440  0.3134
   42MOL   O23219174   5.904   2.196   5.322 -0.3318  0.0687  0.3179
   42MOL   C23319175   6.041   2.182   5.363 -0.2087 -0.1177 -0.3613
   42MOL   C23419176   6.120   2.276   5.268 -0.4764 -0.4084  0.1741
   42MOL   O23519177   6.147   2.394   5.341  0.0968 -0.2974 -0.4429
   42MOL   C23619178   6.202   2.508   5.288  0.9435 -0.1403  0.3497
   42MOL   O23719179   6.222   2.508   5.171 -0.2840  0.5738 -0.0104
   42MOL   C23819180   6.210   2.625   5.379  0.8779 -0.3685  0.1254
   42MOL   C23919181   6.250   2.750   5.328  0.1771  0.4052  0.5940
   42MOL   C24019182   6.269   2.863   5.414  0.2158 -0.5852 -0.3221
   42MOL   C24119183   6.226   2.855   5.550  0.1515  0.1568 -0.0968
   42MOL   C24219184   6.210   2.968   5.648 -0.4067 -0.3167 -0.1441
   42MOL   O24319185   6.182   2.953   5.764 -0.3602 -0.5074  0.1259
   42MOL   O24419186   6.227   3.089   5.581 -0.0164  0.6615 -0.5632
   42MOL   C24519187   6.181   2.735   5.604 -1.1176  0.0551 -0.3197
   42MOL   C24619188   6.179   2.621   5.518 -0.1357 -0.0364  0.1140
   42MOL   H24719189   6.060   2.211   5.467  1.3176  2.7160 -1.3684
   42MOL   H24819190   6.071   2.078   5.353  0.2621  0.0435 -0.6486
   42MOL   H24919191   6.068   2.301   5.176  0.9151  1.5212 -0.1290
   42MOL   H25019192   6.215   2.243   5.225 -0.3108  1.4311 -0.9171
   42MOL   H25119193   6.280   2.762   5.225 -0.8227 -1.6178  0.0471
   42MOL   H25219194   6.302   2.955   5.367 -0.9347  0.4619  0.8943
   42MOL   H25319195   6.153   2.721   5.707  0.4862 -0.7035  0.0379
   42MOL   H25419196   6.142   2.526   5.552  0.3771  0.2672  1.6097
   42MOL   O25519197   6.240   3.213   5.660  0.3990  0.1531 -0.1277
   42MOL   C25619198   6.107   3.266   5.691  0.3016 -0.0869  0.3787
   42MOL   C25719199   6.110   3.378   5.795 -0.1722 -0.6266  0.2310
   42MOL   O25819200   6.146   3.504   5.731  0.0364  0.4101 -0.5018
   42MOL   C25919201   6.204   3.600   5.807 -0.1055 -0.1388 -0.4973
   42MOL   O26019202   6.250   3.590   5.920 -0.7348  0.1996  0.2321
   42MOL   C26119203   6.191   3.731   5.741 -0.0994 -0.0819 -0.5220
   42MOL   C26219204   6.249   3.848   5.790 -0.2033  0.7418 -0.6810
   42MOL   C26319205   6.221   3.972   5.730  0.8005 -0.1491  0.0673
   42MOL   C26419206   6.145   3.984   5.608 -0.2521  0.1436  0.0920
   42MOL   C26519207   6.137   4.112   5.522  0.8643 -0.3543 -0.0421
   42MOL   O26619208   6.083   4.118   5.410 -0.3991 -0.1192 -0.4094
   42MOL   O26719209   6.189   4.214   5.589 -0.2037  0.4043  0.3129
   42MOL   C26819210   6.091   3.864   5.556  0.5236  0.3483 -0.4324
   42MOL   C26919211   6.108   3.742   5.627 -1.0406  0.1031 -0.1874
   42MOL   H27019212   6.075   3.311   5.597  1.1797 -1.0607 -0.3956
   42MOL   H27119213   6.032   3.191   5.716  0.8208 -0.2879  1.3651
   42MOL   H27219214   6.181   3.342   5.869 -0.7082  1.0963  1.6212
   42MOL   H27319215   6.011   3.390   5.839  0.9064  1.0216  2.3049
   42MOL   H27419216   6.326   3.848   5.866 -1.0317 -0.5881  0.1984
   42MOL   H27519217   6.268   4.050   5.788  1.1494  1.0754 -1.8042
   42MOL   H27619218   6.028   3.870   5.468 -1.1580 -1.2935  0.6181
   42MOL   H27719219   6.042   3.660   5.602 -0.3447 -0.6844  0.5137
   42MOL   O27819220   6.213   4.327   5.499 -0.2727 -1.2797  0.2008
   42MOL   C27919221   6.355   4.343   5.490  0.0571 -0.3858 -0.0795
   42MOL   C28019222   6.421   4.395   5.620  0.9585 -0.3573  0.8706
   42MOL   O28119223   6.429   4.294   5.725  0.0216 -0.1495 -0.0472
   42MOL   C28219224   6.492   4.334   5.841 -0.5904  0.1279 -0.3254
   42MOL   O28319225   6.519   4.453   5.866  0.3029 -0.1337  0.1362
   42MOL   C28419226   6.521   4.224   5.936  0.3833  0.0751  0.0463
   42MOL   C28519227   6.549   4.267   6.069 -0.9996 -0.7186  0.0343
   42MOL   C28619228   6.556   4.178   6.178 -0.2397  0.8371  0.7260
   42MOL   C28719229   6.536   4.040   6.151 -0.5828  0.3828 -0.2834
   42MOL   C28819230   6.524   3.947   6.263 -0.0836  0.0260 -0.2298
   42MOL   O28919231   6.548   3.971   6.384 -0.3197  0.2403 -0.0113
   42MOL   O29019232   6.493   3.824   6.222  0.1830  0.3771 -0.6377
   42MOL   C29119233   6.518   3.992   6.015 -0.5038  0.9720 -0.1202
   42MOL   C29219234   6.502   4.087   5.914 -0.2687 -0.6349  0.5800
   42MOL   H29319235   6.406   4.256   5.448  1.0698  0.4560 -0.6087
   42MOL   H29419236   6.362   4.410   5.404 -0.5379 -0.2341 -0.0112
   42MOL   H29519237   6.379   4.489   5.655  2.0914 -0.3617  2.2690
   42MOL   H29619238   6.522   4.418   5.587  0.7540 -0.1878  0.3605
   42MOL   H29719239   6.550   4.371   6.096 -1.3156 -0.2578 -1.6563
   42MOL   H29819240   6.573   4.209   6.280  0.2142  1.6186  0.4172
   42MOL   H29919241   6.491   3.889   5.999  1.9579  0.1284  0.9942
   42MOL   H30019242   6.482   4.049   5.815 -3.1027 -0.2568  0.9831
   42MOL   O30119243   6.529   3.718   6.322 -0.0683  0.1178  0.1781
   42MOL   C30219244   6.548   3.602   6.249  0.2091 -0.3360 -0.8456
   42MOL   C30319245   6.421   3.568   6.173  0.3587 -0.2015  1.0493
   42MOL   O30419246   6.383   3.435   6.203 -0.5991  0.0178 -0.0562
   42MOL   C30519247   6.413   3.328   6.116  0.4276 -0.2174 -0.3004
   42MOL   O30619248   6.480   3.345   6.012 -0.1586  0.0996  0.2425
   42MOL   C30719249   6.343   3.197   6.152  0.0907 -0.2049  0.9969
   42MOL   C30819250   6.329   3.089   6.053  1.3553  0.8479  0.8256
   42MOL   C30919251   6.288   2.962   6.093  0.3186 -0.1282 -0.6691
   42MOL   C31019252   6.246   2.948   6.228 -0.3656 -0.7605  0.0909
   42MOL   C31119253   6.188   2.815   6.273  0.0955 -0.9225  0.4228
   42MOL   O31219254   6.180   2.713   6.205 -0.6228  0.0513 -0.1435
   42MOL   O31319255   6.156   2.821   6.399 -0.8807  0.8183  0.1279
   42MOL   C31419256   6.235   3.061   6.317  0.4531  0.0468 -0.6194
   42MOL   C31519257   6.275   3.188   6.273 -0.2041 -0.0950 -0.8497
   42MOL   H31619258   6.634   3.613   6.184 -0.2442  2.3061 -1.0531
   42MOL   H31719259   6.589   3.518   6.304 -1.2817 -1.2274 -1.0759
   42MOL   H31819260   6.434   3.569   6.065 -1.0533  0.5034  0.8736
   42MOL   H31919261   6.337   3.629   6.206  1.1591  0.3807  2.0772
   42MOL   H32019262   6.361   3.105   5.951 -1.8317  3.9823  0.2028
   42MOL   H32119263   6.279   2.878   6.025  0.1140  0.3235 -1.2012
   42MOL   H32219264   6.201   3.050   6.419  0.6414  3.8259 -0.0542
   42MOL   H32319265   6.272   3.265   6.348 -0.4103  0.5156 -1.4828
   42MOL   O32419266   6.128   2.698   6.472  0.2866 -0.3123 -0.0402
   42MOL   C32519267   5.993   2.648   6.441  0.1496  0.0197  0.5696
   42MOL   C32619268   5.960   2.532   6.535 -0.2710 -0.5331  0.0594
   42MOL   O32719269   5.926   2.410   6.469  0.1230  0.3631 -0.0439
   42MOL   C32819270   5.785   2.397   6.439 -0.0855 -0.0917 -0.7866
   42MOL   O32919271   5.702   2.494   6.438  0.2222  0.5317 -0.6841
   42MOL   C33019272   5.740   2.259   6.426  0.1147  0.6211  0.2322
   42MOL   C33119273   5.608   2.224   6.454  0.2563 -0.3444  0.5466
   42MOL   C33219274   5.558   2.099   6.428 -0.5833  0.0350 -0.6471
   42MOL   C33319275   5.643   1.998   6.382  0.4664  0.2766 -0.2602
   42MOL   C33419276   5.590   1.853   6.365  0.4733  0.1926  0.4383
   42MOL   O33519277   5.489   1.809   6.420 -0.8508 -0.6144 -0.1785
   42MOL   O33619278   5.673   1.770   6.293  0.1862 -0.1313  0.3748
   42MOL   C33719279   5.780   2.029   6.357  0.6551  0.4524 -0.0516
   42MOL   C33819280   5.826   2.161   6.379 -0.7416 -0.5097  0.2344
   42MOL   H33919281   5.920   2.728   6.453  0.5392  0.2457  1.4332
   42MOL   H34019282   5.985   2.620   6.336 -0.6312  0.5244  0.4953
   42MOL   H34119283   5.884   2.559   6.609  1.0002 -2.1534  2.0096
   42MOL   H34219284   6.047   2.511   6.598  0.9332 -0.4387 -1.5423
   42MOL   H34319285   5.539   2.297   6.494 -1.5525 -1.9383  0.3944
   42MOL   H34419286   5.457   2.066   6.453 -0.7048  1.2393  0.5221
   42MOL   H34519287   5.845   1.950   6.324 -1.1210 -1.1257  0.1743
   42MOL   H34619288   5.931   2.183   6.366 -1.0373  0.5628 -0.3310
   42MOL   O34719289   5.636   1.625   6.299 -0.1612  0.1818  0.2167
   42MOL   C34819290   5.754   1.556   6.334  0.0050 -0.2912  0.0600
   42MOL   C34919291   5.773   1.523   6.481  0.4082 -0.3029  0.2033
   42MOL   O35019292   5.803   1.640   6.553 -0.4107  0.0715 -0.8714
   42MOL   C35119293   5.819   1.631   6.696 -0.5970  0.0884  0.0925
   42MOL   O35219294   5.804   1.527   6.763  0.0841  0.1899  0.5088
   42MOL   C35319295   5.828   1.767   6.757  0.2692 -0.4327 -0.4967
   42MOL   C35419296   5.879   1.874   6.682 -1.2376  0.4796  0.0993
   42MOL   C35519297   5.882   2.003   6.734  0.0179  0.2015 -0.0710
   42MOL   C35619298   5.833   2.027   6.866 -0.3035 -0.2810 -0.1711
   42MOL   C35719299   5.841   2.164   6.922 -0.3330 -0.1426 -0.6441
   42MOL   O35819300   5.796   2.189   7.036 -0.3857 -0.2876  0.2988
   42MOL   O35919301   5.896   2.258   6.840 -0.3777  0.0678  0.4020
   42MOL   C36019302   5.776   1.919   6.943 -0.4064  0.5908  0.0217
   42MOL   C36119303   5.775   1.790   6.891  0.5416 -0.3363  0.0524
   42MOL   H36219304   5.740   1.460   6.284  0.5524 -0.1936 -0.2861
   42MOL   H36319305   5.843   1.605   6.296  1.0724 -0.7470  1.9378
   42MOL   H36419306   5.854   1.450   6.483  0.1346 -0.5951  0.8228
   42MOL   H36519307   5.687   1.469   6.520 -1.6166  1.9687 -0.9667
   42MOL   H36619308   5.907   1.858   6.579 -0.2065 -2.4290  0.7727
   42MOL   H36719309   5.927   2.077   6.670  0.9197 -0.9972 -0.8429
   42MOL   H36819310   5.738   1.932   7.044 -1.1947 -1.4391  0.0067
   42MOL   H36919311   5.730   1.706   6.942  2.0323  0.6418  3.0625
   42MOL   O37019312   5.901   2.399   6.905  0.1664  0.0305  0.4436
   42MOL   C37119313   5.770   2.466   6.881 -0.3911 -0.3868 -0.3851
   42MOL   C37219314   5.753   2.610   6.934  0.2373  0.5648  0.4492
   42MOL   O37319315   5.834   2.704   6.850 -0.2789  0.3434 -0.6773
   42MOL   C37419316   5.788   2.754   6.740 -0.0348 -0.7605  0.1621
   42MOL   O37519317   5.681   2.723   6.686 -0.5174  0.4902  0.0082
   42MOL   C37619318   5.864   2.873   6.693  0.6360 -0.0042 -0.9256
   42MOL   C37719319   5.799   2.948   6.594  0.8484  0.3897  0.2630
   42MOL   C37819320   5.857   3.069   6.553 -0.1094  0.5919  0.1239
   42MOL   C37919321   5.974   3.119   6.616  0.0802 -0.1097  0.0773
   42MOL   C38019322   6.027   3.249   6.556 -0.2537 -0.3246  0.1433
   42MOL   O38119323   5.977   3.307   6.462  0.1209 -0.5630 -0.4569
   42MOL   O38219324   6.139   3.293   6.620  0.5390 -0.4662  0.1010
   42MOL   C38319325   6.040   3.042   6.713  0.7119 -0.4497 -0.3678
   42MOL   C38419326   5.980   2.923   6.758  0.1342  0.6748  0.8389
   42MOL   H38519327   5.739   2.460   6.776 -3.5118  1.6202  0.3698
   42MOL   H38619328   5.692   2.406   6.929 -0.4387  1.2281  1.5773
   42MOL   H38719329   5.780   2.623   7.038  0.6413  1.6994  0.2069
   42MOL   H38819330   5.648   2.638   6.931  0.2780  0.6587 -0.1516
   42MOL   H38919331   5.708   2.910   6.550  1.0751  0.8595 -0.6317
   42MOL   H39019332   5.808   3.132   6.481 -1.0702 -0.4194 -0.1261
   42MOL   H39119333   6.127   3.081   6.763 -1.8051  2.5286  1.8502
   42MOL   H39219334   6.019   2.879   6.848 -0.6769 -1.0524  0.3550
   42MOL   O39319335   6.202   3.400   6.551  0.3780 -0.2544  0.1621
   42MOL   C39419336   6.175   3.529   6.604  0.1298  0.4671  0.2625
   42MOL   C39519337   6.289   3.626   6.554  0.0555  0.5625  0.9232
   42MOL   O39619338   6.250   3.749   6.491  0.1438  0.2170  0.0204
   42MOL   C39719339   6.153   3.755   6.393 -0.2866 -0.0684 -0.1556
   42MOL   O39819340   6.087   3.657   6.361  0.6109 -0.3477 -0.2009
   42MOL   C39919341   6.139   3.895   6.331 -0.7827 -0.1809  0.6568
   42MOL   C40019342   6.209   4.004   6.387 -0.1811  0.2208  0.6061
   42MOL   C40119343   6.206   4.127   6.316  0.3773  0.5718  0.2852
   42MOL   C40219344   6.132   4.150   6.192  0.7642 -0.3649  0.0707
   42MOL   C40319345   6.121   4.288   6.137  0.3066 -0.1343 -0.0967
   42MOL   O40419346   6.162   4.386   6.198  0.0437 -0.1507 -0.2477
   42MOL   O40519347   6.050   4.291   6.024 -0.0617 -0.3945  0.4314
   42MOL   C40619348   6.062   4.038   6.137  0.2222  0.2187 -0.3087
   42MOL   C40719349   6.056   3.914   6.216  0.2168 -0.0003  0.5161
   42MOL   H40819350   6.072   3.551   6.575  1.2830  2.0389 -2.8240
   42MOL   H40919351   6.166   3.520   6.712  1.4974  1.4513  0.4763
   42MOL   H41019352   6.344   3.572   6.477  0.0571 -0.0959  1.3853
   42MOL   H41119353   6.358   3.636   6.638  0.1708  1.0473  0.7741
   42MOL   H41219354   6.284   3.995   6.464  2.2689  3.4126 -1.2981
   42MOL   H41319355   6.267   4.208   6.355 -0.7569  2.4967 -1.8297
   42MOL   H41419356   5.989   4.051   6.059  0.3065 -1.1495 -0.6314
   42MOL   H41519357   5.996   3.834   6.174  1.6745 -0.0084 -1.6451
   42MOL   O41619358   6.032   4.430   5.967  0.0133  0.2676  0.1783
   42MOL   C41719359   6.129   4.448   5.859  0.3997  0.6529  0.5461
   42MOL   C41819360   6.095   4.580   5.793  0.6046  0.2787  0.4865
   42MOL   O41919361   6.164   4.689   5.854  0.6731  0.5048  0.8713
   42MOL   C42019362   6.116   4.817   5.847 -0.4401 -0.3058  0.8802
   42MOL   O42119363   6.028   4.848   5.760 -0.2545 -0.0550  0.2982
   42MOL   C42219364   6.192   4.903   5.947  0.2584  0.6713 -0.2682
   42MOL   C42319365   6.221   5.037   5.913 -0.1325 -0.0443  0.1892
   42MOL   C42419366   6.299   5.121   5.999  0.0185 -0.2285 -0.4893
   42MOL   C42519367   6.373   5.059   6.107 -0.2069 -0.3331  0.0233
   42MOL   C42619368   6.481   5.136   6.178  0.5643 -0.1360  0.3801
   42MOL   O42719369   6.532   5.113   6.285  0.4314  0.6095 -0.2805
   42MOL   O42819370   6.515   5.240   6.098  0.1611  0.7989  0.3263
   42MOL   C42919371   6.341   4.929   6.144 -0.0494  0.6586 -0.1223
   42MOL   C43019372   6.258   4.850   6.064 -0.7844 -0.0691  0.1879
   42MOL   H43119373   6.229   4.449   5.903  0.4233 -0.6392  0.5180
   42MOL   H43219374   6.107   4.365   5.793 -0.3332  0.5236  0.9425
   42MOL   H43319375   5.987   4.589   5.783  0.3302 -2.5228  0.5794
   42MOL   H43419376   6.138   4.573   5.693  2.1116  1.7026  1.0109
   42MOL   H43519377   6.199   5.074   5.813  1.0129 -0.1135 -0.0955
   42MOL   H43619378   6.319   5.224   5.972  0.6393 -0.2056  0.0700
   42MOL   H43719379   6.385   4.883   6.231  0.5703 -0.7436 -1.1848
   42MOL   H43819380   6.245   4.746   6.087  0.8961 -0.2150  0.5314
   42MOL   O43919381   6.635   5.322   6.139  0.0528 -0.1937 -0.2947
   42MOL   C44019382   6.754   5.265   6.080  0.5218 -0.2506 -0.2124
   42MOL   C44119383   6.764   5.305   5.935  0.6297 -0.2264 -0.0947
   42MOL   O44219384   6.691   5.216   5.851 -0.2229 -0.2183 -0.5940
   42MOL   C44319385   6.723   5.199   5.715  0.9770 -0.4810 -0.5511
   42MOL   O44419386   6.827   5.242   5.666 -0.5227 -0.1620  0.1045
   42MOL   C44519387   6.631   5.099   5.644 -0.3018 -0.1174 -0.6372
   42MOL   C44619388   6.519   5.041   5.712 -0.3540  0.1578  0.2825
   42MOL   C44719389   6.428   4.958   5.638  0.1029  0.2455 -0.5182
   42MOL   C44819390   6.452   4.928   5.501  0.8445  0.2438 -0.8785
   42MOL   C44919391   6.360   4.834   5.434  0.5093  0.2399 -0.0303
   42MOL   O45019392   6.368   4.811   5.313  0.3164 -0.5965  0.3173
   42MOL   O45119393   6.257   4.791   5.518 -0.5193 -0.0819 -0.2130
   42MOL   C45219394   6.564   4.974   5.439  0.1347 -1.1941  0.1323
   42MOL   C45319395   6.662   5.050   5.513  0.2953 -0.7476 -0.8019
   42MOL   H45419396   6.845   5.293   6.131  0.2038  1.4670 -0.5595
   42MOL   H45519397   6.746   5.156   6.092 -2.4812 -0.2832 -1.9150
   42MOL   H45619398   6.866   5.303   5.895 -0.9481 -0.1852 -4.4030
   42MOL   H45719399   6.720   5.401   5.911 -1.5608 -1.9585 -3.4832
   42MOL   H45819400   6.485   5.076   5.809  0.4771 -1.6801  1.2782
   42MOL   H45919401   6.340   4.932   5.695 -0.4346  0.9688 -1.0122
   42MOL   H46019402   6.588   4.956   5.335  0.2826  0.4955 -0.1509
   42MOL   H46119403   6.758   5.076   5.471  0.1602  0.6805 -0.2543
   42MOL   H46219404   6.182   4.750   5.478  0.0155 -1.8205  0.5170
   43MOL     O119405   4.317   0.570   7.774 -0.0964  0.3694  0.3632
   43MOL     C219406   4.312   0.625   7.644 -0.6108 -0.4659  0.0865
   43MOL     C319407   4.178   0.648   7.598 -0.4044  0.7904 -0.3777
   43MOL     O419408   4.122   0.521   7.559  0.4043 -0.8420 -0.9296
   43MOL     C519409   4.057   0.447   7.644  0.2098 -0.5028  0.5769
   43MOL     O619410   4.027   0.491   7.758  0.4255  0.0486 -0.3923
   43MOL     C719411   4.020   0.321   7.592  0.0046 -0.5727  0.4265
   43MOL     C819412   3.956   0.232   7.678  0.1452 -0.2042  0.2441
   43MOL     C919413   3.920   0.101   7.633  0.7523  0.3053  0.0406
   43MOL    C1019414   3.948   0.063   7.499 -0.1311  0.6469  0.0829
   43MOL    C1119415   3.914   8.201   7.451  0.8937 -0.6350  0.1730
   43MOL    O1219416   3.920   8.162   7.329 -0.0724  0.3055  0.0989
   43MOL    O1319417   3.873   8.116   7.554  0.0132 -0.0172  0.1489
   43MOL    C1419418   4.003   0.159   7.412 -0.6086  0.5190 -0.1648
   43MOL    C1519419   4.039   0.287   7.454 -0.1574 -0.0369 -0.4273
   43MOL    H1619420   4.366   0.719   7.655  1.2486 -1.6857  1.7956
   43MOL    H1719421   4.370   0.566   7.572 -2.6059  0.3718 -2.2448
   43MOL    H1819422   4.184   0.707   7.506  0.8382 -2.6226 -2.6337
   43MOL    H1919423   4.113   0.700   7.668 -0.9366 -1.2874  0.7311
   43MOL    H2019424   3.927   0.262   7.778  0.8090 -1.9258  0.9605
   43MOL    H2119425   3.859   0.041   7.698  3.1444 -2.1269  0.1031
   43MOL    H2219426   4.029   0.128   7.312  1.9807 -1.2932  1.0180
   43MOL    H2319427   4.063   0.364   7.383 -0.6171  1.0441  0.5730
   43MOL    H2419428   4.232   0.561   7.814 -0.7836 -0.7229 -1.2704
   43MOL    O2519429   3.881   7.974   7.511 -0.9777 -0.7491 -0.3045
   43MOL    C2619430   3.752   7.927   7.470 -0.2772 -1.1288 -0.1400
   43MOL    C2719431   3.653   7.910   7.587  0.2203  0.2659  0.1601
   43MOL    O2819432   3.589   8.030   7.619 -0.9679 -0.4587 -0.1528
   43MOL    C2919433   3.492   8.086   7.553  0.4375  0.1233  0.7585
   43MOL    O3019434   3.441   8.039   7.451  0.2051  0.3961  0.0496
   43MOL    C3119435   3.448   8.212   7.609 -0.3752  0.1488 -0.0341
   43MOL    C3219436   3.333   8.271   7.548  0.3683  0.3647 -0.6125
   43MOL    C3319437   3.288   0.121   7.595  0.6142  0.1163 -0.5996
   43MOL    C3419438   3.359   0.191   7.696 -0.2452  0.5339 -0.0655
   43MOL    C3519439   3.323   0.326   7.747  0.2885  0.3291 -0.1383
   43MOL    O3619440   3.404   0.389   7.822 -0.5296  0.5533 -1.1401
   43MOL    O3719441   3.194   0.365   7.706 -0.1605 -0.4376 -0.6487
   43MOL    C3819442   3.471   0.126   7.762 -0.1064  0.1679  0.3696
   43MOL    C3919443   3.509   8.273   7.721  0.5682 -0.4605  0.4357
   43MOL    H4019444   3.710   7.994   7.394 -1.0314 -2.7965 -1.2109
   43MOL    H4119445   3.758   7.828   7.425  1.9239 -1.0509 -0.0345
   43MOL    H4219446   3.713   7.874   7.671 -2.0096 -0.2693  1.5669
   43MOL    H4319447   3.584   7.830   7.562 -0.3216  1.1548 -1.2911
   43MOL    H4419448   3.273   8.234   7.466 -0.8049  1.5328 -0.2916
   43MOL    H4519449   3.193   0.159   7.559 -0.4344 -0.5445  1.4014
   43MOL    H4619450   3.521   0.161   7.850  0.4580  0.6135 -0.1263
   43MOL    H4719451   3.588   8.224   7.776 -0.2877 -0.8153  1.3670
   43MOL    O4819452   3.145   0.503   7.757  0.4095  0.3251  0.7120
   43MOL    C4919453   3.066   0.479   7.870  0.3292  0.8954  0.3649
   43MOL    C5019454   3.042   0.615   7.937  0.5112 -0.0013  0.6051
   43MOL    O5119455   2.983   0.579   8.056  0.9196 -0.3467 -0.1592
   43MOL    C5219456   2.942   0.675   8.140 -0.3388  0.0334 -0.1701
   43MOL    O5319457   2.970   0.793   8.124 -0.6493  0.1266  0.3745
   43MOL    C5419458   2.860   0.617   8.250  0.0603 -0.3097  0.2275
   43MOL    C5519459   2.850   0.476   8.274 -0.5179  0.2932 -0.8470
   43MOL    C5619460   2.763   0.431   0.097  0.3359 -0.2597 -0.9132
   43MOL    C5719461   2.679   0.520   0.170  0.5701 -0.1823  0.6176
   43MOL    C5819462   2.590   0.478   0.285 -0.1380  0.0379 -0.8870
   43MOL    O5919463   2.503   0.549   0.334  0.2024 -0.3553 -0.3834
   43MOL    O6019464   2.620   0.362   0.330 -0.3561 -0.5131  1.0014
   43MOL    C6119465   2.689   0.658   0.140  0.1203 -0.8737  0.6128
   43MOL    C6219466   2.783   0.705   0.049  0.4688 -0.0545  0.0422
   43MOL    H6319467   2.973   0.429   7.842 -0.0015  1.7952 -0.1774
   43MOL    H6419468   3.110   0.413   7.944  0.8615 -0.9304 -1.5392
   43MOL    H6519469   2.965   0.662   7.875  1.1719  0.8768  0.4448
   43MOL    H6619470   3.128   0.681   7.930 -0.4220  1.0167 -1.8683
   43MOL    H6719471   2.915   0.411   8.217  0.6418  1.6250 -1.0712
   43MOL    H6819472   2.759   0.326   0.121 -0.5500 -0.2622 -1.0460
   43MOL    H6919473   2.630   0.727   0.199 -2.4173 -3.0489  0.7303
   43MOL    H7019474   2.790   0.811   0.034 -0.7628  0.3145  1.8261
   43MOL    O7119475   2.567   0.323   0.469 -0.2713 -0.1594 -0.4432
   43MOL    C7219476   2.675   0.299   0.550 -0.4752 -0.3456  0.4052
   43MOL    C7319477   2.766   0.419   0.589 -0.9155 -0.0109 -0.5782
   43MOL    O7419478   2.703   0.482   0.701 -0.2212 -0.2131 -0.1837
   43MOL    C7519479   2.675   0.614   0.694  0.8218 -0.1362 -0.0762
   43MOL    O7619480   2.705   0.690   0.608 -0.1933 -0.1207  0.2692
   43MOL    C7719481   2.593   0.647   0.812 -0.2171  0.6816 -1.0777
   43MOL    C7819482   2.558   0.780   0.841 -0.1839  0.2279 -0.1179
   43MOL    C7919483   2.454   0.812   0.933 -0.4463 -0.0045  0.2288
   43MOL    C8019484   2.391   0.709   1.005  0.3101 -0.2575 -0.1229
   43MOL    C8119485   2.266   0.727   1.081 -0.6091  0.2180 -0.0867
   43MOL    O8219486   2.241   0.643   1.167  0.3586  0.0655 -0.3286
   43MOL    O8319487   2.190   0.834   1.061  0.4537  0.3101 -0.1122
   43MOL    C8419488   2.447   0.580   0.993  0.8024 -0.5756 -0.6208
   43MOL    C8519489   2.543   0.548   0.898  0.0960 -0.5136  0.8713
   43MOL    H8619490   2.636   0.256   0.642 -0.9517  0.0330  0.3811
   43MOL    H8719491   2.727   0.215   0.503 -1.5651 -1.0424  0.4042
   43MOL    H8819492   2.780   0.478   0.498 -2.8484  1.4740  0.0357
   43MOL    H8919493   2.862   0.384   0.627 -0.1923  1.7988 -0.6927
   43MOL    H9019494   2.598   0.862   0.782 -2.5672  0.3886 -1.5995
   43MOL    H9119495   2.416   0.913   0.929  1.2961  0.6783  0.0508
   43MOL    H9219496   2.414   0.501   1.058  0.1290  1.0001  0.9747
   43MOL    H9319497   2.568   0.443   0.897 -0.4594 -0.6570  1.6780
   43MOL    O9419498   2.065   0.834   1.140  0.2925 -0.2312  1.0194
   43MOL    C9519499   1.965   0.795   1.058 -0.4138  0.7196  0.0365
   43MOL    C9619500   1.834   0.812   1.135  0.6539  0.2697  0.3921
   43MOL    O9719501   1.806   0.697   1.216 -0.0040 -0.0641  0.3589
   43MOL    C9819502   1.790   0.712   1.351 -0.2617  0.4946 -0.3203
   43MOL    O9919503   1.769   0.816   1.408  0.0518 -0.3526  0.6554
   43MOL   C10019504   1.789   0.586   1.427 -1.2229  0.0938 -0.1507
   43MOL   C10119505   1.805   0.463   1.364 -1.0471 -0.4122 -0.4811
   43MOL   C10219506   1.799   0.340   1.438 -0.3189 -0.4014  0.7349
   43MOL   C10319507   1.787   0.347   1.580 -0.6154  0.5266 -0.0049
   43MOL   C10419508   1.756   0.228   1.661  0.1893 -0.0222  0.6455
   43MOL   O10519509   1.691   0.237   1.766 -0.2898  0.3984  0.2583
   43MOL   O10619510   1.797   0.109   1.604 -0.2876  0.0107 -0.0538
   43MOL   C10719511   1.761   0.466   1.638 -0.2890 -0.7797  0.6349
   43MOL   C10819512   1.762   0.589   1.563 -0.0645 -0.2844  0.2683
   43MOL   H10919513   1.964   0.865   0.974 -1.3066 -0.8260 -1.2847
   43MOL   H11019514   1.990   0.697   1.019  0.8321  0.6463  1.0091
   43MOL   H11119515   1.761   0.825   1.055  0.8915 -0.2704  0.0826
   43MOL   H11219516   1.831   0.907   1.187 -1.5902  0.4604 -0.0330
   43MOL   H11319517   1.826   0.463   1.258  0.7540 -0.7496 -0.1464
   43MOL   H11419518   1.808   0.245   1.388  0.5291  0.3316 -0.5563
   43MOL   H11519519   1.727   0.476   1.740  0.2833  0.8183  0.6932
   43MOL   H11619520   1.735   0.684   1.607  0.8577  0.5458 -0.9499
   43MOL   O11719521   1.791   8.274   1.701  1.2098  0.2125  0.4934
   43MOL   C11819522   1.664   8.207   1.694 -0.3939 -0.4559 -0.0942
   43MOL   C11919523   1.640   8.120   1.816 -0.4959 -0.2806 -0.6042
   43MOL   O12019524   1.505   8.094   1.841 -0.0796  0.3268  0.2632
   43MOL   C12119525   1.470   7.992   1.913  0.9039 -0.2969  0.3870
   43MOL   O12219526   1.555   7.910   1.955 -0.1024  0.0542 -0.4799
   43MOL   C12319527   1.324   7.975   1.922  0.0333  0.4856 -0.1617
   43MOL   C12419528   1.231   8.085   1.918  0.6304 -0.1818  0.8198
   43MOL   C12519529   1.094   8.061   1.929 -1.2216 -0.1874  0.2137
   43MOL   C12619530   1.046   7.926   1.938 -0.4812 -0.1443 -0.0951
   43MOL   C12719531   0.903   7.890   1.924 -0.9210 -0.0659 -0.0561
   43MOL   O12819532   0.857   7.778   1.911 -0.3849  0.5060  0.1936
   43MOL   O12919533   0.832   8.003   1.927  0.2170  0.5648  0.0114
   43MOL   C13019534   1.135   7.817   1.958  0.6974  0.4851 -0.2852
   43MOL   C13119535   1.275   7.841   1.941  0.3157  0.3636 -0.2834
   43MOL   H13219536   1.588   0.009   1.699 -0.8415 -0.6307 -3.0047
   43MOL   H13319537   1.654   8.154   1.599 -0.3119 -0.6682  0.0134
   43MOL   H13419538   1.668   8.173   1.908  0.2575  1.1988 -1.6710
   43MOL   H13519539   1.706   8.033   1.822 -1.5557 -0.9721  1.8967
   43MOL   H13619540   1.263   8.188   1.920  0.7815 -0.1982 -0.5803
   43MOL   H13719541   1.032   8.149   1.923  0.7774  1.1575 -1.2647
   43MOL   H13819542   1.098   7.717   1.977 -1.0829  1.0810 -0.5785
   43MOL   H13919543   1.346   7.760   1.935 -0.4458 -0.2968 -0.6199
   43MOL   O14019544   0.687   7.986   1.893 -0.2067 -0.0809  0.6820
   43MOL   C14119545   0.615   7.963   2.011  0.0197 -0.1765  0.3510
   43MOL   C14219546   0.479   7.906   1.976 -0.0140  0.1444  0.3589
   43MOL   O14319547   0.503   7.785   1.904 -0.3608 -0.1996  0.2999
   43MOL   C14419548   0.454   7.673   1.952 -0.5927  0.5290 -0.5481
   43MOL   O14519549   0.400   7.664   2.065 -0.1416 -0.3067  0.3815
   43MOL   C14619550   0.489   7.552   1.871  0.4218  0.2306  0.4394
   43MOL   C14719551   0.593   7.552   1.774  0.3484  0.3711  0.2580
   43MOL   C14819552   0.620   7.437   1.699  0.0651 -0.3494 -0.0541
   43MOL   C14919553   0.554   7.313   1.716  0.1892  0.0939 -0.4623
   43MOL   C15019554   0.584   7.192   1.637 -0.6088 -0.9051 -0.5125
   43MOL   O15119555   0.574   7.076   1.687  0.3211 -1.2783 -0.6108
   43MOL   O15219556   0.641   7.216   1.520  0.0217 -0.5589 -0.8329
   43MOL   C15319557   0.451   7.313   1.814 -0.9112 -0.1126  0.4053
   43MOL   C15419558   0.421   7.425   1.896 -0.0230  0.1749  0.4254
   43MOL   H15519559   0.665   7.886   2.069  1.2303  0.3165 -0.0103
   43MOL   H15619560   0.612   8.056   2.068 -0.8072  0.2908 -0.4488
   43MOL   H15719561   0.425   7.975   1.912 -1.4527 -2.7001 -1.6243
   43MOL   H15819562   0.430   7.900   2.073 -1.1610  2.6358 -0.0464
   43MOL   H15919563   0.655   7.638   1.757 -0.8722  0.7353 -2.5811
   43MOL   H16019564   0.702   7.436   1.628 -0.2523  0.5776 -0.4440
   43MOL   H16119565   0.405   7.220   1.844  0.4108 -0.2897  1.9459
   43MOL   H16219566   0.353   7.420   1.981  0.5874 -2.3765  0.8111
   43MOL   O16319567   0.699   7.096   1.456 -0.1304  0.2172  0.4259
   43MOL   C16419568   0.600   7.031   1.377  0.3143  0.0019 -0.2579
   43MOL   C16519569   0.689   6.940   1.298 -0.4933  1.0380 -0.6233
   43MOL   O16619570   0.772   6.859   1.385  0.8537  0.8490 -0.4998
   43MOL   C16719571   0.725   6.743   1.430  0.8025  0.0567  0.4911
   43MOL   O16819572   0.630   6.681   1.385  0.8856 -0.1625 -0.1365
   43MOL   C16919573   0.799   6.688   1.546 -0.3723  0.0717  0.6095
   43MOL   C17019574   0.757   6.563   1.605  0.8483  0.1682  0.7273
   43MOL   C17119575   0.836   6.509   1.712  0.5601 -0.0116  0.3005
   43MOL   C17219576   0.945   6.581   1.760 -0.4101 -0.0810 -0.0730
   43MOL   C17319577   1.027   6.507   1.868  0.3065 -1.1769 -0.3306
   43MOL   O17419578   1.004   6.389   1.898 -0.7589 -0.7201 -0.4799
   43MOL   O17519579   1.113   6.583   1.929  0.1491 -0.1323  0.3078
   43MOL   C17619580   0.994   6.699   1.697  0.4746  0.3044 -0.6762
   43MOL   C17719581   0.905   6.759   1.606 -0.7541  0.1609  0.2371
   43MOL   H17819582   0.523   6.988   1.441  3.0679 -0.8714  2.5669
   43MOL   H17919583   0.544   7.092   1.306 -0.6701 -0.6595 -0.0560
   43MOL   H18019584   0.751   7.003   1.234 -0.3779 -0.0678 -1.6406
   43MOL   H18119585   0.630   6.879   1.229 -1.9422  1.1465  0.4944
   43MOL   H18219586   0.661   6.516   1.587  0.9897  0.6388 -1.3359
   43MOL   H18319587   0.811   6.416   1.761 -3.2722  0.2445 -0.9721
   43MOL   H18419588   1.078   6.751   1.743 -0.4757  1.1466  0.1370
   43MOL   H18519589   0.935   6.861   1.589  2.2577 -0.7153 -0.1020
   43MOL   O18619590   1.138   6.528   2.071 -0.4517  0.0525 -0.5012
   43MOL   C18719591   1.270   6.474   2.072 -0.5380 -0.3459  0.1657
   43MOL   C18819592   1.361   6.586   2.034 -0.0910 -0.2395  0.2486
   43MOL   O18919593   1.388   6.586   1.894 -0.2172  0.3832  0.3027
   43MOL   C19019594   1.504   6.532   1.843 -0.5884 -0.4227 -0.0305
   43MOL   O19119595   1.585   6.476   1.916  0.0651  0.8417 -0.0570
   43MOL   C19219596   1.534   6.552   1.699 -0.1265  0.2836 -0.7206
   43MOL   C19319597   1.605   6.456   1.626 -0.1448  0.5796 -0.6002
   43MOL   C19419598   1.609   6.461   1.481 -0.5007 -0.2364 -0.3384
   43MOL   C19519599   1.547   6.567   1.416 -0.6120 -0.5990  1.2731
   43MOL   C19619600   1.578   6.584   1.269  0.3220 -0.0182 -0.3595
   43MOL   O19719601   1.646   6.502   1.205 -0.0535  0.2366 -0.7099
   43MOL   O19819602   1.547   6.711   1.224 -0.2760  0.8735 -0.0577
   43MOL   C19919603   1.474   6.667   1.485  0.0227 -0.5306  0.5734
   43MOL   C20019604   1.476   6.655   1.626 -0.0452  0.0701 -0.2271
   43MOL   H20119605   1.294   6.441   2.173 -0.7222  1.1184  0.6829
   43MOL   H20219606   1.274   6.392   1.999 -0.2226 -0.8382  0.7308
   43MOL   H20319607   1.450   6.590   2.097 -0.7744 -0.5975  1.2550
   43MOL   H20419608   1.300   6.667   2.075 -1.1533 -1.3134  0.8054
   43MOL   H20519609   1.660   6.382   1.683 -0.1616 -1.4402 -3.1469
   43MOL   H20619610   1.664   6.386   1.427  1.1894  1.0987 -0.5059
   43MOL   H20719611   1.437   6.757   1.439  0.8384  0.6387  2.1706
   43MOL   H20819612   1.433   6.732   1.688  1.6147  0.6171  0.2693
   43MOL   O20919613   1.622   6.753   1.105 -0.2209 -0.1153 -0.3988
   43MOL   C21019614   1.539   6.730   0.995  0.5504  0.8956 -0.5244
   43MOL   C21119615   1.611   6.784   0.868  0.0036  0.0656  0.1424
   43MOL   O21219616   1.568   6.733   0.749  0.2520  0.1848 -0.1028
   43MOL   C21319617   1.619   6.782   0.635 -0.4597 -0.6271  0.0703
   43MOL   O21419618   1.700   6.875   0.630 -0.3012  0.5223  0.3064
   43MOL   C21519619   1.575   6.705   0.519 -0.4952 -0.3326  0.6683
   43MOL   C21619620   1.614   6.746   0.390  0.0993  0.1406  0.5478
   43MOL   C21719621   1.578   6.683   0.272 -0.1566  0.1325 -0.1472
   43MOL   C21819622   1.490   6.572   0.283 -0.1671  0.1475 -0.0840
   43MOL   C21919623   1.450   6.497   0.161  0.2385 -0.0772  0.6276
   43MOL   O22019624   1.385   6.399   0.169 -0.8128  0.0295  0.2409
   43MOL   O22119625   1.503   6.552   0.044 -0.3391  1.1453 -0.4148
   43MOL   C22219626   1.452   6.526   0.408  1.0741 -0.6217 -0.0524
   43MOL   C22319627   1.497   6.588   0.529  0.3698 -0.0120  0.5115
   43MOL   H22419628   1.521   6.623   0.994 -0.2695  1.0297 -1.4920
   43MOL   H22519629   1.440   6.775   1.001  0.9283  2.1501 -3.0417
   43MOL   H22619630   1.719   6.776   0.883 -0.0177  2.8791  2.1370
   43MOL   H22719631   1.590   6.891   0.866 -1.2109 -0.1474  0.6451
   43MOL   H22819632   1.681   6.831   0.391  0.5730 -0.2347  0.8519
   43MOL   H22919633   1.619   6.717   0.178 -0.2797 -2.3352 -1.1464
   43MOL   H23019634   1.386   6.441   0.413  1.6558 -0.9919  1.8780
   43MOL   H23119635   1.470   6.547   0.625  0.9380  0.7559  1.0034
   43MOL   O23219636   1.496   6.460   8.208 -0.7480  0.0696  0.5614
   43MOL   C23319637   1.631   6.413   8.180 -0.0628 -0.6908 -0.4932
   43MOL   C23419638   1.627   6.376   8.032 -0.3116 -0.0310  0.1326
   43MOL   O23519639   1.588   6.239   8.028 -0.4839 -0.3579  0.3280
   43MOL   C23619640   1.633   6.160   7.930 -0.0660  0.0374  0.8949
   43MOL   O23719641   1.701   6.198   7.839 -0.1114  0.4774  0.1746
   43MOL   C23819642   1.587   6.019   7.936  0.6274 -0.2717  0.2678
   43MOL   C23919643   1.635   5.923   7.839 -0.1536 -0.0169 -0.0280
   43MOL   C24019644   1.603   5.786   7.851  0.1170  0.2368 -0.0593
   43MOL   C24119645   1.517   5.745   7.957 -0.3348  0.4060  0.0396
   43MOL   C24219646   1.480   5.599   7.967  0.0058 -0.4146 -0.0275
   43MOL   O24319647   1.426   5.556   8.069 -0.5334 -0.2630 -0.7040
   43MOL   O24419648   1.519   5.522   7.863 -0.8808 -0.6627 -0.0100
   43MOL   C24519649   1.470   5.843   8.051 -1.0060  0.0515  0.0148
   43MOL   C24619650   1.507   5.977   8.041 -0.3630  0.2462  0.3322
   43MOL   H24719651   1.704   6.493   8.190 -0.2694 -0.6834  1.2522
   43MOL   H24819652   1.671   6.337   8.248 -1.7188 -0.6106  0.6263
   43MOL   H24919653   1.732   6.382   8.000 -0.8386  1.5742 -1.3803
   43MOL   H25019654   1.565   6.441   7.970 -1.7397 -0.3563  1.2128
   43MOL   H25119655   1.689   5.961   7.754  1.8657  1.0907  1.7155
   43MOL   H25219656   1.630   5.717   7.773  1.2550  0.8123 -0.1914
   43MOL   H25319657   1.408   5.820   8.136 -0.3309  2.7332  1.3009
   43MOL   H25419658   1.467   6.058   8.101 -0.1872  0.5546  0.0355
   43MOL   O25519659   1.482   5.375   7.879 -0.3768  0.2062 -0.5009
   43MOL   C25619660   1.346   5.352   7.830  0.0045 -0.2728  0.1943
   43MOL   C25719661   1.327   5.391   7.684  0.4275  0.1925 -0.0942
   43MOL   O25819662   1.303   5.529   7.675  0.2070  0.0404  0.0066
   43MOL   C25919663   1.311   5.592   7.557 -0.1312 -0.6729  0.4201
   43MOL   O26019664   1.325   5.536   7.450 -0.3219 -0.3257 -0.2832
   43MOL   C26119665   1.308   5.745   7.572  0.1652  0.2854 -0.6097
   43MOL   C26219666   1.297   5.815   7.694 -0.1861  0.1308 -0.2809
   43MOL   C26319667   1.322   5.950   7.703  0.4856 -0.5255 -0.2948
   43MOL   C26419668   1.347   6.020   7.584  0.5936 -0.1092 -0.1715
   43MOL   C26519669   1.368   6.167   7.595 -0.2037  0.0598  0.3189
   43MOL   O26619670   1.426   6.230   7.508 -1.0268 -0.2533  0.0690
   43MOL   O26719671   1.315   6.223   7.711 -0.1637  0.1435 -0.2191
   43MOL   C26819672   1.356   5.950   7.458  0.6421 -0.3178  0.2651
   43MOL   C26919673   1.331   5.811   7.453 -0.4938 -0.2634 -0.0495
   43MOL   H27019674   1.342   5.244   7.844  2.3200 -0.1954  1.8938
   43MOL   H27119675   1.281   5.396   7.906 -0.6089  1.1819 -1.1534
   43MOL   H27219676   1.239   5.355   7.629 -1.0916  2.1121  1.0237
   43MOL   H27319677   1.411   5.365   7.619 -0.3636  0.7311 -1.3520
   43MOL   H27419678   1.267   5.762   7.783  1.0822  1.8285  1.1802
   43MOL   H27519679   1.321   5.995   7.802  1.4500 -0.4248 -0.3298
   43MOL   H27619680   1.379   6.005   7.368 -0.7235 -0.3986 -0.1396
   43MOL   H27719681   1.322   5.762   7.358  1.0986  0.6677 -0.7064
   43MOL   O27819682   1.292   6.370   7.682  0.3946  0.3872  0.1376
   43MOL   C27919683   1.378   6.436   7.773  0.1998  0.6619 -0.8368
   43MOL   C28019684   1.380   6.590   7.734  0.3136  0.5859  0.0950
   43MOL   O28119685   1.477   6.630   7.641 -0.2975  0.4645  0.4145
   43MOL   C28219686   1.610   6.631   7.667  0.0331  0.3130  0.2223
   43MOL   O28319687   1.664   6.594   7.771  0.3547 -0.5475 -0.4727
   43MOL   C28419688   1.683   6.688   7.551  0.1185  0.1683  0.3881
   43MOL   C28519689   1.625   6.755   7.442  0.7005 -0.0850  0.0581
   43MOL   C28619690   1.700   6.815   7.340  0.3350  0.1928  0.0661
   43MOL   C28719691   1.839   6.809   7.349 -0.3713  0.0693  0.0831
   43MOL   C28819692   1.929   6.890   7.260  0.4080  0.5627  0.1187
   43MOL   O28919693   2.038   6.941   7.301  0.0390 -0.1401  0.2832
   43MOL   O29019694   1.885   6.905   7.130 -0.1903 -0.7950  0.2769
   43MOL   C29119695   1.898   6.737   7.450 -0.6480  0.0935 -0.6482
   43MOL   C29219696   1.825   6.687   7.559  0.2886  0.1662 -0.3108
   43MOL   H29319697   1.340   6.425   7.874  0.7841 -1.3990 -0.8283
   43MOL   H29419698   1.480   6.397   7.778 -0.1148 -0.4106 -2.3180
   43MOL   H29519699   1.396   6.652   7.822  3.0708 -0.1469  0.1278
   43MOL   H29619700   1.282   6.611   7.690  0.8627 -0.3504 -1.6231
   43MOL   H29719701   1.518   6.771   7.434  0.4605 -0.5928  1.9815
   43MOL   H29819702   1.643   6.867   7.264 -2.6287 -3.5816 -0.4756
   43MOL   H29919703   2.006   6.744   7.454 -0.6459  1.0450 -2.1779
   43MOL   H30019704   1.874   6.641   7.643  0.3153  0.3454 -0.2284
   43MOL   O30119705   1.935   7.034   7.073 -0.0108 -0.3065 -0.2085
   43MOL   C30219706   1.848   7.147   7.083 -0.0412 -0.2440 -0.4194
   43MOL   C30319707   1.930   7.271   7.050  0.4363 -0.1190  0.3440
   43MOL   O30419708   1.980   7.263   6.916  0.0141  0.2766 -0.3848
   43MOL   C30519709   1.910   7.300   6.814  0.0702 -0.2998  0.2039
   43MOL   O30619710   1.797   7.348   6.821 -0.8719 -0.0429 -0.3619
   43MOL   C30719711   1.986   7.266   6.693  0.7473  0.6898  0.5281
   43MOL   C30819712   2.106   7.184   6.690  0.3337 -0.3717 -0.1299
   43MOL   C30919713   2.177   7.162   6.569 -0.1649  0.0890 -0.4239
   43MOL   C31019714   2.132   7.218   6.449  0.5739  0.1895  0.0655
   43MOL   C31119715   2.202   7.199   6.330 -0.4372 -0.2634 -0.1330
   43MOL   O31219716   2.322   7.162   6.320  0.1342 -0.3284 -0.3662
   43MOL   O31319717   2.130   7.235   6.226  0.1102 -0.1235  0.9339
   43MOL   C31419718   2.010   7.290   6.448  0.0492  0.8565  0.1363
   43MOL   C31519719   1.941   7.323   6.567 -0.2491 -0.4176  0.4189
   43MOL   H31619720   1.751   7.130   7.037 -0.6150 -3.6203  1.8738
   43MOL   H31719721   1.823   7.147   7.189  1.9508  1.9676  0.0803
   43MOL   H31819722   2.021   7.275   7.111  1.7190 -2.0629 -1.3690
   43MOL   H31919723   1.868   7.359   7.070 -0.3282 -1.0651  2.2934
   43MOL   H32019724   2.154   7.149   6.780  0.3929 -0.5974 -0.2476
   43MOL   H32119725   2.263   7.097   6.574 -0.2201  0.0900  0.5994
   43MOL   H32219726   1.975   7.324   6.352 -1.3960  1.3956  0.8317
   43MOL   H32319727   1.852   7.382   6.553 -0.2600 -0.6592 -0.5490
   43MOL   O32419728   2.208   7.212   6.093 -0.1591  0.2778  0.4062
   43MOL   C32519729   2.166   7.088   6.039 -0.3368  0.2665  0.0120
   43MOL   C32619730   2.042   7.098   5.956  0.1673 -0.2076 -0.0222
   43MOL   O32719731   1.928   7.127   6.043  0.1012 -0.1469 -0.0386
   43MOL   C32819732   1.835   7.215   6.005 -0.6409  0.3569  0.0707
   43MOL   O32919733   1.832   7.272   5.897  0.4551  0.1028  0.4237
   43MOL   C33019734   1.732   7.235   6.108 -0.2541  0.4406  0.0116
   43MOL   C33119735   1.629   7.326   6.075 -0.5981  0.1080  0.1595
   43MOL   C33219736   1.548   7.369   6.184  0.1671 -0.2277  0.0871
   43MOL   C33319737   1.567   7.326   6.318 -0.0196  0.0972  0.2408
   43MOL   C33419738   1.480   7.385   6.417 -0.7955  0.1551 -0.0859
   43MOL   O33519739   1.371   7.429   6.388  0.3095  0.4604 -0.6929
   43MOL   O33619740   1.516   7.374   6.546  0.2218 -0.0997 -0.4272
   43MOL   C33719741   1.667   7.231   6.350 -0.2536 -0.0349  0.3794
   43MOL   C33819742   1.743   7.183   6.242 -0.7733  0.9159 -0.1786
   43MOL   H33919743   2.250   7.051   5.981  0.2354 -1.0982  1.6687
   43MOL   H34019744   2.164   7.010   6.115 -0.9270  3.5329  3.5414
   43MOL   H34119745   2.031   6.998   5.916 -0.5836 -0.3513  0.5387
   43MOL   H34219746   2.040   7.160   5.867 -2.4435  0.5065  0.4899
   43MOL   H34319747   1.604   7.378   5.984  1.7676  0.6233 -0.2223
   43MOL   H34419748   1.467   7.433   6.153 -0.8881 -1.4477  0.3008
   43MOL   H34519749   1.694   7.199   6.450 -1.8072 -0.9541  0.5332
   43MOL   H34619750   1.822   7.112   6.260 -2.4326 -0.7320  0.7180
   43MOL   O34719751   1.443   7.457   6.638  0.0010  0.4030  0.2547
   43MOL   C34819752   1.376   7.374   6.728  0.5336 -0.6268 -0.3132
   43MOL   C34919753   1.284   7.453   6.825 -0.4241 -0.1987 -0.2099
   43MOL   O35019754   1.176   7.381   6.864  0.0523  0.3089 -0.2745
   43MOL   C35119755   1.072   7.438   6.937  0.4468  0.5628  0.2150
   43MOL   O35219756   1.074   7.557   6.976 -0.3350 -0.6051  0.2607
   43MOL   C35319757   0.956   7.337   6.946 -0.2425  0.0620  0.7130
   43MOL   C35419758   0.962   7.220   6.861  0.7608 -0.0471  0.3136
   43MOL   C35519759   0.862   7.126   6.866  0.6927  0.2869  0.4925
   43MOL   C35619760   0.772   7.132   6.978 -0.0709  0.2878  0.2836
   43MOL   C35719761   0.687   7.016   7.010 -0.5517 -0.0996  0.0037
   43MOL   O35819762   0.595   7.017   7.092 -0.0488  0.4269 -0.2755
   43MOL   O35919763   0.726   6.914   6.941  0.0991 -0.1764 -0.4450
   43MOL   C36019764   0.770   7.246   7.064 -0.3843  0.7364  0.2098
   43MOL   C36119765   0.854   7.354   7.037  0.0278  0.8129  0.4061
   43MOL   H36219766   1.333   7.287   6.678  0.0091 -0.2710 -0.4887
   43MOL   H36319767   1.454   7.321   6.782 -0.7786 -0.4833  1.7841
   43MOL   H36419768   1.237   7.533   6.767  0.1144 -0.0055 -0.3778
   43MOL   H36519769   1.346   7.495   6.903 -1.7271  1.7190 -0.1575
   43MOL   H36619770   1.038   7.208   6.786 -0.7771  0.7111 -1.4206
   43MOL   H36719771   0.859   7.035   6.807  0.4831 -0.5951  1.8623
   43MOL   H36819772   0.707   7.242   7.152 -0.7023  0.6805 -0.0169
   43MOL   H36919773   0.850   7.444   7.097  0.9263 -0.6550  2.7683
   43MOL   O37019774   0.691   6.787   7.002 -0.0881  0.1108  0.3921
   43MOL   C37119775   0.592   6.725   6.926  0.3945 -0.2021  0.6655
   43MOL   C37219776   0.551   6.600   7.002  0.5009 -1.0372  0.5233
   43MOL   O37319777   0.667   6.517   7.001 -0.3643  0.0545 -0.3204
   43MOL   C37419778   0.679   6.408   6.934  0.0383 -1.0263  0.1104
   43MOL   O37519779   0.596   6.381   6.849 -0.0806 -0.2371  0.5509
   43MOL   C37619780   0.807   6.339   6.956 -0.3104 -0.0411 -0.0976
   43MOL   C37719781   0.921   6.398   7.025 -0.2680 -0.5907  0.7541
   43MOL   C37819782   1.037   6.323   7.045 -0.2074 -0.5595 -0.2959
   43MOL   C37919783   1.043   6.189   7.000 -0.0879 -0.7080 -0.2982
   43MOL   C38019784   1.163   6.109   7.033 -0.2489 -0.5059 -0.1124
   43MOL   O38119785   1.258   6.156   7.090  0.2231 -0.1997  0.3096
   43MOL   O38219786   1.158   5.978   6.989 -0.1877  0.3354  0.5532
   43MOL   C38319787   0.933   6.127   6.934  0.0296  0.1842 -0.1548
   43MOL   C38419788   0.817   6.204   6.915 -0.6845 -0.7399 -0.3028
   43MOL   H38519789   0.509   6.794   6.907  2.4846  1.3634 -3.2470
   43MOL   H38619790   0.612   6.703   6.822  0.9021 -1.0790  0.9490
   43MOL   H38719791   0.460   6.556   6.961  0.6872 -1.0843  0.1525
   43MOL   H38819792   0.529   6.629   7.104  0.9705  0.5541  0.1808
   43MOL   H38919793   0.916   6.499   7.061  3.4012  0.2356 -0.8314
   43MOL   H39019794   1.111   6.357   7.116 -1.7913 -0.9609  1.6324
   43MOL   H39119795   0.940   6.027   6.894 -1.3122 -0.1483  0.4248
   43MOL   H39219796   0.736   6.150   6.867 -1.6451 -1.5140  2.0824
   43MOL   O39319797   1.265   5.879   7.040  0.1541 -0.3685 -0.0774
   43MOL   C39419798   1.342   5.850   6.929 -0.3142  0.8154 -0.3079
   43MOL   C39519799   1.402   5.711   6.939  0.7814 -1.0137  0.1495
   43MOL   O39619800   1.484   5.686   6.822 -0.4830 -0.0240  0.5128
   43MOL   C39719801   1.433   5.640   6.702 -0.0569  0.2714 -0.2421
   43MOL   O39819802   1.320   5.593   6.686 -0.3238 -0.4169  0.5762
   43MOL   C39919803   1.537   5.645   6.594 -0.2245  0.3364  0.4187
   43MOL   C40019804   1.671   5.660   6.625  0.1518 -0.6339  0.3479
   43MOL   C40119805   1.768   5.663   6.525  0.2843 -0.2063  0.2593
   43MOL   C40219806   1.734   5.659   6.385 -0.2452 -0.8729  0.4244
   43MOL   C40319807   1.836   5.659   6.273  0.3106 -0.6926  0.0160
   43MOL   O40419808   1.956   5.670   6.291  0.8355  0.3234 -0.2950
   43MOL   O40519809   1.786   5.643   6.150 -0.3420 -0.3065  0.0653
   43MOL   C40619810   1.594   5.655   6.354  0.9457  0.0465 -0.4200
   43MOL   C40719811   1.500   5.643   6.460 -0.2148  0.3415  0.7746
   43MOL   H40819812   1.285   5.854   6.836  0.9047 -2.1285 -1.2090
   43MOL   H40919813   1.422   5.923   6.922 -1.1777  1.6481 -1.6765
   43MOL   H41019814   1.319   5.641   6.955 -0.8586  1.0837  1.1015
   43MOL   H41119815   1.470   5.705   7.024  1.4565  0.7116 -0.2510
   43MOL   H41219816   1.712   5.676   6.723  3.1532 -1.0108 -0.7750
   43MOL   H41319817   1.873   5.674   6.550  0.3241  0.5010 -0.1750
   43MOL   H41419818   1.560   5.652   6.252  1.4857  2.5599 -0.6944
   43MOL   H41519819   1.396   5.627   6.438 -0.3939  2.2696  0.1387
   43MOL   O41619820   1.881   5.614   6.040 -0.3066  0.5163  0.4389
   43MOL   C41719821   1.911   5.734   5.962 -0.4577 -0.0249 -0.0107
   43MOL   C41819822   2.048   5.718   5.893 -0.1920 -0.2780 -0.4918
   43MOL   O41919823   2.146   5.679   5.979 -0.2038 -0.1809 -0.1765
   43MOL   C42019824   2.212   5.762   6.060 -0.1400 -0.0044 -0.1946
   43MOL   O42119825   2.203   5.882   6.045  0.3885  0.5866 -0.1266
   43MOL   C42219826   2.306   5.704   6.156 -0.0516 -0.1666  0.1311
   43MOL   C42319827   2.396   5.780   6.232  0.5326  0.2735 -0.4832
   43MOL   C42419828   2.497   5.716   6.308 -0.6162 -0.1145  0.0573
   43MOL   C42519829   2.494   5.578   6.327 -0.0836 -0.7610  0.2162
   43MOL   C42619830   2.606   5.520   6.423 -0.0320 -0.6680 -0.0735
   43MOL   O42719831   2.701   5.578   6.479 -0.1059  0.5480  0.3833
   43MOL   O42819832   2.585   5.390   6.452 -0.1757 -0.3120  0.1326
   43MOL   C42919833   2.407   5.499   6.254 -0.4258 -0.2395 -0.6078
   43MOL   C43019834   2.307   5.563   6.177  0.9308  0.1914  0.4463
   43MOL   H43119835   1.829   5.747   5.892 -0.5302  2.5032  0.4941
   43MOL   H43219836   1.916   5.820   6.029  0.7533 -0.7309  0.8334
   43MOL   H43319837   2.072   5.817   5.853 -1.7437  0.0306 -0.6604
   43MOL   H43419838   2.029   5.637   5.823 -0.9181 -0.3423 -0.2158
   43MOL   H43519839   2.401   5.888   6.224 -0.8791  0.4353  0.5618
   43MOL   H43619840   2.572   5.774   6.360 -1.0659 -0.7274  1.4131
   43MOL   H43719841   2.401   5.394   6.276  1.0963 -0.5725 -1.6776
   43MOL   H43819842   2.241   5.501   6.118  2.4246 -0.2686 -0.7792
   43MOL   O43919843   2.648   5.338   6.580  0.0774 -0.1197  0.2416
   43MOL   C44019844   2.545   5.319   6.669 -0.6827  0.1645  0.3475
   43MOL   C44119845   2.588   5.234   6.794  0.3574 -0.5258 -0.5368
   43MOL   O44219846   2.470   5.238   6.878 -0.5029 -0.7186 -0.0847
   43MOL   C44319847   2.420   5.127   6.935 -0.3899 -0.5637 -0.1453
   43MOL   O44419848   2.470   5.018   6.918 -0.2758  0.0265  0.2249
   43MOL   C44519849   2.304   5.146   7.029  0.3397 -0.2649 -0.4288
   43MOL   C44619850   2.242   5.028   7.080 -0.3311 -0.1795 -0.6008
   43MOL   C44719851   2.140   5.038   7.175  0.4814  0.1463  0.2544
   43MOL   C44819852   2.094   5.165   7.217  0.0638  0.7319  0.4204
   43MOL   C44919853   1.984   5.175   7.321 -0.0698  0.4573 -0.2118
   43MOL   O45019854   1.980   5.102   7.424  0.5576  0.4276  0.5244
   43MOL   O45119855   1.912   5.287   7.312 -0.4404  0.0108  0.5430
   43MOL   C45219856   2.157   5.282   7.164 -0.3978 -0.6304 -0.2876
   43MOL   C45319857   2.256   5.273   7.066 -0.3538 -0.3222  0.3281
   43MOL   H45419858   2.509   5.416   6.703  2.1364  1.7837 -1.1106
   43MOL   H45519859   2.467   5.263   6.618 -0.8481  0.8527 -0.1678
   43MOL   H45619860   2.676   5.274   6.845  0.1169  1.0808 -1.3419
   43MOL   H45719861   2.618   5.140   6.748  0.1185 -0.6819 -0.3699
   43MOL   H45819862   2.279   4.931   7.051 -0.5389 -0.6747  0.7595
   43MOL   H45919863   2.093   4.948   7.213  0.1356  0.2307  0.0288
   43MOL   H46019864   2.113   5.377   7.189 -3.9931 -2.2217 -0.1069
   43MOL   H46119865   2.301   5.360   7.021  1.0891 -1.5175 -0.5767
   43MOL   H46219866   1.901   5.313   7.222 -0.8172 -2.1602 -0.0766
   44MOL     O119867   5.553   0.691   5.725  0.2996  0.0479 -0.3347
   44MOL     C219868   5.605   0.612   5.821  0.3404 -0.0728 -0.1028
   44MOL     C319869   5.751   0.641   5.829 -0.7078 -0.2560 -0.5378
   44MOL     O419870   5.779   0.758   5.901 -0.4547 -0.7797  0.2039
   44MOL     C519871   5.896   0.814   5.882 -0.6811  0.4797  0.0710
   44MOL     O619872   5.970   0.788   5.788 -0.3474  0.0384 -0.8586
   44MOL     C719873   5.926   0.919   5.985  0.0354 -0.3157  0.0772
   44MOL     C819874   5.872   0.909   6.116 -0.1811 -0.2633  0.3134
   44MOL     C919875   5.899   1.013   6.208  0.0264 -0.2939  0.0591
   44MOL    C1019876   5.969   1.131   6.174  0.8484 -0.2052 -0.6233
   44MOL    C1119877   5.991   1.231   6.278  0.5175 -0.2795 -0.6738
   44MOL    O1219878   5.924   1.240   6.376  0.1940  0.0863 -0.0730
   44MOL    O1319879   6.096   1.312   6.249  0.2466  0.8082 -0.2758
   44MOL    C1419880   6.018   1.138   6.041  0.1492  0.1605  0.1849
   44MOL    C1519881   5.999   1.034   5.946 -0.2061 -0.3241  0.2595
   44MOL    H1619882   5.557   0.643   5.914 -1.8577  0.7807 -1.4852
   44MOL    H1719883   5.582   0.507   5.800  0.3364 -0.0382 -0.2724
   44MOL    H1819884   5.805   0.640   5.734 -0.4512  0.4869 -0.4001
   44MOL    H1919885   5.803   0.563   5.886  0.4366  0.3984 -0.6678
   44MOL    H2019886   5.823   0.820   6.154 -1.7857 -0.3881 -1.9630
   44MOL    H2119887   5.878   0.988   6.311 -1.2389  1.2655  0.1921
   44MOL    H2219888   6.056   1.229   5.998 -1.6169  1.6451  1.6763
   44MOL    H2319889   6.035   1.045   5.845  0.3607 -0.2916  0.4651
   44MOL    H2419890   5.587   0.777   5.746  0.5929 -0.2720  0.5242
   44MOL    O2519891   6.109   1.434   6.344  0.0156  0.3407 -0.1036
   44MOL    C2619892   6.199   1.390   6.449 -0.5955  0.3255  0.3946
   44MOL    C2719893   6.155   1.435   6.588 -0.7779  0.1593 -0.5686
   44MOL    O2819894   6.165   1.577   6.606 -0.4288 -0.6116  0.3667
   44MOL    C2919895   6.282   1.627   6.641  0.2319  0.6799  0.0324
   44MOL    O3019896   6.375   1.552   6.674  0.1014  0.1426 -0.2177
   44MOL    C3119897   6.286   1.775   6.623 -0.3866 -0.3533 -0.4427
   44MOL    C3219898   6.197   1.850   6.540  0.3149  0.2229 -0.2400
   44MOL    C3319899   6.208   1.988   6.521 -0.7536 -0.1395  0.3501
   44MOL    C3419900   6.317   2.058   6.580 -0.4071 -0.1638 -0.0817
   44MOL    C3519901   6.338   2.207   6.570 -0.5342 -0.6568 -0.0636
   44MOL    O3619902   6.424   2.270   6.632 -0.2219 -0.2605 -0.0930
   44MOL    O3719903   6.243   2.264   6.488  0.4851  0.0826  0.3062
   44MOL    C3819904   6.405   1.987   6.667  0.2249 -0.4805 -0.1015
   44MOL    C3919905   6.381   1.850   6.693 -0.1755  0.1424  0.0991
   44MOL    H4019906   6.208   1.282   6.451  2.0093  0.4862 -0.5260
   44MOL    H4119907   6.297   1.424   6.415  0.9008 -2.1288  2.1506
   44MOL    H4219908   6.207   1.375   6.663 -1.4334  0.2795 -0.0156
   44MOL    H4319909   6.050   1.419   6.613 -0.3988 -2.0695 -0.2582
   44MOL    H4419910   6.117   1.808   6.480  1.7155 -1.9342 -0.6534
   44MOL    H4519911   6.139   2.051   6.468  0.8660  1.2936 -0.1063
   44MOL    H4619912   6.479   2.041   6.725 -1.5771  0.0552  1.7491
   44MOL    H4719913   6.452   1.795   6.754  0.5174  1.1529  0.2215
   44MOL    O4819914   6.263   2.414   6.479 -0.6432 -0.4280 -0.1684
   44MOL    C4919915   6.317   2.448   6.352 -0.8712 -0.2515  0.5991
   44MOL    C5019916   6.474   2.418   6.347 -0.0723  0.2094  0.3385
   44MOL    O5119917   6.496   2.284   6.320 -0.5549  0.4085 -0.0883
   44MOL    C5219918   6.483   2.245   6.191 -0.1956  0.2230 -0.8576
   44MOL    O5319919   6.466   2.327   6.099  0.2194  0.2097  0.5493
   44MOL    C5419920   6.481   2.097   6.172  0.2550  0.2746  0.7538
   44MOL    C5519921   6.480   2.012   6.283  0.4164  0.1555  0.1047
   44MOL    C5619922   6.473   1.875   6.268  0.1146 -0.6054  0.0564
   44MOL    C5719923   6.466   1.816   6.140 -0.2028  0.7982  0.1378
   44MOL    C5819924   6.448   1.670   6.111 -0.1710  0.3964  0.1909
   44MOL    O5919925   6.448   1.588   6.202 -0.2763  0.5494  0.6282
   44MOL    O6019926   6.449   1.640   5.982 -0.2662 -0.5700 -0.0185
   44MOL    C6119927   6.483   1.903   6.030 -0.7167  0.5929  0.5355
   44MOL    C6219928   6.485   2.043   6.047 -0.0341  0.1646  0.2593
   44MOL    H6319929   6.270   2.383   6.279  1.0553  1.9443 -2.7265
   44MOL    H6419930   6.300   2.553   6.330  1.2963 -0.1695 -0.8398
   44MOL    H6519931   6.514   2.424   6.449 -0.1971 -0.0742  0.4062
   44MOL    H6619932   6.546   2.476   6.290 -0.1854  0.4032  0.3945
   44MOL    H6719933   6.502   2.053   6.380  0.1900  2.8663 -0.9298
   44MOL    H6819934   6.464   1.806   6.351  2.4930 -0.7692  0.2105
   44MOL    H6919935   6.484   1.862   5.930 -2.3904 -0.6654  1.0136
   44MOL    H7019936   6.500   2.111   5.964  0.9068 -1.2793 -0.7826
   44MOL    O7119937   6.450   1.486   5.962 -0.2599 -0.2914 -0.2896
   44MOL    C7219938   6.341   1.458   5.875  0.2999 -0.4669 -0.5397
   44MOL    C7319939   6.312   1.304   5.867 -0.3152 -0.4166 -0.5349
   44MOL    O7419940   6.193   1.276   5.796 -0.0002  0.2824 -0.3478
   44MOL    C7519941   6.186   1.253   5.664  0.2423 -0.0100  0.4417
   44MOL    O7619942   6.274   1.289   5.589  0.2682  0.0004 -0.6434
   44MOL    C7719943   6.071   1.176   5.619  0.4720  0.1821  0.2246
   44MOL    C7819944   6.085   1.064   5.537 -0.2295  0.1749 -0.0285
   44MOL    C7919945   5.975   0.984   5.506 -0.3759 -0.0839  0.5111
   44MOL    C8019946   5.850   1.024   5.559  0.5298  0.9720  0.1865
   44MOL    C8119947   5.722   0.939   5.534 -0.2836 -0.0195 -1.0582
   44MOL    O8219948   5.601   0.968   5.564  0.1471  0.5178 -0.6969
   44MOL    O8319949   5.750   0.819   5.478  0.7569 -0.3223  0.8321
   44MOL    C8419950   5.837   1.143   5.640 -0.3778  0.2831  0.4119
   44MOL    C8519951   5.948   1.219   5.667  0.2473 -0.6094  0.8384
   44MOL    H8619952   6.252   1.518   5.896  0.6329  0.1311 -0.7996
   44MOL    H8719953   6.382   1.497   5.781  2.0009  1.2531  0.8690
   44MOL    H8819954   6.305   1.259   5.967 -0.9609 -1.4074 -1.0140
   44MOL    H8919955   6.395   1.258   5.815  1.3835  2.3141 -0.3051
   44MOL    H9019956   6.184   1.035   5.507 -0.4571 -2.0793  1.3197
   44MOL    H9119957   5.982   0.888   5.457 -1.1193  0.0245  0.1808
   44MOL    H9219958   5.737   1.175   5.665 -0.4873  1.3103 -1.3223
   44MOL    H9319959   5.933   1.312   5.721 -0.8592 -1.0815  1.3515
   44MOL    O9419960   5.630   0.754   5.405 -0.2435  0.2247  0.3909
   44MOL    C9519961   5.643   0.791   5.269  0.0533  0.5714  0.3706
   44MOL    C9619962   5.507   0.776   5.207  0.1748  0.9297 -0.3208
   44MOL    O9719963   5.534   0.775   5.064 -0.0807 -0.7850  0.1216
   44MOL    C9819964   5.555   0.891   4.989 -0.7892 -0.0634 -0.5172
   44MOL    O9919965   5.559   1.006   5.036  0.3051 -0.4105  0.1657
   44MOL   C10019966   5.569   0.850   4.849 -0.2049 -0.2683 -0.1100
   44MOL   C10119967   5.541   0.711   4.814 -0.4712  1.2606  0.6067
   44MOL   C10219968   5.539   0.674   4.682  0.1097 -0.6831 -0.5085
   44MOL   C10319969   5.579   0.762   4.580 -0.5287 -0.2717  0.0590
   44MOL   C10419970   5.558   0.726   4.434 -0.7115 -0.1651  0.2543
   44MOL   O10519971   5.578   0.796   4.336 -0.4206  0.1881 -0.5434
   44MOL   O10619972   5.529   0.596   4.424 -0.1322 -0.2668 -0.4151
   44MOL   C10719973   5.613   0.895   4.614  0.1659 -0.3539 -0.2021
   44MOL   C10819974   5.602   0.945   4.744 -0.4185 -0.0750  0.3452
   44MOL   H10919975   5.670   0.894   5.243 -0.1251 -0.1917 -2.9998
   44MOL   H11019976   5.718   0.732   5.217 -1.4399 -1.8970  0.9290
   44MOL   H11119977   5.440   0.859   5.231 -1.4262 -0.3873 -0.1327
   44MOL   H11219978   5.463   0.678   5.225 -0.1161  1.4381  1.8391
   44MOL   H11319979   5.516   0.627   4.878  0.7869  0.7852  0.4863
   44MOL   H11419980   5.500   0.577   4.653  1.1087 -0.9303 -1.0377
   44MOL   H11519981   5.635   0.955   4.526  2.2014  0.4511  0.8312
   44MOL   H11619982   5.609   1.046   4.781 -0.0246 -0.6539  1.8834
   44MOL   O11719983   5.493   0.547   4.285  0.9297 -0.5757 -0.0271
   44MOL   C11819984   5.606   0.487   4.222  0.5063  0.2971 -0.9248
   44MOL   C11919985   5.566   0.375   4.127 -0.1518  0.1469  0.6140
   44MOL   O12019986   5.503   0.411   4.009 -0.0653  0.0458  0.1109
   44MOL   C12119987   5.586   0.449   3.906 -0.0391 -0.3531 -0.3737
   44MOL   O12219988   5.707   0.456   3.916  0.6938 -0.4383  0.1342
   44MOL   C12319989   5.506   0.459   3.778 -0.1049  0.8205  0.1255
   44MOL   C12419990   5.367   0.479   3.775  0.8034  0.9832 -0.4524
   44MOL   C12519991   5.307   0.499   3.653  0.9258 -0.3339 -0.0174
   44MOL   C12619992   5.379   0.493   3.528  0.5387  0.1040  0.1049
   44MOL   C12719993   5.301   0.515   3.405 -0.8066 -0.0047 -0.5443
   44MOL   O12819994   5.177   0.530   3.401  0.3647 -0.4192  0.7002
   44MOL   O12919995   5.381   0.516   3.297  0.1325 -0.2160 -0.3169
   44MOL   C13019996   5.514   0.467   3.535 -0.7652 -0.1410  0.0685
   44MOL   C13119997   5.576   0.443   3.657  0.5192 -0.5823  0.3175
   44MOL   H13219998   5.668   0.566   4.178 -2.1089  1.0839 -3.3474
   44MOL   H13319999   5.664   0.442   4.303 -1.1414 -0.4467 -0.1463
   44MOL   H13420000   5.501   0.304   4.179  3.1349 -0.8769  3.5408
   44MOL   H13520001   5.644   0.303   4.102 -0.4954  0.0470 -0.1932
   44MOL   H13620002   5.304   0.490   3.862 -0.6150  0.9071 -1.4529
   44MOL   H13720003   5.211   0.548   3.646  0.2759 -1.8138 -2.3238
   44MOL   H13820004   5.584   0.452   3.454 -0.9988 -0.0089 -0.1558
   44MOL   H13920005   5.680   0.422   3.676  0.3583  0.1692  2.1999
   44MOL   O14020006   5.324   0.538   3.161  0.1794 -0.3700 -0.1152
   44MOL   C14120007   5.341   0.677   3.130 -0.2417  0.1696  0.6044
   44MOL   C14220008   5.477   0.692   3.065 -0.1487 -0.3140  0.0881
   44MOL   O14320009   5.589   0.653   3.154  0.2125  0.2065 -0.6072
   44MOL   C14420010   5.642   0.538   3.149  0.1654 -0.2061  0.6274
   44MOL   O14520011   5.607   0.449   3.068 -0.6077  0.1589 -0.4704
   44MOL   C14620012   5.766   0.534   3.229  0.9134 -0.3882 -0.3934
   44MOL   C14720013   5.784   0.624   3.335  0.2007 -0.2958  0.9124
   44MOL   C14820014   5.901   0.615   3.412 -0.3354  0.1186  0.3155
   44MOL   C14920015   6.004   0.518   3.381 -0.7706  0.8140  0.3061
   44MOL   C15020016   6.137   0.526   3.444  0.2781 -0.3347 -0.2109
   44MOL   O15120017   6.237   0.456   3.420  1.0942  0.1903  1.0832
   44MOL   O15220018   6.154   0.624   3.543 -0.0368 -0.1791 -0.0485
   44MOL   C15320019   5.986   0.429   3.268  0.3086 -0.3013  0.2710
   44MOL   C15420020   5.863   0.435   3.201  0.4152 -0.6571 -0.3393
   44MOL   H15520021   5.273   0.714   3.053  0.0608 -1.3007 -0.3883
   44MOL   H15620022   5.334   0.737   3.221 -2.8723 -0.9945  1.2164
   44MOL   H15720023   5.490   0.797   3.040  0.6701 -0.4121  0.1015
   44MOL   H15820024   5.481   0.640   2.969  2.2629  1.5832 -0.8549
   44MOL   H15920025   5.712   0.703   3.352  3.3334  3.0181 -0.4270
   44MOL   H16020026   5.914   0.687   3.492  1.2452  0.5791 -0.3468
   44MOL   H16120027   6.057   0.356   3.232  0.6731  1.0846 -1.8498
   44MOL   H16220028   5.858   0.367   3.118 -0.3053  0.9388 -1.6323
   44MOL   O16320029   6.256   0.579   3.648 -0.5267 -0.1555  0.3949
   44MOL   C16420030   6.182   0.536   3.757  0.8613 -0.5053 -0.0774
   44MOL   C16520031   6.295   0.488   3.846 -0.0649  0.3281  0.0429
   44MOL   O16620032   6.325   0.595   3.939  0.1887 -0.1071 -0.7039
   44MOL   C16720033   6.438   0.661   3.934 -0.3848  0.0108  0.4225
   44MOL   O16820034   6.501   0.663   3.829  0.5632 -0.5504  0.3940
   44MOL   C16920035   6.471   0.738   4.060 -0.4962  0.0771 -0.7545
   44MOL   C17020036   6.397   0.729   4.177 -0.1003 -0.8206  0.0361
   44MOL   C17120037   6.442   0.796   4.297  0.3911  0.4077  0.1250
   44MOL   C17220038   6.550   0.887   4.296  0.5129 -0.4221 -0.4223
   44MOL   C17320039   6.594   0.959   4.422  0.1017  0.3879  0.8138
   44MOL   O17420040   6.669   1.064   4.412 -0.6992 -0.1222  0.4930
   44MOL   O17520041   6.529   0.922   4.533  0.3851  0.1868 -0.3578
   44MOL   C17620042   6.617   0.903   4.171  0.2092 -0.3194 -0.9339
   44MOL   C17720043   6.580   0.831   4.058  0.2498 -0.3707  0.6235
   44MOL   H17820044   6.121   0.616   3.799  0.8649  0.0615 -1.1331
   44MOL   H17920045   6.117   0.454   3.727  0.9903 -0.2372 -1.1118
   44MOL   H18020046   6.380   0.459   3.784  1.4029  3.2384  0.6228
   44MOL   H18120047   6.272   0.393   3.895  2.9124 -1.3429 -1.6391
   44MOL   H18220048   6.315   0.659   4.185 -0.1368 -0.7102  0.6004
   44MOL   H18320049   6.385   0.782   4.388 -0.6177  0.5563 -0.4815
   44MOL   H18420050   6.695   0.978   4.162  0.3058 -0.1850  0.7538
   44MOL   H18520051   6.624   0.849   3.961  0.5605 -0.8217  0.6763
   44MOL   O18620052   6.581   0.997   4.654  0.3676 -0.0986 -0.4616
   44MOL   C18720053   6.492   1.090   4.703  1.0093  0.6391  0.3544
   44MOL   C18820054   6.350   1.035   4.727 -0.4362  0.8270  0.3947
   44MOL   O18920055   6.353   0.936   4.830  0.5857  0.0700 -0.4148
   44MOL   C19020056   6.298   0.817   4.814 -0.0785  0.0729  0.1677
   44MOL   O19120057   6.226   0.791   4.718 -0.2338  0.5412  0.6745
   44MOL   C19220058   6.327   0.722   4.923 -0.2029 -0.9567 -0.1437
   44MOL   C19320059   6.433   0.738   5.020 -0.0878 -0.1472  0.0530
   44MOL   C19420060   6.455   0.639   5.122  0.4844  0.1615  0.4982
   44MOL   C19520061   6.373   0.522   5.130  0.6082 -0.8615  0.5416
   44MOL   C19620062   6.393   0.427   5.234 -0.7460 -0.2309  0.0986
   44MOL   O19720063   6.320   0.330   5.243 -0.7366  0.2488  0.2076
   44MOL   O19820064   6.478   0.469   5.325  0.5922 -0.3322  0.4424
   44MOL   C19920065   6.268   0.508   5.032  0.2817  0.3549 -0.1812
   44MOL   C20020066   6.245   0.609   4.936 -0.6382  0.4920 -0.2455
   44MOL   H20120067   6.537   1.139   4.790  0.4687 -0.2816  1.1679
   44MOL   H20220068   6.488   1.175   4.636  1.6626  0.0422 -0.4500
   44MOL   H20320069   6.314   0.992   4.633 -0.1673 -0.4869  0.8718
   44MOL   H20420070   6.283   1.118   4.746 -0.8652  0.1534  1.8598
   44MOL   H20520071   6.486   0.832   5.025 -2.5527  1.4052 -1.8976
   44MOL   H20620072   6.544   0.660   5.180  0.1548 -0.1699  1.1181
   44MOL   H20720073   6.207   0.419   5.034  0.5563  0.1855  3.8426
   44MOL   H20820074   6.179   0.589   4.852  1.2260 -1.4406 -1.2647
   44MOL   O20920075   6.462   0.401   5.459  0.1220 -0.3817 -0.0555
   44MOL   C21020076   6.549   0.287   5.461 -0.1377 -0.1286  0.0834
   44MOL   C21120077   6.696   0.311   5.479 -0.0149  0.0319  0.6708
   44MOL   O21220078   6.757   0.189   5.514 -0.1078  0.5943  0.2739
   44MOL   C21320079   6.797   0.106   5.420  0.1856 -0.3274 -0.0825
   44MOL   O21420080   6.795   0.131   5.297 -0.8162  0.7276 -0.2081
   44MOL   C21520081   6.835   8.247   5.465  0.4390  0.3853 -0.3026
   44MOL   C21620082   6.862   8.138   5.377  0.5587  0.5803 -0.6222
   44MOL   C21720083   6.881   8.005   5.426  0.7587 -0.1483  0.2430
   44MOL   C21820084   6.885   7.984   5.565 -0.5351  0.0208 -0.3076
   44MOL   C21920085   6.907   7.841   5.613  0.1585  0.0626 -0.1492
   44MOL   O22020086   6.890   7.745   5.540  0.9322 -0.0497 -0.7828
   44MOL   O22120087   6.944   7.841   5.744 -0.2407 -0.2710  0.2143
   44MOL   C22220088   6.868   8.092   5.653 -0.0823  0.0389  0.3401
   44MOL   C22320089   6.835   8.217   5.605 -0.0472 -1.2597 -0.2951
   44MOL   H22420090   6.527   0.229   5.550 -3.0130 -1.2514 -1.2729
   44MOL   H22520091   6.518   0.221   5.379 -1.9580 -1.3479  1.6986
   44MOL   H22620092   6.713   0.376   5.565  1.4625 -0.3327  0.6790
   44MOL   H22720093   6.736   0.365   5.394 -1.2726  1.4633  0.9836
   44MOL   H22820094   6.866   8.164   5.272  0.4486  0.3836 -0.6740
   44MOL   H22920095   6.895   7.923   5.357  0.0999  0.1688 -0.2752
   44MOL   H23020096   6.865   8.081   5.761  1.5818 -0.6808  0.3232
   44MOL   H23120097   6.820   0.019   5.678 -0.4434 -1.9634  0.3826
   44MOL   O23220098   6.936   7.712   5.805 -0.2925  0.2502 -0.1559
   44MOL   C23320099   7.057   7.642   5.777  0.3327 -0.0282 -0.8030
   44MOL   C23420100   7.028   7.490   5.749 -0.0880 -0.2444  0.2422
   44MOL   O23520101   6.967   7.480   5.614  0.1412  0.1327 -0.0665
   44MOL   C23620102   7.038   7.441   5.507 -0.6834  0.0647 -0.4801
   44MOL   O23720103   7.157   7.411   5.506  0.2572 -0.2590 -0.3159
   44MOL   C23820104   6.959   7.446   5.377 -0.5507 -0.5446  0.8401
   44MOL   C23920105   7.032   7.431   5.261 -0.4864  0.2256  0.0847
   44MOL   C24020106   6.964   7.429   5.141 -0.1263  0.3321  0.0755
   44MOL   C24120107   6.827   7.444   5.132 -0.0576  0.2886  0.5676
   44MOL   C24220108   6.761   7.452   5.001  0.4673 -0.3411  0.1367
   44MOL   O24320109   6.643   7.424   4.988 -0.4986  0.0034  0.3579
   44MOL   O24420110   6.840   7.474   4.895 -0.3790  0.2761 -0.0672
   44MOL   C24520111   6.749   7.460   5.249  0.4489  0.1354 -0.2750
   44MOL   C24620112   6.819   7.457   5.372 -0.9391 -0.3471 -0.9562
   44MOL   H24720113   7.126   7.694   5.710 -0.4838  3.4544  0.9423
   44MOL   H24820114   7.128   7.640   5.860 -0.0914 -1.6863 -0.4645
   44MOL   H24920115   6.989   7.431   5.832  0.7511 -0.3881  0.5403
   44MOL   H25020116   7.124   7.438   5.745 -1.0024 -2.0177  0.9564
   44MOL   H25120117   7.140   7.430   5.262 -0.4714  1.0848 -0.1743
   44MOL   H25220118   7.020   7.408   5.052  0.7439  0.0017  0.6961
   44MOL   H25320119   6.643   7.484   5.244 -0.1425 -2.3756 -0.3637
   44MOL   H25420120   6.757   7.480   5.457  0.4828  0.7508 -0.1897
   44MOL   O25520121   6.768   7.526   4.771 -0.1942  0.1204 -0.0090
   44MOL   C25620122   6.843   7.624   4.710 -0.3349  0.0051 -0.8678
   44MOL   C25720123   6.762   7.660   4.584  0.2232  0.1637 -0.6121
   44MOL   O25820124   6.807   7.771   4.516  1.0873 -0.1177 -0.6473
   44MOL   C25920125   6.925   7.764   4.451 -0.1719 -0.2970  0.1041
   44MOL   O26020126   6.995   7.662   4.448  0.0201 -0.3385  0.2174
   44MOL   C26120127   6.954   7.883   4.379  0.3449  0.8352 -0.2639
   44MOL   C26220128   6.890   8.009   4.403  0.0652  0.2789 -0.0353
   44MOL   C26320129   6.927   8.116   4.316 -0.4884  0.2064  0.3677
   44MOL   C26420130   7.036   8.108   4.232 -0.6415 -0.3892  0.8504
   44MOL   C26520131   7.080   8.222   4.150  0.3326  0.7323 -0.0734
   44MOL   O26620132   7.017   0.050   4.142  0.0832  0.1983 -0.3574
   44MOL   O26720133   7.198   8.200   4.091  0.4246 -0.0325 -0.1971
   44MOL   C26820134   7.097   7.982   4.213 -0.5593 -0.3542 -0.3772
   44MOL   C26920135   7.054   7.876   4.286  0.0419 -0.7086 -0.2120
   44MOL   H27020136   6.847   7.699   4.790  0.0131 -1.1333  0.1981
   44MOL   H27120137   6.945   7.592   4.689 -0.4828 -1.2484  0.2907
   44MOL   H27220138   6.653   7.661   4.590  0.0538 -0.0326 -3.1965
   44MOL   H27320139   6.791   7.580   4.516 -0.1790 -0.2815 -0.2664
   44MOL   H27420140   6.798   8.018   4.460  0.8067 -1.2829  1.4384
   44MOL   H27520141   6.878   8.212   4.315  1.1354  1.0837  1.8462
   44MOL   H27620142   7.177   7.964   4.143  0.4068  0.8563  0.3999
   44MOL   H27720143   7.109   7.787   4.260 -1.4109 -2.0373  1.2623
   44MOL   O27820144   7.261   0.045   4.023 -0.5994  0.0923  0.0156
   44MOL   C27920145   7.375   0.090   4.096  0.0435  0.2589  0.1573
   44MOL   C28020146   7.495   8.272   4.074  0.5750  0.0593 -0.0581
   44MOL   O28120147   7.470   8.153   4.146 -0.2384 -0.1195 -0.0432
   44MOL   C28220148   7.461   8.039   4.078  0.5112  0.2479 -0.4894
   44MOL   O28320149   7.458   8.039   3.957  0.2889 -0.6575 -0.5524
   44MOL   C28420150   7.455   7.916   4.176  0.2989 -0.6740  0.3483
   44MOL   C28520151   7.433   7.788   4.118  0.3224 -0.2505 -0.1741
   44MOL   C28620152   7.399   7.683   4.203  0.5715  0.7587 -0.2843
   44MOL   C28720153   7.382   7.704   4.343 -0.0664  0.0070  0.1996
   44MOL   C28820154   7.329   7.595   4.431 -0.2539  0.6808 -0.5050
   44MOL   O28920155   7.316   7.604   4.553  0.3075  0.0932  0.0704
   44MOL   O29020156   7.302   7.493   4.371 -0.0227  0.2983 -0.2025
   44MOL   C29120157   7.412   7.835   4.397  0.4547  0.5554  1.2429
   44MOL   C29220158   7.449   7.935   4.315 -0.0791 -0.1983  0.5897
   44MOL   H29320159   7.402   0.184   4.048  3.5652 -1.0801 -0.6644
   44MOL   H29420160   7.345   0.102   4.200  1.9668 -1.2075  0.9149
   44MOL   H29520161   7.585   0.036   4.123  1.6076  0.3218 -2.1207
   44MOL   H29620162   7.532   8.260   3.972 -1.6120 -1.2893 -0.7209
   44MOL   H29720163   7.451   7.764   4.014  0.3641 -0.2818 -0.1599
   44MOL   H29820164   7.383   7.583   4.164 -0.7432  1.4185 -1.4870
   44MOL   H29920165   7.384   7.866   4.496 -0.7074 -2.7727  1.9988
   44MOL   H30020166   7.470   8.031   4.359  0.7958 -1.5412  3.1718
   44MOL   O30120167   7.275   7.379   4.467 -0.1605  0.3336 -0.5477
   44MOL   C30220168   7.135   7.346   4.460 -0.1600  0.4449 -0.4208
   44MOL   C30320169   7.069   7.304   4.595  0.3273  0.1042 -0.1833
   44MOL   O30420170   7.111   7.165   4.609  0.0093 -0.0105  0.1565
   44MOL   C30520171   7.031   7.073   4.663  0.3562 -0.0289  0.3576
   44MOL   O30620172   6.927   7.107   4.718 -0.8888 -0.2871  0.3036
   44MOL   C30720173   7.077   6.931   4.639  0.5683 -0.4934 -0.1294
   44MOL   C30820174   7.199   6.895   4.582 -1.4724 -0.5340  0.5766
   44MOL   C30920175   7.226   6.762   4.534  0.1427  0.5845  0.1426
   44MOL   C31020176   7.129   6.658   4.551 -0.5922 -0.0188 -0.6867
   44MOL   C31120177   7.146   6.519   4.505  1.5670  0.6720  0.4745
   44MOL   O31220178   7.063   6.423   4.511  0.6155 -0.2535  0.1299
   44MOL   O31320179   7.261   6.503   4.437 -0.2840  0.2708  0.4008
   44MOL   C31420180   7.007   6.694   4.617 -0.3707 -0.0054 -0.7154
   44MOL   C31520181   6.982   6.828   4.666  0.0259  0.1155  0.2235
   44MOL   H31620182   7.075   7.424   4.414  0.3872  1.0613 -0.1058
   44MOL   H31720183   7.117   7.274   4.381  0.2388  1.4275 -1.4237
   44MOL   H31820184   6.961   7.312   4.594  0.1854 -1.6592 -0.6147
   44MOL   H31920185   7.111   7.356   4.682 -0.0338 -0.0152  0.0618
   44MOL   H32020186   7.276   6.963   4.548 -1.4894 -1.4311 -1.3354
   44MOL   H32120187   7.324   6.742   4.493  0.8482  1.6169  1.2745
   44MOL   H32220188   6.926   6.623   4.630 -0.6629  0.6338  1.1484
   44MOL   H32320189   6.884   6.854   4.702 -1.4190 -2.0995 -1.8872
   44MOL   O32420190   7.289   6.365   4.380 -0.2000 -0.2588 -0.2017
   44MOL   C32520191   7.370   6.289   4.461  0.1380  0.0939  0.1594
   44MOL   C32620192   7.470   6.230   4.367  0.7029 -0.0473 -0.4945
   44MOL   O32720193   7.543   6.134   4.447  0.2104 -0.2131  0.3231
   44MOL   C32820194   7.672   6.107   4.410  0.2584 -0.2228  0.0211
   44MOL   O32920195   7.720   6.162   4.308  0.2716  0.1154  0.0198
   44MOL   C33020196   7.738   6.009   4.502 -0.3783 -0.3931  0.5608
   44MOL   C33120197   7.867   5.962   4.479  0.2685  0.0228 -0.3958
   44MOL   C33220198   7.930   5.868   4.563 -1.0882 -0.2656  0.3785
   44MOL   C33320199   7.865   5.828   4.681  0.1797  0.7374  0.3794
   44MOL   C33420200   7.932   5.746   4.783  0.4742  0.8402  0.3720
   44MOL   O33520201   8.023   5.672   4.756  0.4184  0.4255  0.2211
   44MOL   O33620202   7.880   5.772   4.909  0.1122  0.2726 -0.6079
   44MOL   C33720203   7.735   5.875   4.707  0.7567 -0.1466  0.1349
   44MOL   C33820204   7.668   5.962   4.616  0.0178 -0.3594  0.0885
   44MOL   H33920205   7.415   6.341   4.546 -2.9360  2.3179  0.5480
   44MOL   H34020206   7.298   6.218   4.502 -0.6925  0.8218 -0.0177
   44MOL   H34120207   7.537   6.308   4.331 -1.3643  1.6937 -0.6683
   44MOL   H34220208   7.432   6.185   4.276  1.5224 -1.5413 -0.1255
   44MOL   H34320209   7.929   6.010   4.405 -0.5502  1.2635 -0.2874
   44MOL   H34420210   8.030   5.833   4.540 -1.1453 -0.2099  0.0453
   44MOL   H34520211   7.681   5.842   4.794 -1.2543 -0.3862 -1.1623
   44MOL   H34620212   7.565   5.989   4.631  0.7378  2.4587  0.2838
   44MOL   O34720213   7.927   5.685   5.015 -0.1054  0.2848 -0.1660
   44MOL   C34820214   8.024   5.762   5.095 -0.1142  0.1271  0.0726
   44MOL   C34920215   7.960   5.888   5.158 -0.0875  0.4550 -0.4089
   44MOL   O35020216   7.845   5.853   5.232 -0.4448 -0.0321 -0.3387
   44MOL   C35120217   7.850   5.767   5.333 -0.4694 -0.5452 -0.0268
   44MOL   O35220218   7.955   5.739   5.391  0.7480 -0.2264  0.1558
   44MOL   C35320219   7.716   5.712   5.379 -0.7889  0.0813  0.3896
   44MOL   C35420220   7.708   5.578   5.424  0.4462 -0.9588 -0.3073
   44MOL   C35520221   7.579   5.524   5.468 -0.2439 -0.4780  0.6767
   44MOL   C35620222   7.460   5.604   5.455  0.5634 -0.5327  0.0645
   44MOL   C35720223   7.325   5.551   5.485  0.0216  0.2060  0.1275
   44MOL   O35820224   7.308   5.437   5.528 -0.1770  0.6310 -0.3868
   44MOL   O35920225   7.230   5.635   5.457 -0.1270 -0.4135  0.5459
   44MOL   C36020226   7.479   5.737   5.414 -0.8180  0.1343  0.4570
   44MOL   C36120227   7.602   5.790   5.369  0.2243  0.1632  0.6060
   44MOL   H36220228   8.075   5.707   5.173 -0.8162  0.2998  0.6549
   44MOL   H36320229   8.106   5.785   5.026  1.9746 -2.4922  1.5907
   44MOL   H36420230   7.931   5.963   5.085 -0.5306 -0.3208 -1.0520
   44MOL   H36520231   8.018   5.945   5.230  0.7600 -0.0891 -0.6570
   44MOL   H36620232   7.793   5.512   5.421 -0.0703 -1.6708  0.6359
   44MOL   H36720233   7.551   5.425   5.502 -1.5150 -0.2064  0.4564
   44MOL   H36820234   7.393   5.801   5.397 -0.4164  0.4845 -0.3134
   44MOL   H36920235   7.598   5.894   5.340 -2.2275  0.7212  2.7542
   44MOL   O37020236   7.086   5.588   5.462  0.4761  0.4688  0.1548
   44MOL   C37120237   7.037   5.626   5.589 -0.3799 -1.2995 -0.0809
   44MOL   C37220238   6.978   5.504   5.652  0.1220  0.3827 -0.0077
   44MOL   O37320239   6.969   5.535   5.789  0.6275  0.3423 -0.4780
   44MOL   C37420240   7.068   5.500   5.877 -0.0870  0.2262 -0.1298
   44MOL   O37520241   7.175   5.450   5.849 -0.4521  0.1163  0.3248
   44MOL   C37620242   7.026   5.540   6.012  0.4689 -0.2882  0.3397
   44MOL   C37720243   7.093   5.485   6.120  0.8500 -0.0335 -0.6453
   44MOL   C37820244   7.039   5.498   6.248  0.2580  0.2573  0.2152
   44MOL   C37920245   6.926   5.571   6.275  0.0975 -0.6562 -0.4176
   44MOL   C38020246   6.872   5.589   6.409 -0.7956  0.1564 -0.5835
   44MOL   O38120247   6.908   5.532   6.511 -0.8171  0.6306  0.4099
   44MOL   O38220248   6.779   5.677   6.413 -0.2882  0.0786  0.5489
   44MOL   C38320249   6.859   5.629   6.168  0.0407  0.3863  0.0941
   44MOL   C38420250   6.910   5.615   6.039  0.5342  0.4372  0.0354
   44MOL   H38520251   7.115   5.656   5.659  0.2721  0.6182 -1.5706
   44MOL   H38620252   6.976   5.717   5.587  0.0241 -1.0572 -1.5774
   44MOL   H38720253   7.054   5.427   5.647 -0.2691 -0.1855  2.2524
   44MOL   H38820254   6.879   5.476   5.617  0.1717  0.8256 -0.5081
   44MOL   H38920255   7.183   5.427   6.103  0.7669  0.0899 -1.5507
   44MOL   H39020256   7.095   5.453   6.329  1.3329  1.9177  0.4253
   44MOL   H39120257   6.766   5.681   6.184 -0.0531 -0.3246  1.9261
   44MOL   H39220258   6.860   5.658   5.954  2.4429  1.5356 -0.5374
   44MOL   O39320259   6.725   5.718   6.548  0.3232  0.0395 -0.2444
   44MOL   C39420260   6.786   5.841   6.583  0.9121 -0.5927 -0.3294
   44MOL   C39520261   6.701   5.942   6.501  0.2942 -0.8750  0.4758
   44MOL   O39620262   6.749   5.958   6.365 -0.6643 -0.5968 -0.2467
   44MOL   C39720263   6.684   6.049   6.287  0.0418  0.2213 -0.1708
   44MOL   O39820264   6.588   6.120   6.321 -0.1504  0.0950  0.4430
   44MOL   C39920265   6.741   6.049   6.154 -0.6707 -0.4253  0.4083
   44MOL   C40020266   6.687   6.132   6.052  0.3807 -0.3825  0.1342
   44MOL   C40120267   6.735   6.118   5.921 -0.0725  0.0760  0.1092
   44MOL   C40220268   6.851   6.042   5.892 -0.0646  0.1340 -0.3391
   44MOL   C40320269   6.910   6.036   5.752  0.7501 -0.2691  0.5133
   44MOL   O40420270   7.010   5.961   5.740 -0.7619  0.7290  0.9064
   44MOL   O40520271   6.835   6.098   5.655  0.3709 -0.3313 -0.1327
   44MOL   C40620272   6.916   5.970   5.995  0.4904  0.2005 -0.6875
   44MOL   C40720273   6.866   5.978   6.126  1.0577  0.1720 -0.3234
   44MOL   H40820274   6.774   5.857   6.690  2.0281  0.7063 -0.3847
   44MOL   H40920275   6.893   5.839   6.563  0.5725 -1.6725 -2.1621
   44MOL   H41020276   6.715   6.040   6.546  2.1857 -0.0014 -1.8835
   44MOL   H41120277   6.593   5.929   6.508  0.4296 -1.2262  2.1839
   44MOL   H41220278   6.595   6.186   6.070  1.4671  1.1603  1.1144
   44MOL   H41320279   6.697   6.168   5.833 -1.0760 -0.4307  0.2552
   44MOL   H41420280   7.000   5.904   5.980 -0.6648 -1.7694  1.2039
   44MOL   H41520281   6.918   5.914   6.196 -2.1115 -0.7300  1.3033
   44MOL   O41620282   6.898   6.083   5.523 -0.0433 -0.0513 -0.1623
   44MOL   C41720283   6.827   5.978   5.453 -0.9358 -0.5520 -0.3554
   44MOL   C41820284   6.846   6.006   5.306  0.2580 -0.2939  0.1593
   44MOL   O41920285   6.973   5.965   5.263  0.7368  0.3761  0.4409
   44MOL   C42020286   6.986   5.833   5.237 -0.4241  0.0248  0.3539
   44MOL   O42120287   6.896   5.751   5.257  0.7502 -0.8289  0.1512
   44MOL   C42220288   7.123   5.794   5.174  0.4827 -0.4703  1.1816
   44MOL   C42320289   7.222   5.890   5.149  0.5978 -0.5882  0.4679
   44MOL   C42420290   7.355   5.860   5.099  0.2468  0.0456  0.3627
   44MOL   C42520291   7.386   5.724   5.089  0.1457 -0.6235 -0.1637
   44MOL   C42620292   7.523   5.692   5.039  0.0759  0.2960 -0.3860
   44MOL   O42720293   7.609   5.784   5.033  0.1089  0.3697  0.1660
   44MOL   O42820294   7.543   5.564   4.993  0.2835  0.4337  0.2931
   44MOL   C42920295   7.294   5.625   5.122  0.5904 -0.5605  0.2474
   44MOL   C43020296   7.159   5.658   5.150  0.4120  0.3935  0.4062
   44MOL   H43120297   6.839   5.874   5.485 -0.3737  0.3042  2.3819
   44MOL   H43220298   6.719   5.988   5.467 -1.2317 -0.4027 -2.5935
   44MOL   H43320299   6.827   6.109   5.276  1.8692 -0.7677 -2.6131
   44MOL   H43420300   6.756   5.961   5.263  1.0604 -0.4723 -1.3759
   44MOL   H43520301   7.198   5.994   5.168 -1.8010 -0.8302 -1.1545
   44MOL   H43620302   7.431   5.935   5.084  1.8057 -1.5977 -0.1974
   44MOL   H43720303   7.309   5.518   5.125 -1.2290 -0.9562 -2.9732
   44MOL   H43820304   7.088   5.582   5.182 -0.1805  1.0901  0.7516
   44MOL   O43920305   7.685   5.533   4.965 -0.1005  0.2739  0.4089
   44MOL   C44020306   7.739   5.463   5.078 -0.6806  0.1664  0.4517
   44MOL   C44120307   7.691   5.318   5.087  0.2669 -0.6347 -0.5327
   44MOL   O44220308   7.548   5.315   5.125 -0.2572  0.0552  0.2191
   44MOL   C44320309   7.457   5.279   5.033 -0.1122 -0.3269 -0.3352
   44MOL   O44420310   7.482   5.275   4.918 -0.2799  0.1608  0.0332
   44MOL   C44520311   7.326   5.247   5.087  0.3509 -0.1891  0.5331
   44MOL   C44620312   7.220   5.217   4.993 -0.4139 -0.1660 -0.6872
   44MOL   C44720313   7.089   5.195   5.037 -0.4237  0.4873  0.1614
   44MOL   C44820314   7.060   5.205   5.173  0.9953 -0.3555  0.0744
   44MOL   C44920315   6.919   5.180   5.218 -0.1491  0.1424  0.1162
   44MOL   O45020316   6.863   5.254   5.304 -0.0605 -0.4846 -0.4653
   44MOL   O45120317   6.862   5.084   5.136  0.0034  0.1799  0.5443
   44MOL   C45220318   7.158   5.256   5.268 -0.1755 -0.4824  0.2578
   44MOL   C45320319   7.294   5.266   5.222  0.1148 -0.0611  0.4317
   44MOL   H45420320   7.846   5.470   5.062 -0.7844  1.2685  0.1922
   44MOL   H45520321   7.710   5.521   5.166  0.3193  1.6748 -0.1895
   44MOL   H45620322   7.762   5.255   5.141 -0.1302  0.6861  1.5763
   44MOL   H45720323   7.710   5.298   4.982  1.3534 -2.3739 -0.0268
   44MOL   H45820324   7.243   5.208   4.888 -1.1287  1.9104 -1.0390
   44MOL   H45920325   7.016   5.170   4.961 -0.2537  1.7611 -0.4460
   44MOL   H46020326   7.129   5.272   5.370  0.4617  1.0687  0.2113
   44MOL   H46120327   7.365   5.307   5.293 -0.4897  0.1032  0.9392
   44MOL   H46220328   6.770   5.104   5.122  0.1109 -0.0307 -0.5674
   45MOL     O120329   3.605   5.316   4.802  0.6314  0.2844  0.5836
   45MOL     C220330   3.628   5.292   4.939 -0.8614 -0.2743 -0.2423
   45MOL     C320331   3.705   5.167   4.978  0.2544  1.3219  0.2076
   45MOL     O420332   3.838   5.197   5.005  0.0764  0.7344 -0.1525
   45MOL     C520333   3.933   5.198   4.906 -0.1753  0.0608  0.1194
   45MOL     O620334   3.894   5.191   4.786  0.5616  0.2788 -0.5799
   45MOL     C720335   4.070   5.195   4.955  0.4336 -0.1428  0.5897
   45MOL     C820336   4.167   5.237   4.860 -0.2359 -0.6834 -0.1673
   45MOL     C920337   4.302   5.229   4.887 -0.8210  0.4331  0.3918
   45MOL    C1020338   4.336   5.177   5.020  0.0619  0.3741  0.0405
   45MOL    C1120339   4.483   5.166   5.046  0.8965 -0.2813  0.1798
   45MOL    O1220340   4.568   5.150   4.960  0.2880 -0.0600  0.6132
   45MOL    O1320341   4.510   5.186   5.175 -0.4263  0.0814  0.2587
   45MOL    C1420342   4.237   5.153   5.122  0.0723  0.4105  0.0438
   45MOL    C1520343   4.101   5.163   5.089 -0.1902 -0.0642 -0.1168
   45MOL    H1620344   3.690   5.373   4.978 -0.5580 -0.9058  0.5806
   45MOL    H1720345   3.535   5.293   4.995 -1.0351 -0.8153 -0.5206
   45MOL    H1820346   3.692   5.094   4.899  1.4165  0.8231  0.4634
   45MOL    H1920347   3.653   5.126   5.065 -2.1876  1.9707 -0.9171
   45MOL    H2020348   4.128   5.267   4.763 -1.6786 -0.3751  0.4939
   45MOL    H2120349   4.377   5.248   4.812 -2.3493 -3.1879 -2.2436
   45MOL    H2220350   4.277   5.139   5.221 -0.0866  3.5347  0.5881
   45MOL    H2320351   4.029   5.143   5.166 -0.1568 -0.0860 -0.0914
   45MOL    H2420352   3.688   5.338   4.761  0.4579 -1.4802 -0.7651
   45MOL    O2520353   4.651   5.156   5.206 -0.5189 -0.3674  0.1132
   45MOL    C2620354   4.670   5.043   5.281  0.1609 -0.5176  0.2363
   45MOL    C2720355   4.732   5.085   5.411  0.3948  0.1777 -0.0946
   45MOL    O2820356   4.700   5.002   5.518  0.1145 -1.2093 -0.0686
   45MOL    C2920357   4.785   4.899   5.546 -0.0894 -0.0156 -0.9706
   45MOL    O3020358   4.868   4.866   5.471 -0.2907 -0.1604  0.0994
   45MOL    C3120359   4.763   4.836   5.686  0.7823  0.2103 -0.1455
   45MOL    C3220360   4.843   4.727   5.731  0.3234  0.1579  0.2262
   45MOL    C3320361   4.813   4.654   5.847 -0.0832 -0.0213  0.1150
   45MOL    C3420362   4.699   4.680   5.922 -0.0266  0.2923 -0.2953
   45MOL    C3520363   4.657   4.597   6.043  0.3738  0.4205  0.1992
   45MOL    O3620364   4.552   4.617   6.102 -0.3022 -0.1400 -0.1314
   45MOL    O3720365   4.739   4.487   6.068  0.4409 -0.7028 -0.2658
   45MOL    C3820366   4.618   4.788   5.878 -0.6073  0.1838 -0.0523
   45MOL    C3920367   4.650   4.862   5.760  0.2362  0.6823  0.0605
   45MOL    H4020368   4.571   5.000   5.292 -0.5671  0.7405 -1.1740
   45MOL    H4120369   4.737   4.980   5.223 -0.1053  0.6953 -1.4135
   45MOL    H4220370   4.687   5.179   5.443 -0.0509 -0.2629  0.6010
   45MOL    H4320371   4.839   5.109   5.405  0.5103  0.9557  3.6310
   45MOL    H4420372   4.933   4.701   5.678  0.7738 -1.1207  1.6032
   45MOL    H4520373   4.872   4.572   5.885  1.2360  0.9161  0.1533
   45MOL    H4620374   4.531   4.815   5.936 -0.9135 -0.9938  0.0512
   45MOL    H4720375   4.585   4.942   5.729 -1.9385 -1.3166 -0.7754
   45MOL    O4820376   4.669   4.387   6.164  0.3391  0.0963  0.0634
   45MOL    C4920377   4.592   4.299   6.076 -0.2879  0.7240 -0.1702
   45MOL    C5020378   4.663   4.176   6.028 -0.0600  0.0715  0.3569
   45MOL    O5120379   4.771   4.214   5.934 -0.2036  0.7515  0.2938
   45MOL    C5220380   4.902   4.214   5.981 -0.3936 -0.0836  0.6858
   45MOL    O5320381   4.938   4.147   6.076  0.1526  0.3237 -0.2730
   45MOL    C5420382   4.993   4.299   5.901  0.2448 -0.1546  0.0876
   45MOL    C5520383   4.942   4.351   5.778 -0.1892  0.0131  0.5844
   45MOL    C5620384   5.030   4.443   5.709  0.2687 -0.4967  0.0170
   45MOL    C5720385   5.154   4.482   5.754 -0.1722  1.1408 -0.4131
   45MOL    C5820386   5.240   4.574   5.667 -0.0620 -0.4866  0.3273
   45MOL    O5920387   5.200   4.667   5.593  0.3739  0.1406 -0.3840
   45MOL    O6020388   5.366   4.538   5.682 -0.4216 -0.0149  0.8270
   45MOL    C6120389   5.200   4.428   5.876  0.3333 -0.0405 -0.4243
   45MOL    C6220390   5.122   4.340   5.949  0.0001 -0.1429 -0.0046
   45MOL    H6320391   4.510   4.263   6.138 -0.4567 -0.6859 -1.1883
   45MOL    H6420392   4.534   4.353   6.002 -0.4226 -2.1339 -2.2507
   45MOL    H6520393   4.592   4.116   5.971  1.4437 -1.2517 -0.1733
   45MOL    H6620394   4.700   4.121   6.115 -0.9995 -2.4053 -0.7624
   45MOL    H6720395   4.846   4.316   5.742  1.1833  0.0402 -3.2920
   45MOL    H6820396   4.990   4.460   5.610 -2.6835 -1.3905  1.0180
   45MOL    H6920397   5.294   4.451   5.925  0.0768  0.9945 -0.4073
   45MOL    H7020398   5.155   4.300   6.044 -2.0448 -0.0481  0.7860
   45MOL    O7120399   5.463   4.630   5.624 -0.2196  0.1517  0.0411
   45MOL    C7220400   5.510   4.712   5.730 -0.4868 -0.7721  0.0417
   45MOL    C7320401   5.632   4.799   5.688  0.3150 -0.2967  0.1714
   45MOL    O7420402   5.667   4.894   5.782  0.3928 -0.1530 -0.3018
   45MOL    C7520403   5.740   4.866   5.893  0.1909 -0.5124  0.2613
   45MOL    O7620404   5.782   4.753   5.925  0.0147  0.5046 -0.0910
   45MOL    C7720405   5.742   4.974   5.990  0.3771  0.2863 -0.1480
   45MOL    C7820406   5.675   5.099   5.974  0.6859 -0.7593  0.4554
   45MOL    C7920407   5.666   5.201   6.072  0.1438 -1.0156  0.2977
   45MOL    C8020408   5.735   5.183   6.195 -0.2552  0.6103  0.1684
   45MOL    C8120409   5.744   5.285   6.303  0.9948  0.3258  0.6680
   45MOL    O8220410   5.673   5.391   6.297  0.1360  0.0543 -0.5631
   45MOL    O8320411   5.847   5.267   6.386  0.0429 -0.0801 -0.3920
   45MOL    C8420412   5.803   5.058   6.213 -0.0052  0.6615  0.9049
   45MOL    C8520413   5.806   4.957   6.117 -0.0996  0.0777  0.1163
   45MOL    H8620414   5.423   4.771   5.759 -0.4973 -2.2594  3.2672
   45MOL    H8720415   5.529   4.650   5.818 -1.1515 -1.2051 -0.1109
   45MOL    H8820416   5.606   4.850   5.595  0.0661  1.3045  1.0962
   45MOL    H8920417   5.708   4.722   5.676  1.6150  0.6108  2.3523
   45MOL    H9020418   5.635   5.117   5.876 -1.8658 -1.5336  1.3134
   45MOL    H9120419   5.623   5.294   6.041  1.4634 -0.0552  1.2881
   45MOL    H9220420   5.849   5.036   6.308 -0.5194 -1.5779  0.6534
   45MOL    H9320421   5.857   4.861   6.123  1.6476  1.0383  1.2144
   45MOL    O9420422   5.871   5.390   6.467  0.2081  0.1010 -0.3434
   45MOL    C9520423   5.998   5.454   6.429 -0.0156  0.5820  0.3710
   45MOL    C9620424   5.966   5.578   6.338 -0.1079  0.0015 -0.2672
   45MOL    O9720425   5.918   5.533   6.215  0.3593 -0.3107 -0.3083
   45MOL    C9820426   6.001   5.463   6.132 -0.5870  0.1282  0.3350
   45MOL    O9920427   6.114   5.430   6.157 -0.1981  0.4086  0.3582
   45MOL   C10020428   5.949   5.449   5.995  0.2337 -0.2459 -0.0918
   45MOL   C10120429   6.030   5.403   5.893 -0.1624  0.6503  1.2405
   45MOL   C10220430   5.982   5.378   5.763  0.2644 -0.3640  0.3381
   45MOL   C10320431   5.845   5.390   5.731  0.3212 -0.2110 -0.1214
   45MOL   C10420432   5.803   5.380   5.590  0.2293  0.6147  0.3840
   45MOL   O10520433   5.883   5.377   5.490  0.1771  0.3933 -0.7100
   45MOL   O10620434   5.667   5.359   5.580  0.3799 -0.3452  0.0220
   45MOL   C10720435   5.762   5.432   5.838 -0.0869  0.4500 -0.7611
   45MOL   C10820436   5.810   5.459   5.975 -0.3259  0.0126  0.5746
   45MOL   H10920437   6.055   5.484   6.516 -0.3242 -1.0275  1.1278
   45MOL   H11020438   6.052   5.371   6.385 -0.2922  0.1269  0.8962
   45MOL   H11120439   6.051   5.644   6.316  0.2031 -0.5416 -0.7046
   45MOL   H11220440   5.894   5.643   6.388  0.2479  1.4856 -1.6510
   45MOL   H11320441   6.134   5.378   5.909  0.5534  2.1679 -0.7477
   45MOL   H11420442   6.051   5.339   5.690 -1.6414  0.6056 -2.0258
   45MOL   H11520443   5.659   5.456   5.819 -0.6785 -1.0479  0.3771
   45MOL   H11620444   5.733   5.492   6.043  0.6027  0.2816  1.5243
   45MOL   O11720445   5.612   5.336   5.444 -0.1687 -0.2806  0.1105
   45MOL   C11820446   5.605   5.196   5.420 -0.2840  0.5752 -0.0768
   45MOL   C11920447   5.495   5.135   5.513 -1.2114  0.2946  0.5083
   45MOL   O12020448   5.373   5.195   5.478  0.1067 -0.3550  0.3338
   45MOL   C12120449   5.289   5.143   5.386 -0.5706  0.1301 -1.0886
   45MOL   O12220450   5.309   5.037   5.325 -0.3246 -0.4391 -0.3085
   45MOL   C12320451   5.170   5.229   5.365 -0.3097 -0.4585  0.7332
   45MOL   C12420452   5.134   5.335   5.445 -0.0163  0.0285 -0.2309
   45MOL   C12520453   5.016   5.408   5.410 -0.1182  0.5106 -0.6361
   45MOL   C12620454   4.939   5.369   5.295  0.1322  0.0163 -0.2628
   45MOL   C12720455   4.824   5.458   5.254 -0.4723  0.3240 -0.0611
   45MOL   O12820456   4.786   5.557   5.321 -0.2606  0.2193  0.2102
   45MOL   O12920457   4.771   5.415   5.143 -0.2256 -0.6875 -0.2391
   45MOL   C13020458   4.971   5.252   5.222 -0.3911 -0.2469  0.4484
   45MOL   C13120459   5.087   5.186   5.263 -0.5424  0.3203 -0.0836
   45MOL   H13220460   5.582   5.189   5.313 -1.9534  0.0222  0.2964
   45MOL   H13320461   5.698   5.142   5.429 -1.6463 -1.7064  0.7315
   45MOL   H13420462   5.522   5.157   5.616  0.6752 -0.0836  0.1100
   45MOL   H13520463   5.494   5.026   5.509 -0.4547  0.3048 -0.1629
   45MOL   H13620464   5.186   5.370   5.533  0.1748 -0.9178  0.0400
   45MOL   H13720465   4.997   5.494   5.473 -2.0537  0.4203 -1.0386
   45MOL   H13820466   4.902   5.214   5.148  1.3435  1.3317 -2.0532
   45MOL   H13920467   5.111   5.099   5.203  1.2362  0.2473  0.7196
   45MOL   O14020468   4.656   5.497   5.095  0.4806 -0.4728  0.1711
   45MOL   C14120469   4.700   5.608   5.008 -0.6773 -0.4570 -0.4330
   45MOL   C14220470   4.589   5.686   4.945  0.5022 -0.5254 -0.5997
   45MOL   O14320471   4.619   5.830   4.915  0.7614  1.2035  0.1352
   45MOL   C14420472   4.645   5.868   4.795  0.3000  0.6795 -0.0413
   45MOL   O14520473   4.674   5.796   4.704 -0.1770  0.1940 -0.4048
   45MOL   C14620474   4.647   6.020   4.779 -0.3140 -0.2559  0.0281
   45MOL   C14720475   4.667   6.077   4.655 -0.4737 -0.0619  0.1853
   45MOL   C14820476   4.655   6.212   4.631 -0.4229 -0.0799  0.4419
   45MOL   C14920477   4.629   6.297   4.738  0.0655  0.5815  0.3096
   45MOL   C15020478   4.612   6.442   4.717 -0.0291  0.1163  0.3348
   45MOL   O15120479   4.640   6.527   4.804  0.0889  0.5452  0.0956
   45MOL   O15220480   4.582   6.478   4.587 -0.2558  0.2030 -0.4361
   45MOL   C15320481   4.618   6.248   4.872 -0.6742 -0.2337 -1.4069
   45MOL   C15420482   4.617   6.104   4.890  0.5174 -0.3743 -0.1630
   45MOL   H15520483   4.761   5.677   5.067 -0.3372  0.7552 -2.1402
   45MOL   H15620484   4.768   5.567   4.933 -1.0962 -0.1529 -0.9915
   45MOL   H15720485   4.505   5.688   5.014  1.7599 -2.0606  1.0252
   45MOL   H15820486   4.547   5.643   4.854 -0.2762 -2.0938  0.4903
   45MOL   H15920487   4.686   6.007   4.575 -0.6666 -1.0560  1.0062
   45MOL   H16020488   4.668   6.247   4.530  2.6722  0.2273  0.8802
   45MOL   H16120489   4.604   6.312   4.957  2.2566 -2.7341  1.0615
   45MOL   H16220490   4.591   6.065   4.988 -1.0697  0.8149 -0.0795
   45MOL   O16320491   4.591   6.628   4.548  0.7374 -0.2770  0.2488
   45MOL   C16420492   4.697   6.657   4.457 -0.0753 -0.0557 -0.2889
   45MOL   C16520493   4.669   6.578   4.323 -0.3130 -0.0292  0.5457
   45MOL   O16620494   4.756   6.626   4.221  0.4095 -0.7909  0.3825
   45MOL   C16720495   4.723   6.721   4.140 -0.5382  0.2379 -0.1698
   45MOL   O16820496   4.611   6.771   4.135  0.0902  0.2739 -0.4969
   45MOL   C16920497   4.834   6.759   4.048 -0.0331 -0.2947  0.5809
   45MOL   C17020498   4.837   6.881   3.977 -0.0872  0.0682 -0.3275
   45MOL   C17120499   4.947   6.918   3.893  0.3449  0.2585  0.0082
   45MOL   C17220500   5.058   6.832   3.878  0.3565  0.6415 -0.3925
   45MOL   C17320501   5.176   6.872   3.799 -1.0872  0.3834  0.4963
   45MOL   O17420502   5.252   6.796   3.737 -0.6461  0.3173 -0.4715
   45MOL   O17520503   5.194   7.006   3.798  0.4602 -0.0282 -0.0989
   45MOL   C17620504   5.058   6.710   3.951 -0.4601 -0.3569  0.1568
   45MOL   C17720505   4.946   6.681   4.037 -0.1244  0.1398  0.5431
   45MOL   H17820506   4.702   6.764   4.439 -0.6633 -0.0217 -0.2451
   45MOL   H17920507   4.793   6.624   4.497 -0.3781  0.2250  0.6619
   45MOL   H18020508   4.565   6.601   4.301  0.0583  0.6711 -0.5605
   45MOL   H18120509   4.680   6.471   4.340 -0.1713  0.4361  3.5955
   45MOL   H18220510   4.758   6.954   3.984 -0.8345 -0.7944  0.3159
   45MOL   H18320511   4.936   6.998   3.822 -1.2485  0.5135  0.5227
   45MOL   H18420512   5.144   6.645   3.947  0.0442  0.2786  0.5330
   45MOL   H18520513   4.949   6.591   4.097 -1.3224  1.1019  2.0730
   45MOL   O18620514   5.304   7.049   3.705 -0.0624  0.7480  0.6004
   45MOL   C18720515   5.420   7.069   3.791  0.8074  0.2004  0.2245
   45MOL   C18820516   5.551   7.095   3.712 -0.1212 -0.9454  0.3933
   45MOL   O18920517   5.657   7.063   3.799 -0.0509 -0.6977 -0.1346
   45MOL   C19020518   5.786   7.107   3.772 -0.6684 -0.3248  0.3697
   45MOL   O19120519   5.815   7.192   3.685  0.0348 -0.3317  0.2547
   45MOL   C19220520   5.889   7.063   3.866  0.1972 -0.6537 -0.1010
   45MOL   C19320521   5.866   7.032   4.000  0.0638  0.2103  0.4659
   45MOL   C19420522   5.968   6.983   4.084  0.2639 -0.0320  0.0666
   45MOL   C19520523   6.096   6.972   4.030 -0.1327  0.7916  0.4453
   45MOL   C19620524   6.209   6.939   4.117  0.0380  1.1462 -0.8382
   45MOL   O19720525   6.204   6.940   4.239  0.1429 -0.2520 -0.7933
   45MOL   O19820526   6.327   6.910   4.048  0.3450  0.3961 -0.4959
   45MOL   C19920527   6.119   6.995   3.896 -0.0941 -1.2233  0.1155
   45MOL   C20020528   6.020   7.044   3.815  0.7865  0.7387 -0.2740
   45MOL   H20120529   5.400   7.154   3.856 -1.0968  3.0401 -3.8596
   45MOL   H20220530   5.428   6.983   3.857  0.9403  1.9151  2.5226
   45MOL   H20320531   5.540   7.195   3.669  0.6231 -0.5600  1.0785
   45MOL   H20420532   5.564   7.023   3.631  0.6234 -0.1073 -0.2415
   45MOL   H20520533   5.762   7.046   4.026 -0.4247  1.3500 -1.8730
   45MOL   H20620534   5.942   6.957   4.185 -1.4441 -2.1488 -0.8779
   45MOL   H20720535   6.218   6.993   3.854  0.2435  1.9922  0.6398
   45MOL   H20820536   6.039   7.059   3.710 -1.1036 -2.8123 -1.1974
   45MOL   O20920537   6.448   6.877   4.135 -0.1116 -0.8300 -0.2482
   45MOL   C21020538   6.521   6.987   4.158 -0.3275  0.0025 -0.4840
   45MOL   C21120539   6.570   7.068   4.040  0.0098  0.3347  0.5313
   45MOL   O21220540   6.474   7.167   4.016  0.2724 -0.6759  0.1632
   45MOL   C21320541   6.511   7.281   3.950 -0.5223  0.5850 -0.3634
   45MOL   O21420542   6.612   7.289   3.877  0.4732 -0.1415  0.3506
   45MOL   C21520543   6.425   7.393   3.968  0.2290 -0.4822 -0.7157
   45MOL   C21620544   6.432   7.495   3.876  0.8884 -0.4570  0.0120
   45MOL   C21720545   6.359   7.613   3.892 -0.4163 -1.0255  0.0073
   45MOL   C21820546   6.267   7.629   3.993 -0.2618  0.4561 -0.6576
   45MOL   C21920547   6.194   7.760   4.011  0.0398  0.2492  0.2867
   45MOL   O22020548   6.200   7.854   3.933  0.0902  0.1430  0.1212
   45MOL   O22120549   6.127   7.772   4.131  0.2077  0.2162 -0.2445
   45MOL   C22220550   6.242   7.519   4.077  0.2348  0.1810 -0.0407
   45MOL   C22320551   6.325   7.408   4.066  0.2193 -0.4655  0.2011
   45MOL   H22420552   6.467   7.054   4.225 -2.6479 -1.7326 -0.5965
   45MOL   H22520553   6.604   6.955   4.221 -0.2489 -2.4739 -1.7814
   45MOL   H22620554   6.589   7.010   3.950  0.7162  0.7516  0.4077
   45MOL   H22720555   6.664   7.107   4.079  0.2672  0.4285 -0.1942
   45MOL   H22820556   6.501   7.491   3.793 -1.7194 -1.7335 -2.1493
   45MOL   H22920557   6.375   7.694   3.823 -1.5568 -0.4913  0.3610
   45MOL   H23020558   6.169   7.514   4.157  0.5357  0.0210  0.2236
   45MOL   H23120559   6.311   7.332   4.142 -2.3582  0.0176  0.2773
   45MOL   O23220560   6.037   7.893   4.144 -0.7313 -0.2175  0.0287
   45MOL   C23320561   6.104   7.998   4.195  0.4382  0.6904 -0.3827
   45MOL   C23420562   6.026   8.113   4.250 -0.5598 -0.3365  0.0267
   45MOL   O23520563   5.937   8.078   4.359  0.3089  0.5579  0.1022
   45MOL   C23620564   5.932   8.155   4.471  0.5792 -0.6739 -0.1793
   45MOL   O23720565   6.000   8.254   4.497  0.0121  0.3560 -0.4247
   45MOL   C23820566   5.828   8.117   4.567  0.1823 -0.3589  0.4615
   45MOL   C23920567   5.758   7.997   4.548 -0.8479  0.1494 -0.5662
   45MOL   C24020568   5.665   7.959   4.644 -0.2599  0.0435  0.0024
   45MOL   C24120569   5.647   8.034   4.759 -0.0234  0.5440  0.1611
   45MOL   C24220570   5.557   7.977   4.866  0.8419  0.0798  0.5011
   45MOL   O24320571   5.514   7.860   4.869 -0.2542  0.0059 -0.4199
   45MOL   O24420572   5.521   8.070   4.955  0.1362 -0.4793 -0.6672
   45MOL   C24520573   5.715   8.154   4.784  0.5049 -0.6301  0.4491
   45MOL   C24620574   5.811   8.198   4.684 -0.3909 -0.0227 -0.6666
   45MOL   H24720575   6.176   7.954   4.264  0.2936  1.5265  0.3092
   45MOL   H24820576   6.162   8.038   4.111  1.5030  0.0295  0.0152
   45MOL   H24920577   5.961   8.144   4.168  1.0722 -1.6832 -1.8109
   45MOL   H25020578   6.086   8.199   4.279 -1.2391 -0.2242  1.1366
   45MOL   H25120579   5.779   7.929   4.467 -0.5552 -0.2540 -0.1549
   45MOL   H25220580   5.622   7.862   4.625 -1.0596  0.3998 -0.0256
   45MOL   H25320581   5.709   8.212   4.875  1.8120 -1.3498  1.0054
   45MOL   H25420582   5.871   0.011   4.699 -1.6382  0.6430  0.4400
   45MOL   O25520583   5.423   8.026   5.052 -0.1564  0.2590 -0.5817
   45MOL   C25620584   5.299   8.078   5.013 -0.4923 -0.0312  0.2940
   45MOL   C25720585   5.258   8.188   5.113 -0.8264 -0.1386 -0.8635
   45MOL   O25820586   5.358   8.271   5.177  0.1850 -0.2131  0.2621
   45MOL   C25920587   5.412   0.089   5.104  0.3112  0.6387  0.3227
   45MOL   O26020588   5.395   0.098   4.977  0.1046 -0.1660 -0.8952
   45MOL   C26120589   5.491   0.180   5.187  0.1412  0.0046 -0.0666
   45MOL   C26220590   5.515   0.143   5.326  0.0001 -0.7242  0.3978
   45MOL   C26320591   5.592   0.233   5.403  1.1565 -0.8853  0.4288
   45MOL   C26420592   5.647   0.349   5.346 -0.5605 -0.6915  0.2601
   45MOL   C26520593   5.745   0.426   5.425  0.5917 -0.3083  0.0431
   45MOL   O26620594   5.736   0.437   5.548 -0.5357  0.2735  0.2255
   45MOL   O26720595   5.838   0.490   5.359 -0.7029 -0.0995 -0.3853
   45MOL   C26820596   5.622   0.384   5.208 -0.3943 -0.2397 -1.0430
   45MOL   C26920597   5.541   0.302   5.131 -0.9710 -0.2663  0.4605
   45MOL   H27020598   5.300   8.127   4.916 -1.4058 -1.0597 -0.2477
   45MOL   H27120599   5.234   7.990   5.012 -0.0232 -0.3890  0.7727
   45MOL   H27220600   5.214   8.136   5.198  1.3373  0.3569  0.5721
   45MOL   H27320601   5.181   8.251   5.069 -1.4195  0.6820  1.3067
   45MOL   H27420602   5.468   0.056   5.367  1.0001 -0.5271  2.0024
   45MOL   H27520603   5.608   0.212   5.508 -1.6753 -2.0228  0.6647
   45MOL   H27620604   5.662   0.475   5.165  2.2390 -0.7465  0.2091
   45MOL   H27720605   5.505   0.325   5.031  0.0752  0.0012  0.1404
   45MOL   O27820606   5.941   0.557   5.451  0.4338  0.2040 -0.6683
   45MOL   C27920607   6.064   0.515   5.407  0.0059  0.3451 -0.1733
   45MOL   C28020608   6.172   0.594   5.485  0.6152  0.2841  0.4183
   45MOL   O28120609   6.219   0.703   5.403 -0.0274 -0.0593  0.2787
   45MOL   C28220610   6.342   0.765   5.434  0.3339  0.6143 -0.1343
   45MOL   O28320611   6.410   0.718   5.528  0.6401 -0.0710 -0.3783
   45MOL   C28420612   6.371   0.885   5.352  0.3148  0.6447  0.3777
   45MOL   C28520613   6.278   0.933   5.263 -0.0379 -0.7050  0.6908
   45MOL   C28620614   6.310   1.039   5.180 -0.0987  0.0716  0.1671
   45MOL   C28720615   6.433   1.110   5.193  0.2871 -0.5238  0.2619
   45MOL   C28820616   6.458   1.225   5.105  0.7479 -0.6031  0.5065
   45MOL   O28920617   6.391   1.251   5.000  0.2056 -0.1165  0.4435
   45MOL   O29020618   6.573   1.299   5.134  0.2089  0.0840  0.3644
   45MOL   C29120619   6.526   1.065   5.289  0.2827  0.1993  0.2606
   45MOL   C29220620   6.496   0.954   5.371  0.1573 -0.2245  0.0647
   45MOL   H29320621   6.082   0.408   5.425  2.6541  0.9021  0.7511
   45MOL   H29420622   6.064   0.528   5.298 -0.7060 -1.9823 -0.4863
   45MOL   H29520623   6.251   0.520   5.499  0.2627 -0.1296  0.2413
   45MOL   H29620624   6.140   0.631   5.582  0.1680 -0.1634  0.4423
   45MOL   H29720625   6.188   0.877   5.242  0.1493 -0.4339 -0.8749
   45MOL   H29820626   6.231   1.070   5.113 -0.5239  0.5495  0.8756
   45MOL   H29920627   6.623   1.112   5.292 -0.5550  1.9848  0.1083
   45MOL   H30020628   6.573   0.924   5.441  0.0117 -0.7069  0.0195
   45MOL   O30120629   6.602   1.403   5.017  0.5093 -0.0502  0.1432
   45MOL   C30220630   6.569   1.541   5.059  0.2832  0.3529  0.6266
   45MOL   C30320631   6.702   1.603   5.102 -0.6305  0.0003 -0.5357
   45MOL   O30420632   6.713   1.571   5.243  0.0912 -0.3703  0.1121
   45MOL   C30520633   6.835   1.586   5.300  0.4919 -0.2813  0.1631
   45MOL   O30620634   6.924   1.646   5.238  0.6660 -0.0749 -0.3163
   45MOL   C30720635   6.849   1.560   5.448  0.0913  0.7782  0.0311
   45MOL   C30820636   6.757   1.470   5.512 -0.4198 -0.5809  0.0749
   45MOL   C30920637   6.777   1.425   5.647  0.4778 -0.2748 -0.0875
   45MOL   C31020638   6.898   1.454   5.719 -0.1324 -0.2534  0.2183
   45MOL   C31120639   6.935   1.400   5.850  0.0242 -0.0760 -0.0895
   45MOL   O31220640   7.050   1.409   5.893  0.3180  0.0117  0.2577
   45MOL   O31320641   6.832   1.335   5.907 -0.1239  0.0210 -0.7022
   45MOL   C31420642   6.983   1.548   5.654  0.3843 -0.7333  0.2391
   45MOL   C31520643   6.959   1.602   5.527 -0.0706 -0.7733  0.4157
   45MOL   H31620644   6.523   1.595   4.976  0.2578 -0.9185 -0.1916
   45MOL   H31720645   6.491   1.549   5.135  0.6401 -0.9065  1.1215
   45MOL   H31820646   6.704   1.709   5.080  0.0829  0.1339  0.1539
   45MOL   H31920647   6.783   1.558   5.045 -2.2278 -0.3701 -2.5546
   45MOL   H32020648   6.677   1.430   5.451 -0.6733  0.5843 -0.3639
   45MOL   H32120649   6.712   1.349   5.688  2.0904 -0.9461  1.2398
   45MOL   H32220650   7.074   1.585   5.698  1.3441 -0.3662 -1.9649
   45MOL   H32320651   7.036   1.667   5.490 -0.7983  0.6861  1.3875
   45MOL   O32420652   6.872   1.266   6.030  0.3515 -0.1587 -0.3665
   45MOL   C32520653   6.832   1.341   6.143  0.2692  0.2667  0.6173
   45MOL   C32620654   6.687   1.342   6.179 -0.3538 -0.2331 -0.0203
   45MOL   O32720655   6.639   1.206   6.213  0.3050 -0.1155 -0.4593
   45MOL   C32820656   6.501   1.187   6.198 -0.4717 -0.3697  0.0519
   45MOL   O32920657   6.427   1.278   6.168  0.1481  0.3076  0.0476
   45MOL   C33020658   6.449   1.049   6.225 -0.4977  0.4956  0.1099
   45MOL   C33120659   6.533   0.951   6.283  0.3427  0.6708 -0.0491
   45MOL   C33220660   6.480   0.820   6.317  0.2569 -0.5543  0.0751
   45MOL   C33320661   6.346   0.796   6.300 -0.0686 -0.5120 -0.5327
   45MOL   C33420662   6.294   0.658   6.319  0.1258  0.5068 -0.0091
   45MOL   O33520663   6.370   0.564   6.343 -0.2969  0.2851  0.3680
   45MOL   O33620664   6.159   0.647   6.306 -0.2755 -0.2829 -0.1613
   45MOL   C33720665   6.262   0.894   6.248 -0.0802  0.2137  0.6482
   45MOL   C33820666   6.313   1.016   6.202 -0.6721  0.2500  0.8274
   45MOL   H33920667   6.885   1.296   6.227  2.4175 -1.0509 -1.3689
   45MOL   H34020668   6.867   1.444   6.132  1.4835 -0.4273 -2.6715
   45MOL   H34120669   6.633   1.373   6.089 -0.0268 -1.4820 -0.6720
   45MOL   H34220670   6.663   1.408   6.261 -1.6268 -0.2185 -0.3958
   45MOL   H34320671   6.635   0.971   6.313 -0.3430 -1.3890  3.8860
   45MOL   H34420672   6.545   0.750   6.366  1.1273  0.4266  0.3478
   45MOL   H34520673   6.158   0.872   6.233  0.3827 -0.3331 -1.9292
   45MOL   H34620674   6.250   1.093   6.161 -0.0959 -0.4640 -1.4893
   45MOL   O34720675   6.110   0.506   6.300 -0.2795  0.4860 -0.0603
   45MOL   C34820676   6.097   0.471   6.168  0.4596  0.4045 -0.8923
   45MOL   C34920677   6.111   0.320   6.151 -0.4705  0.2414 -0.6345
   45MOL   O35020678   6.010   0.244   6.208 -1.0271  0.0701 -0.0015
   45MOL   C35120679   5.950   0.147   6.143  0.7274  0.3112 -0.2283
   45MOL   O35220680   5.985   0.114   6.029 -0.2734  0.0436  0.2197
   45MOL   C35320681   5.848   0.079   6.228 -0.1078 -0.4317  0.5367
   45MOL   C35420682   5.799   0.121   6.354  0.4300 -0.1127  0.9156
   45MOL   C35520683   5.691   0.062   6.418 -0.2302  0.7350 -0.2237
   45MOL   C35620684   5.618   8.232   6.351 -0.3343 -0.2778 -0.4104
   45MOL   C35720685   5.495   8.179   6.404 -0.4974 -0.1078  0.0075
   45MOL   O35820686   5.447   8.222   6.511  0.3981 -0.2371  0.1689
   45MOL   O35920687   5.437   8.085   6.332 -0.9499  0.1927  0.0652
   45MOL   C36020688   5.669   8.181   6.227  0.1119  1.0490 -0.2692
   45MOL   C36120689   5.779   8.243   6.165 -0.3558 -0.5352  0.1647
   45MOL   H36220690   6.004   0.509   6.125 -0.6801 -0.8625  0.3987
   45MOL   H36320691   6.181   0.517   6.115  1.5805 -0.2992  0.2565
   45MOL   H36420692   6.209   0.301   6.193 -0.8272  1.2018  0.6859
   45MOL   H36520693   6.119   0.305   6.043  1.2260 -0.1936 -0.4553
   45MOL   H36620694   5.858   0.204   6.389  1.4716  0.2831 -1.6390
   45MOL   H36720695   5.655   0.100   6.512 -0.7153 -1.8116  0.6802
   45MOL   H36820696   5.616   8.104   6.172  0.4427  0.6946 -0.0955
   45MOL   H36920697   5.819   8.213   6.069  3.4815  0.5125  1.3366
   45MOL   O37020698   5.295   8.062   6.355 -1.5930  0.0790  0.4001
   45MOL   C37120699   5.232   8.076   6.230  0.0483  0.3074 -0.8221
   45MOL   C37220700   5.161   8.214   6.207 -0.1531  0.4364  0.3455
   45MOL   O37320701   5.255   0.047   6.223 -0.4148  0.1770 -0.4579
   45MOL   C37420702   5.339   0.085   6.119  0.2407 -0.1476  0.3224
   45MOL   O37520703   5.325   0.031   6.012 -0.1449  0.5013  0.4666
   45MOL   C37620704   5.429   0.194   6.153  0.3001  0.4016 -0.5737
   45MOL   C37720705   5.529   0.242   6.063  0.0180  0.4774  0.3805
   45MOL   C37820706   5.616   0.345   6.096 -0.5402  0.4019  0.3092
   45MOL   C37920707   5.604   0.408   6.222  0.0293 -0.0209 -0.0927
   45MOL   C38020708   5.694   0.514   6.246  0.0723  0.1946  0.3343
   45MOL   O38120709   5.763   0.573   6.155  0.2196  0.0260  0.0393
   45MOL   O38220710   5.710   0.541   6.377  0.8285  0.0673  0.2883
   45MOL   C38320711   5.506   0.360   6.312 -0.4229 -0.0048 -0.1416
   45MOL   C38420712   5.425   0.249   6.282 -0.5926 -0.3520 -0.2509
   45MOL   H38520713   5.307   8.042   6.159  1.2930 -0.3970  0.7992
   45MOL   H38620714   5.154   8.001   6.243  1.5498 -0.8020  2.0774
   45MOL   H38720715   5.082   8.237   6.279 -1.5883 -3.3480  0.1145
   45MOL   H38820716   5.110   8.218   6.111 -0.8844 -1.1842  0.6438
   45MOL   H38920717   5.537   0.200   5.964  0.6176 -0.4153  0.8048
   45MOL   H39020718   5.687   0.390   6.028  0.3825  0.9220  1.6058
   45MOL   H39120719   5.502   0.405   6.410  1.0164  3.5258 -1.5836
   45MOL   H39220720   5.364   0.198   6.355  0.4325 -0.3710  0.6111
   45MOL   O39320721   5.784   0.671   6.405  0.0566  0.2716  0.1014
   45MOL   C39420722   5.697   0.782   6.420  0.8533  0.0426 -0.1564
   45MOL   C39520723   5.577   0.761   6.513 -0.7685 -0.1657 -0.3964
   45MOL   O39620724   5.604   0.797   6.648  0.3139 -0.2296 -0.0157
   45MOL   C39720725   5.694   0.738   6.727 -0.4805  0.2694 -0.3960
   45MOL   O39820726   5.769   0.648   6.688  0.1352  0.0444 -0.6902
   45MOL   C39920727   5.702   0.790   6.865 -0.0070  0.5679 -0.1431
   45MOL   C40020728   5.601   0.867   6.929 -0.2725 -0.3067 -0.6265
   45MOL   C40120729   5.608   0.899   7.067  0.7813  0.3017 -1.0950
   45MOL   C40220730   5.724   0.862   7.136  0.1300  0.6113  0.0738
   45MOL   C40320731   5.749   0.890   7.277  0.9568 -0.4287 -0.5590
   45MOL   O40420732   5.660   0.936   7.349  0.1252 -0.1275 -0.2780
   45MOL   O40520733   5.872   0.878   7.319 -0.0289  0.2877 -0.0270
   45MOL   C40620734   5.824   0.783   7.081 -0.7895  0.0595  0.0290
   45MOL   C40720735   5.814   0.751   6.947  0.7120 -0.2010 -0.1238
   45MOL   H40820736   5.763   0.860   6.458  0.1623 -0.0109  1.1869
   45MOL   H40920737   5.669   0.806   6.317 -2.2721 -1.7436  0.2120
   45MOL   H41020738   5.533   0.661   6.506 -1.8794  0.3589 -1.0068
   45MOL   H41120739   5.494   0.825   6.486 -0.5610  0.9703  1.5504
   45MOL   H41220740   5.521   0.903   6.867  1.7225  1.0636 -2.4929
   45MOL   H41320741   5.531   0.963   7.107  0.6472 -1.1755  1.0938
   45MOL   H41420742   5.909   0.741   7.132 -0.0478 -0.9812 -1.9929
   45MOL   H41520743   5.893   0.686   6.912  0.6315 -1.8629  2.6570
   45MOL   O41620744   5.908   0.949   7.447  0.0095  0.4437  0.3729
   45MOL   C41720745   5.994   1.058   7.420 -0.3144 -0.1346  0.6774
   45MOL   C41820746   6.144   1.025   7.435  0.4220 -0.3591  0.1659
   45MOL   O41920747   6.175   1.029   7.575 -0.4430  0.1373 -0.1970
   45MOL   C42020748   6.303   1.017   7.615  0.0264 -0.0047  0.3541
   45MOL   O42120749   6.400   0.999   7.541 -0.2568 -0.4121 -0.0103
   45MOL   C42220750   6.316   1.035   7.766 -0.7828 -0.3681  0.1181
   45MOL   C42320751   6.443   1.024   7.822 -0.3899  0.0215  0.5286
   45MOL   C42420752   6.463   1.039   7.961  0.2403  0.1288 -0.4350
   45MOL   C42520753   6.348   1.039   8.046  0.0252 -1.2692  0.3717
   45MOL   C42620754   6.364   1.028   8.188 -0.4516 -0.7393 -0.1231
   45MOL   O42720755   6.286   1.071   8.270 -0.6086 -0.1964  0.3073
   45MOL   O42820756   6.477   0.958   8.231 -0.1622 -0.1035  0.1871
   45MOL   C42920757   6.221   1.046   7.988 -0.0512  0.8947 -0.3543
   45MOL   C43020758   6.206   1.049   7.852 -0.0296 -0.7343  0.0500
   45MOL   H43120759   5.983   1.105   7.322 -0.1112  1.2752  1.3157
   45MOL   H43220760   5.973   1.143   7.485  1.0412 -0.0541  1.0062
   45MOL   H43320761   6.203   1.104   7.389  1.5380 -0.1843  1.8924
   45MOL   H43420762   6.173   0.933   7.383  0.7373  0.4485 -1.1004
   45MOL   H43520763   6.530   1.012   7.760 -0.9187  4.5956 -1.2834
   45MOL   H43620764   6.564   1.036   7.999 -0.9247 -2.2454  2.6722
   45MOL   H43720765   6.125   1.057   8.035 -0.2982  2.8456 -1.2562
   45MOL   H43820766   6.105   1.062   7.818  0.1410  1.7326  0.3869
   45MOL   O43920767   6.486   0.937   0.107 -0.5263 -0.1829 -0.0396
   45MOL   C44020768   6.556   1.042   0.170  0.1815  0.1380  0.0140
   45MOL   C44120769   6.599   0.996   0.309 -0.4230  0.4190  0.0808
   45MOL   O44220770   6.692   0.893   0.300  0.1630 -0.0692 -0.8815
   45MOL   C44320771   6.814   0.905   0.370  0.7927 -0.1704 -0.1076
   45MOL   O44420772   6.830   0.970   0.474  0.0143 -0.1183 -0.1780
   45MOL   C44520773   6.902   0.800   0.317  0.1309 -0.2299  0.2379
   45MOL   C44620774   7.037   0.808   0.343 -0.6311  0.2524  0.4553
   45MOL   C44720775   7.122   0.716   0.280 -0.2914  0.5637  0.2622
   45MOL   C44820776   7.070   0.608   0.199  0.3608  0.7897  0.0421
   45MOL   C44920777   7.168   0.519   0.127 -0.0118 -0.5555 -1.2195
   45MOL   O45020778   7.127   0.440   0.039 -0.5271 -0.5837  0.2343
   45MOL   O45120779   7.294   0.523   0.177  0.0387  0.2006 -0.5247
   45MOL   C45220780   6.934   0.592   0.182  0.5089  0.4773  0.2618
   45MOL   C45320781   6.849   0.688   0.246 -0.4757  0.3484  0.4481
   45MOL   H45420782   6.641   1.069   0.107 -1.1723  1.8336 -1.1157
   45MOL   H45520783   6.490   1.128   0.163 -0.2761  0.0996  3.0903
   45MOL   H45620784   6.512   0.962   0.365 -0.3309 -3.1831 -1.7695
   45MOL   H45720785   6.627   1.085   0.364  0.5727  1.7477 -2.4842
   45MOL   H45820786   7.086   0.870   0.416  0.4997 -0.3683  0.2374
   45MOL   H45920787   7.228   0.731   0.293 -0.3103  1.0752 -0.1669
   45MOL   H46020788   6.887   0.509   0.132  1.2181  1.5131 -2.1982
   45MOL   H46120789   6.743   0.674   0.232 -0.2951 -0.2221 -0.4047
   45MOL   H46220790   7.340   0.454   0.132 -2.3258 -1.4307 -0.5125
   46MOL     O120791   1.786   0.448   0.274  0.5030 -0.0550 -0.0533
   46MOL     C220792   1.708   0.512   0.371  0.4753 -0.4319 -0.1015
   46MOL     C320793   1.679   0.418   0.497  0.0194  0.1596 -0.0206
   46MOL     O420794   1.627   0.501   0.600  0.3973 -0.1782  0.2500
   46MOL     C520795   1.569   0.451   0.711 -0.1032 -0.5188  0.0723
   46MOL     O620796   1.568   0.328   0.731 -0.1631 -0.3601 -0.5531
   46MOL     C720797   1.513   0.554   0.798 -0.0107 -0.2695  0.9067
   46MOL     C820798   1.483   0.522   0.933 -0.4160 -0.5102 -0.3769
   46MOL     C920799   1.449   0.625   1.020 -0.0351  0.7567 -0.1839
   46MOL    C1020800   1.425   0.753   0.979 -0.2082 -0.8227  0.4488
   46MOL    C1120801   1.394   0.854   1.079 -0.4692 -0.4887 -0.1842
   46MOL    O1220802   1.331   0.953   1.052  0.5080 -0.1972  0.3558
   46MOL    O1320803   1.455   0.824   1.195 -0.1931 -0.0862 -0.3631
   46MOL    C1420804   1.448   0.782   0.846  0.5280  0.2299  0.0776
   46MOL    C1520805   1.506   0.689   0.758  0.4531  0.1421 -0.0767
   46MOL    H1620806   1.758   0.600   0.410  0.0478  0.5885 -1.8005
   46MOL    H1720807   1.610   0.542   0.332  1.2374 -0.7676 -2.3857
   46MOL    H1820808   1.776   0.377   0.525 -0.2772 -0.6859 -0.2196
   46MOL    H1920809   1.613   0.337   0.468  1.5006 -1.6275  1.4606
   46MOL    H2020810   1.501   0.429   0.985 -1.2765 -1.5961 -1.9519
   46MOL    H2120811   1.439   0.587   1.121  1.7640 -0.9992 -0.6344
   46MOL    H2220812   1.437   0.885   0.814 -0.8537  0.4577  1.2248
   46MOL    H2320813   1.537   0.732   0.664 -2.1109  1.3696 -0.4079
   46MOL    H2420814   1.790   0.492   0.190  0.1498 -1.3571 -0.7694
   46MOL    O2520815   1.454   0.929   1.310  0.1651 -0.4740  0.4928
   46MOL    C2620816   1.368   0.876   1.404 -0.0523  0.1641 -0.1967
   46MOL    C2720817   1.440   0.772   1.489  0.0580 -0.4535  0.3750
   46MOL    O2820818   1.423   0.646   1.431 -0.0186 -0.0302 -0.0460
   46MOL    C2920819   1.323   0.574   1.480  0.6372  0.0099 -0.4958
   46MOL    O3020820   1.226   0.618   1.542  0.1066  0.7629  0.1412
   46MOL    C3120821   1.329   0.431   1.452  0.3456  0.0997  0.3003
   46MOL    C3220822   1.444   0.370   1.393  0.0415  0.1205  0.0375
   46MOL    C3320823   1.455   0.231   1.391 -0.2822 -0.0640 -0.5122
   46MOL    C3420824   1.350   0.145   1.426  0.0780 -0.3814  0.3832
   46MOL    C3520825   1.362   8.272   1.417 -0.3464 -0.3416  0.8217
   46MOL    O3620826   1.471   8.214   1.389  0.1448 -0.6688  0.2240
   46MOL    O3720827   1.241   8.209   1.413 -0.1178  0.5038 -0.0088
   46MOL    C3820828   1.234   0.201   1.482  0.0529  0.4714  0.2281
   46MOL    C3920829   1.223   0.343   1.499  0.1664 -0.5290 -0.3310
   46MOL    H4020830   1.340   0.966   1.459  1.3637 -0.7666  2.0917
   46MOL    H4120831   1.282   0.829   1.357  0.4207  0.6939 -1.6305
   46MOL    H4220832   1.407   0.770   1.593 -0.9893  1.1847  0.0954
   46MOL    H4320833   1.545   0.798   1.494  0.4560 -1.4920 -2.0407
   46MOL    H4420834   1.525   0.431   1.355  0.3566 -1.3377 -1.6700
   46MOL    H4520835   1.538   0.179   1.346 -1.5812 -2.5974 -0.1115
   46MOL    H4620836   1.155   0.136   1.515 -0.0144  0.2036 -0.4595
   46MOL    H4720837   1.133   0.386   1.539  0.4894 -0.3815  0.2451
   46MOL    O4820838   1.249   8.062   1.405  0.5435  0.6943  0.2922
   46MOL    C4920839   1.258   8.003   1.525  0.9081  0.1337  0.0566
   46MOL    C5020840   1.316   7.867   1.485  0.0562  0.8038  0.5560
   46MOL    O5120841   1.443   7.876   1.425  0.0650  0.2889  0.0980
   46MOL    C5220842   1.560   7.881   1.486  0.7366  0.2833  0.1043
   46MOL    O5320843   1.569   7.885   1.607  0.1281 -0.0005 -0.1090
   46MOL    C5420844   1.669   7.910   1.397 -1.0566 -0.0003  0.3638
   46MOL    C5520845   1.652   7.901   1.258  0.1076 -0.1024 -0.0735
   46MOL    C5620846   1.766   7.909   1.174  0.6268 -0.5158  0.5329
   46MOL    C5720847   1.898   7.921   1.223  0.4306 -0.2896 -0.5407
   46MOL    C5820848   2.022   7.901   1.140  0.6421  0.5772 -0.0722
   46MOL    O5920849   2.128   7.871   1.192  0.1229  0.8331 -0.5413
   46MOL    O6020850   2.006   7.904   1.011  0.0601 -0.4066 -0.4132
   46MOL    C6120851   1.913   7.928   1.362 -1.1380 -0.5215 -0.6314
   46MOL    C6220852   1.802   7.920   1.450 -0.0443  0.4516 -0.3076
   46MOL    H6320853   1.326   8.053   1.595 -0.5413 -1.4137  2.6357
   46MOL    H6420854   1.157   7.995   1.565  0.0564  0.8401 -1.9238
   46MOL    H6520855   1.258   7.809   1.413  0.8556  0.4443  0.1855
   46MOL    H6620856   1.331   7.817   1.581 -1.0821  0.2607  0.4584
   46MOL    H6720857   1.560   7.885   1.205  1.2004 -0.2415 -1.9591
   46MOL    H6820858   1.745   7.879   1.073 -0.0203 -0.5619  0.6759
   46MOL    H6920859   2.003   7.924   1.422 -1.4166 -1.6117 -0.2775
   46MOL    H7020860   1.812   7.914   1.558  0.7406 -0.6926 -0.4368
   46MOL    O7120861   2.127   7.883   0.926  0.4012  0.0456  0.1382
   46MOL    C7220862   2.183   8.008   0.889 -0.0067  0.0320  0.9117
   46MOL    C7320863   2.162   8.033   0.742 -0.0916  0.2330  0.6324
   46MOL    O7420864   2.024   8.028   0.725 -0.0569  0.0551  0.6464
   46MOL    C7520865   1.959   7.954   0.628 -0.3904 -0.8268 -0.0246
   46MOL    O7620866   2.014   7.904   0.529  0.1811  0.3765  0.0102
   46MOL    C7720867   1.812   7.969   0.638  0.1151 -0.7170  0.1229
   46MOL    C7820868   1.753   8.009   0.759 -0.4166  0.4482  0.9519
   46MOL    C7920869   1.611   8.005   0.776 -0.2963  0.2767 -0.8440
   46MOL    C8020870   1.525   7.964   0.670 -0.0933  0.3709  0.4706
   46MOL    C8120871   1.378   7.953   0.687  0.5125  0.8739  0.2905
   46MOL    O8220872   1.323   7.961   0.797 -0.3386 -0.4982 -0.2481
   46MOL    O8320873   1.318   7.928   0.574  0.3571 -0.5421 -0.0394
   46MOL    C8420874   1.589   7.922   0.548  0.0784 -0.3270  0.9081
   46MOL    C8520875   1.728   7.920   0.542  0.1409  0.1880  0.1772
   46MOL    H8620876   2.144   8.091   0.949 -1.0959 -0.7917  1.3783
   46MOL    H8720877   2.287   8.001   0.919  0.3980 -1.3811 -0.7740
   46MOL    H8820878   2.209   7.964   0.672  0.2092  0.7218  0.3510
   46MOL    H8920879   2.195   8.135   0.729 -5.8849  2.1810 -0.5639
   46MOL    H9020880   1.817   8.044   0.838  2.5726  1.0466 -1.6716
   46MOL    H9120881   1.573   8.027   0.875  2.4924  0.7058  0.1810
   46MOL    H9220882   1.541   7.883   0.459 -0.4124 -2.2812  1.9830
   46MOL    H9320883   1.769   7.897   0.444  3.2537  2.0111  0.9997
   46MOL    O9420884   1.168   7.932   0.578 -0.0522 -0.7853 -0.6454
   46MOL    C9520885   1.130   7.795   0.560 -0.0770  0.1199 -0.2192
   46MOL    C9620886   0.979   7.807   0.512  0.0251  0.1167 -0.3478
   46MOL    O9720887   0.883   7.832   0.608 -0.2253  0.1253 -0.2883
   46MOL    C9820888   0.773   7.903   0.574  0.8468 -0.1283 -0.0661
   46MOL    O9920889   0.743   7.933   0.459  0.2944 -0.1317  0.2227
   46MOL   C10020890   0.690   7.941   0.689  0.1455 -0.4199 -0.0580
   46MOL   C10120891   0.748   7.974   0.815  0.2421  0.3346  0.6375
   46MOL   C10220892   0.663   8.012   0.917  0.2941  0.3486  0.1328
   46MOL   C10320893   0.523   8.015   0.904 -0.3930  0.5624 -0.5821
   46MOL   C10420894   0.436   8.050   1.016 -0.1995 -0.2025  0.1490
   46MOL   O10520895   0.313   8.047   1.006  0.0243  0.2455 -0.2018
   46MOL   O10620896   0.502   8.088   1.129 -0.0753 -0.3110 -0.3467
   46MOL   C10720897   0.467   7.988   0.778  0.0753  0.5343 -0.0277
   46MOL   C10820898   0.549   7.948   0.671  0.2171 -0.0960 -0.4762
   46MOL   H10920899   1.182   7.744   0.479  0.6146  0.5111 -0.0214
   46MOL   H11020900   1.155   7.740   0.650 -1.5278  1.2261  0.8983
   46MOL   H11120901   0.956   7.707   0.473  2.6727 -0.9480  0.6480
   46MOL   H11220902   0.975   7.865   0.420 -0.5753  0.6349  0.0033
   46MOL   H11320903   0.855   7.976   0.828  0.3235  1.0760 -0.1137
   46MOL   H11420904   0.702   8.037   1.014  0.0656  1.2378 -0.0026
   46MOL   H11520905   0.360   7.989   0.764  0.0382  0.0229  0.2029
   46MOL   H11620906   0.507   7.905   0.582  1.6223  1.4737 -1.9251
   46MOL   O11720907   0.404   8.128   1.238  0.6072  0.2179  0.2599
   46MOL   C11820908   0.368   8.266   1.217 -0.2703 -0.5411 -0.3836
   46MOL   C11920909   0.251   0.040   1.310  0.4788  0.0954 -0.2740
   46MOL   O12020910   0.291   0.048   1.446 -0.4586 -0.2238  0.0179
   46MOL   C12120911   0.350   0.159   1.486  0.9653 -0.0654  0.0686
   46MOL   O12220912   0.363   0.260   1.413  0.5622 -0.2791 -0.2892
   46MOL   C12320913   0.417   0.146   1.617  0.4461 -0.4506  0.2355
   46MOL   C12420914   0.472   0.028   1.664  0.0738 -0.5987 -0.1396
   46MOL   C12520915   0.561   0.028   1.779 -0.0452 -0.2586  0.3588
   46MOL   C12620916   0.576   0.151   1.856 -0.8152 -0.0420  0.1557
   46MOL   C12720917   0.664   0.141   1.982 -0.1644 -0.2531 -0.7005
   46MOL   O12820918   0.702   0.029   2.020 -0.6649  0.1748 -0.1322
   46MOL   O12920919   0.686   0.255   2.063 -0.1841 -0.2994 -0.0729
   46MOL   C13020920   0.499   0.266   1.819  0.7060  0.2646  0.2081
   46MOL   C13120921   0.422   0.262   1.699 -0.4341 -0.0769 -0.3953
   46MOL   H13220922   0.456   0.053   1.234  0.3624 -1.0685 -1.6727
   46MOL   H13320923   0.338   0.020   1.117 -1.6988 -0.4348  0.0688
   46MOL   H13420924   0.170   8.243   1.296  0.1128  0.4120  0.2144
   46MOL   H13520925   0.213   0.139   1.285 -2.1131 -0.1093  2.6474
   46MOL   H13620926   0.463   8.215   1.602 -2.0491 -1.4083  1.2385
   46MOL   H13720927   0.599   8.208   1.813  0.8931  0.3560  1.0805
   46MOL   H13820928   0.495   0.352   1.884 -0.7861  0.1189  0.3221
   46MOL   H13920929   0.375   0.350   1.657 -0.9041  0.1184  0.5141
   46MOL   O14020930   0.766   0.222   2.186 -0.0433 -0.3210 -0.2470
   46MOL   C14120931   0.902   0.254   2.168  0.5390  0.4964  0.5371
   46MOL   C14220932   0.979   0.211   2.285 -0.2333 -0.1247 -0.6428
   46MOL   O14320933   0.977   0.305   2.386  0.4430  0.5764  0.1614
   46MOL   C14420934   0.903   0.279   2.492  1.0659 -0.1325 -0.4888
   46MOL   O14520935   0.845   0.174   2.522 -0.1697 -0.0973 -0.1573
   46MOL   C14620936   0.908   0.395   2.586 -0.0253 -0.0376 -0.0892
   46MOL   C14720937   0.827   0.395   2.700 -0.4514  0.2049 -0.2435
   46MOL   C14820938   0.842   0.499   2.799 -0.4975  0.7156 -0.5097
   46MOL   C14920939   0.914   0.615   2.772  0.3780  0.6551 -0.2172
   46MOL   C15020940   0.911   0.728   2.869 -0.5551 -0.3902 -0.0086
   46MOL   O15120941   0.839   0.726   2.972 -0.2899  0.1478 -0.2391
   46MOL   O15220942   0.991   0.830   2.834 -0.3796 -0.3451 -0.0450
   46MOL   C15320943   0.989   0.616   2.652  0.3737 -0.4090 -0.5074
   46MOL   C15420944   0.997   0.507   2.561  0.0416 -0.4016 -0.5183
   46MOL   H15520945   0.948   0.203   2.083  1.1177 -0.9684  1.7044
   46MOL   H15620946   0.904   0.362   2.154 -0.6736  0.7028  1.8583
   46MOL   H15720947   1.084   0.198   2.260 -0.2358  0.6416 -1.0608
   46MOL   H15820948   0.943   0.111   2.309 -1.6581  0.4129 -0.4939
   46MOL   H15920949   0.759   0.312   2.708 -0.9183  0.7016  0.9596
   46MOL   H16020950   0.792   0.496   2.895  0.8498 -1.3833  0.1708
   46MOL   H16120951   1.043   0.704   2.621 -0.3467  0.8934  1.7939
   46MOL   H16220952   1.056   0.513   2.471  1.9096  0.2760  0.7258
   46MOL   O16320953   1.001   0.930   2.934 -0.3661 -0.7366 -0.2458
   46MOL   C16420954   0.947   1.053   2.878  0.2074 -0.1851 -0.3735
   46MOL   C16520955   0.791   1.064   2.887 -0.3876  0.2802 -1.1023
   46MOL   O16620956   0.781   1.159   2.995 -0.3458  0.1869  0.2681
   46MOL   C16720957   0.765   1.294   2.956 -0.4110  0.4360  0.1162
   46MOL   O16820958   0.778   1.335   2.841 -0.0434 -0.2769 -0.5102
   46MOL   C16920959   0.735   1.382   3.069 -0.6654  0.3820 -0.3811
   46MOL   C17020960   0.789   1.511   3.061 -0.0506  0.4899 -0.1986
   46MOL   C17120961   0.764   1.595   3.172  0.3579  0.3586  0.1756
   46MOL   C17220962   0.690   1.556   3.281 -0.3050 -0.6884  1.0136
   46MOL   C17320963   0.660   1.649   3.397  0.8321 -0.2317 -0.1191
   46MOL   O17420964   0.626   1.610   3.507 -0.3205 -0.0612  0.0287
   46MOL   O17520965   0.648   1.780   3.354 -0.3283 -0.1787  0.3169
   46MOL   C17620966   0.630   1.427   3.287  0.3975  0.1899 -0.7819
   46MOL   C17720967   0.652   1.342   3.174 -0.7603  0.6525  0.7255
   46MOL   H17820968   0.999   1.134   2.930 -1.9530  1.1709 -0.2712
   46MOL   H17920969   0.969   1.069   2.772 -0.7687  3.4212 -0.1097
   46MOL   H18020970   0.756   0.964   2.911 -0.2406  0.5268  0.1801
   46MOL   H18120971   0.757   1.096   2.789  0.9454  1.8008 -1.0928
   46MOL   H18220972   0.858   1.530   2.980  2.1995  0.4705  1.6827
   46MOL   H18320973   0.796   1.698   3.170  0.0786  0.4397 -0.1339
   46MOL   H18420974   0.564   1.395   3.367  1.6411  0.1143  0.2192
   46MOL   H18520975   0.603   1.246   3.176  0.8162 -0.1318  3.0560
   46MOL   O18620976   0.624   1.871   3.467 -0.8177 -0.1094 -0.5196
   46MOL   C18720977   0.742   1.945   3.496 -0.3075  0.8711 -0.4894
   46MOL   C18820978   0.686   2.091   3.531 -0.0427  0.3423  0.4641
   46MOL   O18920979   0.608   2.094   3.646  0.5086  0.4555 -0.4699
   46MOL   C19020980   0.469   2.102   3.637 -0.8328 -0.3649  0.2691
   46MOL   O19120981   0.412   2.073   3.532 -0.1539  0.5231 -0.4302
   46MOL   C19220982   0.404   2.136   3.771  0.0384 -0.6524 -0.3926
   46MOL   C19320983   0.470   2.150   3.897 -0.2423  0.6666 -0.3227
   46MOL   C19420984   0.403   2.199   4.007  0.1997 -0.5807  0.2578
   46MOL   C19520985   0.272   2.246   4.004  0.9518 -0.4256  0.2242
   46MOL   C19620986   0.210   2.309   4.122 -0.3391  0.3930  0.4059
   46MOL   O19720987   0.273   2.347   4.220 -0.2882 -0.0809  0.0695
   46MOL   O19820988   0.081   2.329   4.111  0.2796  0.1168 -0.1171
   46MOL   C19920989   0.201   2.219   3.883 -0.2906  0.2348  0.0784
   46MOL   C20020990   0.264   2.167   3.770  0.7000  0.5904  0.0793
   46MOL   H20120991   0.800   1.899   3.576 -1.3530 -0.1408 -0.3071
   46MOL   H20220992   0.803   1.954   3.406 -1.7217  1.4362 -1.4044
   46MOL   H20320993   0.635   2.130   3.443 -0.8476  1.0046  1.2182
   46MOL   H20420994   0.767   2.163   3.537  2.3671 -2.2383  0.0980
   46MOL   H20520995   0.575   2.126   3.908 -0.2100  0.9357 -0.0610
   46MOL   H20620996   0.454   2.186   4.102  0.0729 -2.1631  0.1294
   46MOL   H20720997   0.106   2.265   3.863 -1.1589 -1.2250  0.7203
   46MOL   H20820998   0.202   2.171   3.681  1.4355  2.3926 -0.3908
   46MOL   O20920999   0.010   2.360   4.242  0.3941 -0.3598  0.3213
   46MOL   C21021000   8.215   2.246   4.284  0.0069  0.3307  0.1209
   46MOL   C21121001   8.086   2.219   4.208  0.1896  0.3396  0.3336
   46MOL   O21221002   8.056   2.083   4.217 -0.0858 -0.2536 -0.0863
   46MOL   C21321003   7.935   2.028   4.188 -0.2648  0.0943  0.0008
   46MOL   O21421004   7.838   2.095   4.152  0.3125  0.2995 -0.4559
   46MOL   C21521005   7.920   1.883   4.214 -0.2018 -0.9822 -0.2478
   46MOL   C21621006   8.031   1.811   4.240 -0.7372  0.0365  0.5898
   46MOL   C21721007   8.024   1.674   4.276  0.1313  0.0980 -0.3803
   46MOL   C21821008   7.900   1.610   4.276 -0.1832  0.6508 -0.2728
   46MOL   C21921009   7.890   1.464   4.298  0.5913 -0.4990  0.0639
   46MOL   O22021010   7.992   1.395   4.327  0.1420 -0.3806  0.0098
   46MOL   O22121011   7.767   1.414   4.280 -0.0010  0.4552  0.1322
   46MOL   C22221012   7.786   1.691   4.256  0.1622  0.5413 -0.4051
   46MOL   C22321013   7.792   1.829   4.228  0.1582  0.2799 -0.2720
   46MOL   H22421014   0.009   2.163   4.274  0.6166  0.6235  1.8373
   46MOL   H22521015   8.205   2.258   4.392  0.7666 -1.3783  0.3964
   46MOL   H22621016   8.107   2.224   4.101 -0.2668  0.4115  0.2471
   46MOL   H22721017   8.000   2.277   4.241  0.8398  0.9902  0.8853
   46MOL   H22821018   8.129   1.853   4.223 -1.6400  1.0919 -2.4158
   46MOL   H22921019   8.116   1.617   4.281  1.3079  2.0729  1.4494
   46MOL   H23021020   7.690   1.642   4.253  0.2462  0.4509 -2.1417
   46MOL   H23121021   7.708   1.896   4.220  1.0172  1.4182  0.0325
   46MOL   O23221022   7.760   1.252   4.286 -0.3995  0.1463 -0.1202
   46MOL   C23321023   7.776   1.198   4.150  0.0570 -0.2121  0.6256
   46MOL   C23421024   7.754   1.043   4.152  0.3135 -0.1962  0.0915
   46MOL   O23521025   7.868   0.965   4.144 -0.3041 -0.0559 -0.4899
   46MOL   C23621026   7.928   0.931   4.030 -0.9345  0.4187 -0.6525
   46MOL   O23721027   7.883   0.967   3.923  0.0620  0.2681 -0.2222
   46MOL   C23821028   8.058   0.851   4.049 -0.4133  0.1112 -0.1495
   46MOL   C23921029   8.145   0.835   3.938  0.2207  0.3742 -0.3424
   46MOL   C24021030   0.000   0.772   3.948  0.0067 -0.2197  0.7561
   46MOL   C24121031   0.041   0.726   4.074  0.3425  0.4832  0.1231
   46MOL   C24221032   0.169   0.648   4.088  0.4597  0.4136  0.6699
   46MOL   O24321033   0.192   0.573   4.181 -0.2190 -0.2858 -0.2185
   46MOL   O24421034   0.253   0.655   3.988 -0.5895 -0.2162  0.1077
   46MOL   C24521035   8.229   0.739   4.184  0.3245  0.2620  0.2125
   46MOL   C24621036   8.099   0.795   4.169 -0.6001 -0.5156 -0.6052
   46MOL   H24721037   7.702   1.249   4.089  0.6078  2.3286  2.0145
   46MOL   H24821038   7.872   1.230   4.108 -0.5684 -1.9997 -2.2882
   46MOL   H24921039   7.685   1.004   4.077 -1.1895  1.1613  0.7207
   46MOL   H25021040   7.707   1.014   4.246  1.6393 -1.5670  0.3346
   46MOL   H25121041   8.110   0.877   3.845  0.4733  1.9741  0.2646
   46MOL   H25221042   0.070   0.765   3.865  1.4027  1.2422  1.7735
   46MOL   H25321043   8.268   0.706   4.279  0.5706  3.2544  1.1871
   46MOL   H25421044   8.030   0.809   4.251 -1.5666 -1.8508 -1.1713
   46MOL   O25521045   0.398   0.604   4.022 -0.3316 -0.2857 -0.0089
   46MOL   C25621046   0.477   0.719   4.028  0.0058 -0.0933 -0.2187
   46MOL   C25721047   0.507   0.796   3.900  0.3700  0.6729  0.3827
   46MOL   O25821048   0.390   0.862   3.848 -0.3098  0.1987  0.2785
   46MOL   C25921049   0.379   0.878   3.720 -0.2157  0.6876  0.2445
   46MOL   O26021050   0.459   0.834   3.635 -0.4682  0.5426  0.2517
   46MOL   C26121051   0.256   0.958   3.676  0.7574  0.4015  0.1370
   46MOL   C26221052   0.180   1.026   3.781  0.1619 -0.0662 -0.3854
   46MOL   C26321053   0.070   1.106   3.744 -0.0975  0.3502 -1.0451
   46MOL   C26421054   0.046   1.130   3.607 -1.1805  1.2279  0.1979
   46MOL   C26521055   8.216   1.236   3.573 -1.4644  0.2016 -0.5132
   46MOL   O26621056   8.179   1.327   3.652  0.2607  0.3510  0.5045
   46MOL   O26721057   8.176   1.237   3.441  0.3922  0.4501 -0.6145
   46MOL   C26821058   0.128   1.060   3.507  0.1625 -0.0864  0.3085
   46MOL   C26921059   0.219   0.963   3.541  0.5232  0.5504  0.1428
   46MOL   H27021060   0.438   0.783   4.107 -1.6753  1.8988 -2.5948
   46MOL   H27121061   0.568   0.672   4.066  1.7744  2.0703 -1.6760
   46MOL   H27221062   0.557   0.729   3.830 -3.4217 -1.5792 -0.3349
   46MOL   H27321063   0.571   0.880   3.925 -0.3296  2.2742 -2.9169
   46MOL   H27421064   0.201   1.023   3.887 -1.7172  0.8279  0.0278
   46MOL   H27521065   0.010   1.162   3.814 -0.4485 -1.1959 -0.0895
   46MOL   H27621066   0.120   1.082   3.401  0.1358  3.6203  0.9957
   46MOL   H27721067   0.275   0.911   3.465 -0.1036  0.1393 -0.0401
   46MOL   O27821068   8.081   1.353   3.410 -0.1968 -0.2194  0.2752
   46MOL   C27921069   7.953   1.306   3.440 -0.1043  0.1041 -0.0483
   46MOL   C28021070   7.855   1.426   3.427 -0.3447 -0.2234 -0.1729
   46MOL   O28121071   7.809   1.423   3.294  0.6508  0.3244 -0.1282
   46MOL   C28221072   7.718   1.514   3.253  0.3465 -0.5365  0.1594
   46MOL   O28321073   7.683   1.605   3.330 -0.4693 -0.2886  0.2963
   46MOL   C28421074   7.680   1.507   3.111  0.1608  0.3980  0.1368
   46MOL   C28521075   7.600   1.607   3.053 -0.2001 -0.3243  0.1886
   46MOL   C28621076   7.557   1.601   2.915  0.2261 -0.1760  0.5722
   46MOL   C28721077   7.608   1.499   2.832 -0.0283 -0.1781  0.1965
   46MOL   C28821078   7.565   1.495   2.689  0.3984  0.0244 -0.3683
   46MOL   O28921079   7.611   1.418   2.604  0.1514 -0.2086  0.6734
   46MOL   O29021080   7.456   1.577   2.664  0.7408 -0.2014  0.0454
   46MOL   C29121081   7.690   1.403   2.884  0.0030 -0.5185 -0.0735
   46MOL   C29221082   7.721   1.402   3.023  0.3944  0.2580  0.6431
   46MOL   H29321083   7.933   1.220   3.376  1.7315  0.1352 -0.6742
   46MOL   H29421084   7.940   1.277   3.544 -0.2159 -0.6153 -0.2592
   46MOL   H29521085   7.917   1.511   3.459  0.0231 -0.2757 -0.7418
   46MOL   H29621086   7.773   1.407   3.497 -1.3393  1.1858 -0.9506
   46MOL   H29721087   7.564   1.687   3.115 -3.3954 -1.1493 -0.5064
   46MOL   H29821088   7.495   1.681   2.877 -2.3609 -1.2048  2.4326
   46MOL   H29921089   7.729   1.331   2.813  0.4797  1.7383 -2.1671
   46MOL   H30021090   7.787   1.324   3.059 -1.3518 -1.7972 -0.4750
   46MOL   O30121091   7.410   1.576   2.520  0.0189  0.4556 -0.1988
   46MOL   C30221092   7.303   1.488   2.513  0.3413 -0.2784 -0.4669
   46MOL   C30321093   7.178   1.557   2.544  0.5779 -0.0799  0.3895
   46MOL   O30421094   7.167   1.575   2.683 -0.4232  0.1637  0.3085
   46MOL   C30521095   7.056   1.615   2.733 -0.3483  0.0203  1.1746
   46MOL   O30621096   6.954   1.642   2.667  0.3946  0.2160 -0.1591
   46MOL   C30721097   7.071   1.643   2.876 -0.3863 -0.1977  0.4684
   46MOL   C30821098   6.994   1.749   2.934 -0.4388 -0.4467  0.2242
   46MOL   C30921099   7.020   1.776   3.072  0.7277  0.0729  0.2318
   46MOL   C31021100   7.127   1.717   3.145 -0.1517  0.1561  0.1323
   46MOL   C31121101   7.169   1.773   3.275 -0.5436  0.2265  0.6658
   46MOL   O31221102   7.095   1.849   3.345 -0.2899  0.1563  0.9219
   46MOL   O31321103   7.291   1.739   3.306  0.1567  0.1008  0.0476
   46MOL   C31421104   7.191   1.609   3.086  0.2960 -0.2177 -0.4934
   46MOL   C31521105   7.169   1.573   2.951  0.3731  0.2114 -0.2468
   46MOL   H31621106   7.309   1.460   2.408  1.9254  0.5224 -0.6085
   46MOL   H31721107   7.312   1.398   2.575 -0.1708 -1.1212 -1.5940
   46MOL   H31821108   7.097   1.488   2.518 -0.1944  0.8745  0.2416
   46MOL   H31921109   7.164   1.656   2.501  0.2216  0.7116  2.3084
   46MOL   H32021110   6.914   1.788   2.872  0.3987  0.8999 -0.0003
   46MOL   H32121111   6.980   1.866   3.115  2.6540 -0.4498  3.2415
   46MOL   H32221112   7.274   1.564   3.138  0.9719  1.2480 -0.2636
   46MOL   H32321113   7.239   1.502   2.909 -1.6856 -0.7705 -2.1409
   46MOL   O32421114   7.336   1.795   3.442  0.1154  0.1314 -0.5203
   46MOL   C32521115   7.340   1.686   3.535  0.4972 -0.6707  0.3596
   46MOL   C32621116   7.206   1.641   3.592 -0.1749 -0.6611 -0.3329
   46MOL   O32721117   7.192   1.502   3.567  0.4209 -0.4503 -0.0081
   46MOL   C32821118   7.169   1.414   3.673 -0.0251  0.3719  0.3331
   46MOL   O32921119   7.132   1.440   3.788  0.6825  0.1853  0.1127
   46MOL   C33021120   7.177   1.274   3.625 -0.0630  0.2643  0.6681
   46MOL   C33121121   7.150   1.168   3.712  0.1151  0.7058  0.0011
   46MOL   C33221122   7.147   1.031   3.672  0.4687 -0.1176 -0.2947
   46MOL   C33321123   7.197   0.995   3.544 -0.0179  0.6264 -0.1475
   46MOL   C33421124   7.218   0.851   3.501  0.0527  0.3600  0.1050
   46MOL   O33521125   7.294   0.819   3.409  0.3099  0.5706  0.2244
   46MOL   O33621126   7.135   0.772   3.566  0.1980  0.5457  0.3091
   46MOL   C33721127   7.232   1.100   3.457 -0.3009  0.8850 -0.0448
   46MOL   C33821128   7.227   1.236   3.495  0.6445 -0.5614  0.6006
   46MOL   H33921129   7.390   1.597   3.495  0.4264 -0.7066  0.3515
   46MOL   H34021130   7.396   1.720   3.622 -0.0195  3.4206 -0.8206
   46MOL   H34121131   7.125   1.696   3.544 -0.3655 -0.5712  0.0855
   46MOL   H34221132   7.188   1.667   3.696 -0.8181  1.5151 -0.9659
   46MOL   H34321133   7.126   1.187   3.816  1.4179 -1.4958  0.7412
   46MOL   H34421134   7.124   0.954   3.743 -0.5758  0.5016  0.0493
   46MOL   H34521135   7.267   1.067   3.360 -1.0350  1.1869 -0.4163
   46MOL   H34621136   7.242   1.306   3.414  1.5173  0.3489  1.5388
   46MOL   O34721137   7.139   0.629   3.531 -0.6653 -0.0197 -0.3646
   46MOL   C34821138   7.247   0.572   3.601 -0.2059  0.5031 -0.2045
   46MOL   C34921139   7.250   0.429   3.597 -0.4265  0.3416 -0.2477
   46MOL   O35021140   7.350   0.368   3.679  0.0425 -0.5479 -0.0114
   46MOL   C35121141   7.470   0.380   3.647  0.4540 -0.0460  0.2844
   46MOL   O35221142   7.515   0.433   3.545 -0.2491  0.0923  0.3352
   46MOL   C35321143   7.563   0.328   3.750 -0.4219  0.3256  0.1131
   46MOL   C35421144   7.667   0.252   3.700 -0.4266 -0.1754  0.1893
   46MOL   C35521145   7.758   0.184   3.779  0.3470 -0.3936 -0.0869
   46MOL   C35621146   7.749   0.194   3.925  0.0879 -0.7553  0.3884
   46MOL   C35721147   7.849   0.134   4.014 -0.2532  0.2898 -0.5943
   46MOL   O35821148   7.838   0.134   4.137 -0.3463  0.0237 -0.2055
   46MOL   O35921149   7.943   0.074   3.942 -0.0274  0.1695 -0.0586
   46MOL   C36021150   7.646   0.281   3.974  0.1767 -0.1595  0.2764
   46MOL   C36121151   7.548   0.339   3.886  0.1212  0.0083  0.0012
   46MOL   H36221152   7.340   0.614   3.561 -0.4418  0.6728 -0.5805
   46MOL   H36321153   7.240   0.604   3.705  0.2253 -2.0196  0.6393
   46MOL   H36421154   7.268   0.395   3.496 -0.2585  1.4611 -0.6032
   46MOL   H36521155   7.156   0.386   3.632 -0.2587  1.1887  1.3182
   46MOL   H36621156   7.674   0.234   3.594  2.2248  0.7802  0.1600
   46MOL   H36721157   7.842   0.132   3.735  0.4294 -0.8827  0.6258
   46MOL   H36821158   7.639   0.300   4.080  0.8988 -1.6701  0.6042
   46MOL   H36921159   7.488   0.418   3.928  1.0791  1.3637 -1.1539
   46MOL   O37021160   8.039   8.263   4.016  0.3196  0.1111 -0.2156
   46MOL   C37121161   8.163   0.042   4.007  0.0348  0.1529  0.1009
   46MOL   C37221162   8.259   8.191   4.006  0.4305  0.2170 -0.1972
   46MOL   O37321163   0.009   8.161   3.871 -0.5666 -0.3878  0.7437
   46MOL   C37421164   0.058   8.042   3.833 -0.3812  0.4063 -0.2600
   46MOL   O37521165   0.073   7.954   3.912  0.3613  0.3222  0.3732
   46MOL   C37621166   0.121   8.040   3.700  0.4883 -0.7656  0.1689
   46MOL   C37721167   0.173   7.916   3.647  0.4417 -0.5538 -0.2499
   46MOL   C37821168   0.249   7.919   3.529  0.0850  0.0343 -0.7430
   46MOL   C37921169   0.258   8.035   3.455 -0.2103  0.0356  0.1576
   46MOL   C38021170   0.339   8.041   3.333  0.6491  0.9195  0.0626
   46MOL   O38121171   0.398   7.937   3.295 -0.1059  0.2545  0.6667
   46MOL   O38221172   0.326   8.154   3.253 -0.4298  0.2131 -0.0154
   46MOL   C38321173   0.181   8.143   3.491  0.0172 -0.3086  0.0741
   46MOL   C38421174   0.123   8.153   3.618  0.0040  0.3513 -0.4344
   46MOL   H38521175   8.185   0.090   3.912 -1.7481  1.6838  0.4444
   46MOL   H38621176   8.181   0.110   4.091  2.7844  0.4291 -0.6555
   46MOL   H38721177   8.210   8.111   4.060  1.0730 -0.2852 -0.3538
   46MOL   H38821178   0.083   8.202   4.050  0.6365 -1.2759 -0.2674
   46MOL   H38921179   0.157   7.827   3.705  1.3735 -0.3320  0.3519
   46MOL   H39021180   0.295   7.825   3.503  0.7513  0.4964 -1.2454
   46MOL   H39121181   0.178   8.229   3.425 -0.3426 -1.2199 -1.1071
   46MOL   H39221182   0.068   8.243   3.641  0.4466  0.4191  0.3887
   46MOL   O39321183   0.368   8.125   3.109 -0.0277 -0.4473  0.3217
   46MOL   C39421184   0.507   8.171   3.087  0.3263 -0.3959 -0.5447
   46MOL   C39521185   0.546   8.160   2.937 -0.0551  0.1308  0.1009
   46MOL   O39621186   0.625   8.048   2.917 -0.2273 -0.3303 -0.1132
   46MOL   C39721187   0.754   8.048   2.942 -0.2683  0.1172  0.4526
   46MOL   O39821188   0.816   8.147   2.980 -0.4371 -0.1200  0.5580
   46MOL   C39921189   0.813   7.909   2.927 -0.1968  0.8223 -0.3968
   46MOL   C40021190   0.734   7.793   2.937 -0.1178  0.6690  0.0203
   46MOL   C40121191   0.787   7.663   2.914 -0.7664 -0.5386 -0.5512
   46MOL   C40221192   0.924   7.649   2.885 -0.4802 -0.1679  0.2583
   46MOL   C40321193   0.990   7.515   2.861  0.3608  0.4463 -0.1743
   46MOL   O40421194   0.928   7.410   2.889  0.0952 -0.0604 -0.7165
   46MOL   O40521195   1.116   7.518   2.817 -0.2589  0.3500  0.2037
   46MOL   C40621196   1.008   7.762   2.895 -1.1216  0.6493  0.7662
   46MOL   C40721197   0.959   7.892   2.914 -0.4912 -0.5504 -0.3459
   46MOL   H40821198   0.504   8.275   3.118 -1.2454 -0.0289 -1.8029
   46MOL   H40921199   0.578   8.112   3.145 -0.7783  0.6206  1.9010
   46MOL   H41021200   0.596   8.250   2.903  0.8383 -0.3811  0.0372
   46MOL   H41121201   0.458   8.148   2.875  0.4611 -1.3319 -0.3777
   46MOL   H41221202   0.631   7.796   2.970  0.5776 -2.0169  2.6458
   46MOL   H41321203   0.732   7.571   2.924 -1.7656  0.2090  0.9184
   46MOL   H41421204   1.115   7.749   2.887 -1.3056 -1.0483  0.7890
   46MOL   H41521205   1.022   7.980   2.921 -1.9130  0.2786  2.6326
   46MOL   O41621206   1.184   7.388   2.825 -0.1976 -0.2741 -0.3561
   46MOL   C41721207   1.174   7.327   2.692 -0.5308 -0.0198  0.2425
   46MOL   C41821208   1.247   7.187   2.694 -0.4855  0.7692  0.3797
   46MOL   O41921209   1.379   7.209   2.655 -0.5948  0.3660 -0.0296
   46MOL   C42021210   1.414   7.223   2.523  0.4775 -0.7444 -0.1295
   46MOL   O42121211   1.331   7.203   2.433  0.4489 -0.4542 -0.3107
   46MOL   C42221212   1.546   7.284   2.501  0.0840 -0.0925  0.2341
   46MOL   C42321213   1.606   7.285   2.371  0.1404 -0.2592 -0.1723
   46MOL   C42421214   1.736   7.329   2.352 -0.5810 -0.5224  0.5953
   46MOL   C42521215   1.811   7.352   2.464 -0.0489 -0.0600 -0.8696
   46MOL   C42621216   1.955   7.387   2.429  0.1211  0.0082 -1.0620
   46MOL   O42721217   1.997   7.389   2.313  0.0532 -0.3200  0.2661
   46MOL   O42821218   2.037   7.401   2.535  0.4336 -0.3046  0.1520
   46MOL   C42921219   1.753   7.370   2.592  0.1731 -0.3613 -0.2011
   46MOL   C43021220   1.621   7.326   2.616  0.3995 -0.3088  0.2707
   46MOL   H43121221   1.069   7.300   2.681 -0.3976 -1.1947  1.6711
   46MOL   H43221222   1.200   7.401   2.617  2.1980 -0.7255  0.4651
   46MOL   H43321223   1.198   7.125   2.618  0.9192  0.4867 -0.3174
   46MOL   H43421224   1.243   7.135   2.790  0.3214  1.4006  0.7651
   46MOL   H43521225   1.539   7.256   2.291 -0.9524 -0.4838  0.8231
   46MOL   H43621226   1.773   7.324   2.251 -1.5768 -2.5423  0.3049
   46MOL   H43721227   1.822   7.391   2.672 -0.8926 -2.6864  1.4113
   46MOL   H43821228   1.580   7.325   2.715  0.7484 -1.0120  0.4121
   46MOL   O43921229   2.174   7.425   2.490 -0.4598 -0.9133 -0.1110
   46MOL   C44021230   2.251   7.302   2.498 -0.0459  0.1950  0.0151
   46MOL   C44121231   2.372   7.314   2.400  0.1865  0.7354 -0.5446
   46MOL   O44221232   2.320   7.294   2.266  0.0496  0.0811 -0.7813
   46MOL   C44321233   2.337   7.189   2.200 -0.0981 -0.4172  0.4533
   46MOL   O44421234   2.386   7.090   2.240  0.4984  0.3049  0.3669
   46MOL   C44521235   2.299   7.215   2.058 -0.3151 -0.3795  0.0180
   46MOL   C44621236   2.373   7.156   1.953  0.0683  1.2278 -0.2860
   46MOL   C44721237   2.345   7.179   1.817  0.4407  0.1686 -0.1310
   46MOL   C44821238   2.262   7.288   1.784 -0.4524  0.3006 -0.1791
   46MOL   C44921239   2.247   7.331   1.640 -0.0142  0.5637  0.9289
   46MOL   O45021240   2.319   7.285   1.549  0.2643 -0.3626  0.0586
   46MOL   O45121241   2.154   7.421   1.623  0.0581 -0.3097  0.0571
   46MOL   C45221242   2.193   7.347   1.885  0.6011 -0.5883 -0.6814
   46MOL   C45321243   2.199   7.305   2.022  0.0288  0.4006  0.3402
   46MOL   H45421244   2.292   7.270   2.593  0.8334 -1.2813 -0.8405
   46MOL   H45521245   2.195   7.217   2.459  1.4627 -0.1035 -1.5808
   46MOL   H45621246   2.446   7.237   2.423 -0.8815  0.4665  2.1876
   46MOL   H45721247   2.422   7.412   2.400 -0.5730  1.1256 -0.2994
   46MOL   H45821248   2.447   7.079   1.972 -0.0701  1.2470  0.3306
   46MOL   H45921249   2.397   7.125   1.739  1.7052  0.5370  0.4436
   46MOL   H46021250   2.121   7.421   1.852  1.4456  0.4807 -0.1904
   46MOL   H46121251   2.145   7.359   2.098  1.9847  0.1559  1.9172
   46MOL   H46221252   2.152   7.475   1.545 -1.2072 -0.0840  0.2318
   47MOL     O121253   7.473   1.760   0.989 -0.1057  0.2722 -0.3688
   47MOL     C221254   7.394   1.701   1.088 -0.2285  0.8914 -0.5713
   47MOL     C321255   7.474   1.678   1.218 -0.0550 -0.1719  0.3933
   47MOL     O421256   7.582   1.585   1.188 -0.3059  0.1491 -0.2637
   47MOL     C521257   7.693   1.578   1.272  0.5411  1.3641 -0.3886
   47MOL     O621258   7.698   1.639   1.377  0.4823 -0.1332  0.2172
   47MOL     C721259   7.803   1.496   1.219  0.3285 -0.2073  0.3143
   47MOL     C821260   7.787   1.402   1.117 -0.5638 -0.2974  0.4139
   47MOL     C921261   7.891   1.318   1.075  0.4120 -0.5911  0.6795
   47MOL    C1021262   8.019   1.326   1.133  0.8240  0.1472  0.1013
   47MOL    C1121263   8.122   1.223   1.093 -0.6841 -0.0349 -0.3886
   47MOL    O1221264   8.097   1.118   1.027  0.4521 -0.1521 -0.0909
   47MOL    O1321265   8.241   1.248   1.144  0.3600 -0.1394 -0.3095
   47MOL    C1421266   8.041   1.426   1.229  0.4075  0.8032  0.0262
   47MOL    C1521267   7.935   1.514   1.268  0.0220  0.0779  0.0505
   47MOL    H1621268   7.317   1.770   1.124  2.1200  2.7917  0.9375
   47MOL    H1721269   7.335   1.612   1.064  0.4587  0.6115 -1.2176
   47MOL    H1821270   7.402   1.630   1.283 -2.3116  2.3596 -0.1539
   47MOL    H1921271   7.508   1.766   1.273 -0.5272  0.6968 -0.6545
   47MOL    H2021272   7.688   1.384   1.076 -0.8775  1.4959  0.3426
   47MOL    H2121273   7.863   1.240   1.006 -1.3595 -0.4616  1.2212
   47MOL    H2221274   8.136   1.437   1.279  0.9424  1.5798 -1.1526
   47MOL    H2321275   7.949   1.595   1.338 -0.1209  0.2701 -0.1480
   47MOL    H2421276   7.524   1.696   0.942  1.7953  2.4565 -1.3644
   47MOL    O2521277   0.073   1.140   1.112  1.2457  0.4039 -0.1682
   47MOL    C2621278   0.164   1.197   1.030 -0.2130  0.3334 -0.0307
   47MOL    C2721279   0.235   1.084   0.960 -0.0489  0.0931  0.3577
   47MOL    O2821280   0.312   1.018   1.047 -0.5923 -0.0601 -0.0478
   47MOL    C2921281   0.367   0.900   1.009 -0.1584 -0.8273  0.2076
   47MOL    O3021282   0.379   0.871   0.889  0.1005 -0.2982 -0.4889
   47MOL    C3121283   0.410   0.814   1.116  0.3310  0.3754 -0.2404
   47MOL    C3221284   0.392   0.848   1.251  0.0824  0.5169  0.1449
   47MOL    C3321285   0.439   0.780   1.358  0.0834  0.7333 -0.1144
   47MOL    C3421286   0.510   0.657   1.332 -0.5427 -0.3675  0.5839
   47MOL    C3521287   0.572   0.570   1.444 -0.1368  0.5956 -0.1708
   47MOL    O3621288   0.622   0.457   1.425 -0.1306  0.1669 -0.1912
   47MOL    O3721289   0.557   0.635   1.569  0.1393 -0.6489 -0.4492
   47MOL    C3821290   0.535   0.626   1.192  0.1534  0.3600  0.1044
   47MOL    C3921291   0.486   0.702   1.085 -1.0571 -0.2468  0.5883
   47MOL    H4021292   0.116   1.258   0.954 -0.8096 -1.1779 -0.8988
   47MOL    H4121293   0.237   1.254   1.087  0.1530 -0.0160 -0.1463
   47MOL    H4221294   0.297   1.122   0.879  0.0342 -0.2600  0.2510
   47MOL    H4321295   0.168   1.014   0.909 -0.1791 -0.5047  1.3281
   47MOL    H4421296   0.330   0.934   1.273 -0.1516 -0.0828  1.8676
   47MOL    H4521297   0.408   0.814   1.456  0.1745  1.1652 -0.2375
   47MOL    H4621298   0.579   0.527   1.183 -0.8388 -0.2576  1.8769
   47MOL    H4721299   0.523   0.683   0.985  1.2219 -1.0865  1.5352
   47MOL    O4821300   0.628   0.560   1.687 -0.1314  0.0917 -0.0971
   47MOL    C4921301   0.746   0.636   1.719 -0.0832  0.2742 -0.8612
   47MOL    C5021302   0.839   0.551   1.810 -0.6620 -0.0837  0.4296
   47MOL    O5121303   0.842   0.432   1.735  0.4361  0.5685  0.1183
   47MOL    C5221304   0.911   0.333   1.778  0.1369  0.5182 -0.0855
   47MOL    O5321305   0.990   0.338   1.875  0.1702 -0.6591  0.1610
   47MOL    C5421306   0.888   0.204   1.697  0.1040 -0.1468 -0.2282
   47MOL    C5521307   0.966   0.088   1.725 -1.2471  0.6202 -0.2465
   47MOL    C5621308   0.951   8.246   1.647  0.4465  0.2562 -0.2712
   47MOL    C5721309   0.851   8.245   1.549 -0.1363 -0.0549 -0.0900
   47MOL    C5821310   0.827   8.103   1.490  0.7502 -0.3006  0.3526
   47MOL    O5921311   0.909   8.009   1.513 -0.9199  0.6452  0.1441
   47MOL    O6021312   0.710   8.095   1.421 -0.3927  0.2606 -0.1854
   47MOL    C6121313   0.782   0.087   1.507  0.3483 -0.4817 -0.8188
   47MOL    C6221314   0.802   0.200   1.586 -0.0650 -0.0500  0.0336
   47MOL    H6321315   0.798   0.653   1.625 -0.9785 -1.1053 -1.6173
   47MOL    H6421316   0.734   0.739   1.751  0.6889  0.3742 -0.8957
   47MOL    H6521317   0.804   0.527   1.910 -2.9292  0.8183 -0.1253
   47MOL    H6621318   0.937   0.599   1.813 -1.2278  1.0328  1.4048
   47MOL    H6721319   1.031   0.084   1.810 -0.6991  1.9715 -0.5966
   47MOL    H6821320   1.014   8.158   1.653  0.4168  0.0461 -2.5866
   47MOL    H6921321   0.707   0.085   1.428 -0.1131 -0.5070 -0.3801
   47MOL    H7021322   0.755   0.295   1.566  0.9078  0.2193 -0.9921
   47MOL    O7121323   0.683   7.965   1.355 -0.0543 -0.2345 -0.3004
   47MOL    C7221324   0.579   7.897   1.429 -0.5644 -0.0092 -0.6984
   47MOL    C7321325   0.637   7.817   1.555 -0.4170 -0.2464 -0.0564
   47MOL    O7421326   0.769   7.766   1.541  0.3961 -0.4927 -0.1868
   47MOL    C7521327   0.801   7.671   1.452  0.7591 -0.3142 -0.1565
   47MOL    O7621328   0.731   7.640   1.357  0.1200  0.0603  0.1902
   47MOL    C7721329   0.935   7.614   1.481  0.2175 -0.5008 -0.2420
   47MOL    C7821330   1.015   7.657   1.595 -0.2580  0.5862  0.9948
   47MOL    C7921331   1.143   7.601   1.612 -0.7130 -0.1618  0.0120
   47MOL    C8021332   1.197   7.511   1.516 -0.4781  0.1756  0.0632
   47MOL    C8121333   1.338   7.451   1.520 -0.2176 -0.6590 -0.2262
   47MOL    O8221334   1.424   7.500   1.597  0.5146 -0.4370  0.1077
   47MOL    O8321335   1.357   7.346   1.451  0.2548  0.1827 -0.8509
   47MOL    C8421336   1.115   7.472   1.407  0.0394 -0.0279 -0.0687
   47MOL    C8521337   0.980   7.512   1.396  0.3686 -0.2043 -0.1253
   47MOL    H8621338   0.497   7.959   1.465 -0.9268 -1.4588  1.0658
   47MOL    H8721339   0.542   7.829   1.353 -0.6405 -0.9317  0.1501
   47MOL    H8821340   0.564   7.744   1.592  0.7126 -1.2715  0.1884
   47MOL    H8921341   0.644   7.891   1.634  0.0053 -0.7112  0.3489
   47MOL    H9021342   0.987   7.737   1.661  0.5820  1.2608  0.5393
   47MOL    H9121343   1.195   7.638   1.699  1.5318 -1.5884 -0.7042
   47MOL    H9221344   1.139   7.395   1.336  1.9622 -0.1148  0.6421
   47MOL    H9321345   0.930   7.465   1.313  0.0580  0.0915 -0.1058
   47MOL    O9421346   1.505   7.309   1.449  0.7307 -0.4444  0.6458
   47MOL    C9521347   1.518   7.191   1.518 -0.5140 -0.9011  0.0451
   47MOL    C9621348   1.462   7.083   1.423 -0.1282 -0.3576 -0.4126
   47MOL    O9721349   1.560   7.065   1.318  0.0401  0.3512 -0.0962
   47MOL    C9821350   1.533   7.073   1.188 -0.4974  0.6709  0.8484
   47MOL    O9921351   1.414   7.071   1.151 -0.2374 -0.2136 -0.0184
   47MOL   C10021352   1.642   7.103   1.097  0.6302 -0.1981  0.0714
   47MOL   C10121353   1.610   7.138   0.962  0.4127  0.4100  0.1537
   47MOL   C10221354   1.710   7.166   0.869  0.7416  0.2720  0.5067
   47MOL   C10321355   1.844   7.160   0.902 -0.4409 -0.1672 -0.6398
   47MOL   C10421356   1.955   7.180   0.803 -0.1587  0.5982  0.0292
   47MOL   O10521357   2.076   7.181   0.829 -0.2801 -0.3848 -0.5856
   47MOL   O10621358   1.903   7.198   0.679 -0.3042  0.0491  0.1918
   47MOL   C10721359   1.879   7.118   1.034 -0.4444 -0.5138  0.2721
   47MOL   C10821360   1.779   7.089   1.132  0.1596  0.6215 -0.3044
   47MOL   H10921361   1.624   7.170   1.533 -0.4725 -0.4290  0.4394
   47MOL   H11021362   1.467   7.197   1.615  1.8441 -2.3122  1.4288
   47MOL   H11121363   1.361   7.109   1.391 -0.3586  3.1572  2.7846
   47MOL   H11221364   1.460   6.986   1.471  2.0197 -0.8711 -1.3121
   47MOL   H11321365   1.506   7.147   0.934 -0.2587 -0.3424  2.3435
   47MOL   H11421366   1.681   7.196   0.769 -2.0234 -1.8249  0.6205
   47MOL   H11521367   1.985   7.114   1.057 -0.2373  2.3415 -0.0543
   47MOL   H11621368   1.805   7.060   1.233  2.4635 -0.2501 -1.1299
   47MOL   O11721369   2.000   7.171   0.567  0.2953  0.8776 -1.0242
   47MOL   C11821370   1.949   7.066   0.493  1.0729  0.3529  1.4036
   47MOL   C11921371   2.078   7.022   0.411  0.3442 -1.2082  0.1301
   47MOL   O12021372   2.052   7.016   0.269 -0.6475  0.8655 -0.5070
   47MOL   C12121373   1.995   6.916   0.211 -0.4594  0.3589  0.0573
   47MOL   O12221374   1.918   6.843   0.272 -0.0560  0.1063  0.2045
   47MOL   C12321375   2.009   6.911   0.065 -0.0629 -0.4249  0.7480
   47MOL   C12421376   1.948   6.799   8.274 -0.3180  0.8114 -0.2511
   47MOL   C12521377   1.973   6.787   8.134 -0.0805 -0.0945 -0.0968
   47MOL   C12621378   2.027   6.890   8.059  0.3287  0.1247  0.1256
   47MOL   C12721379   2.042   6.878   7.909 -0.1434  0.0725 -0.3046
   47MOL   O12821380   1.976   6.802   7.835 -0.4539 -0.1009  0.1317
   47MOL   O12921381   2.127   6.968   7.860 -1.1093 -0.1960  0.5226
   47MOL   C13021382   2.078   7.007   8.126  0.5420 -0.3084  0.2229
   47MOL   C13121383   2.073   7.015   8.265 -0.5442  0.4437  0.2268
   47MOL   H13221384   1.920   6.982   0.556 -0.3467 -0.0129  0.3140
   47MOL   H13321385   1.865   7.103   0.433  1.5198 -0.5298  0.2139
   47MOL   H13421386   2.126   6.937   0.460  1.5124  0.0041  1.1433
   47MOL   H13521387   2.160   7.093   0.426  0.2484 -1.1507  0.3894
   47MOL   H13621388   1.899   6.719   0.052 -1.3690  2.3117  1.0651
   47MOL   H13721389   1.934   6.693   8.098 -0.7384  0.4252 -0.7645
   47MOL   H13821390   2.117   7.087   8.066 -2.9597  0.2343 -1.4469
   47MOL   H13921391   2.113   7.105   0.033 -0.0466  0.8101 -0.9695
   47MOL   O14021392   2.199   6.934   7.732 -0.0287  0.1100 -0.6686
   47MOL   C14121393   2.135   6.982   7.615  0.8484 -0.4160 -0.0151
   47MOL   C14221394   2.092   7.124   7.638  0.0480 -0.1948 -0.6370
   47MOL   O14321395   1.953   7.123   7.661 -0.0898  0.0387 -0.0870
   47MOL   C14421396   1.860   7.162   7.566 -0.1773 -0.0119 -0.5283
   47MOL   O14521397   1.884   7.208   7.456  0.1896 -0.2999  0.6713
   47MOL   C14621398   1.717   7.131   7.619  0.0217 -0.5501 -0.5306
   47MOL   C14721399   1.700   7.062   7.739  0.4395  0.1527  0.2006
   47MOL   C14821400   1.576   7.007   7.776 -0.5246  0.0246 -0.4598
   47MOL   C14921401   1.456   7.045   7.706  0.3245  0.0863 -0.5010
   47MOL   C15021402   1.323   6.993   7.755  1.0298  0.4506 -1.0349
   47MOL   O15121403   1.300   6.889   7.819  0.1601  1.0188 -0.1535
   47MOL   O15221404   1.219   7.070   7.709  0.0340 -0.2140 -0.0561
   47MOL   C15321405   1.468   7.125   7.594  0.0051  0.3199  0.4166
   47MOL   C15421406   1.599   7.168   7.546 -0.0240  0.5358  0.0813
   47MOL   H15521407   2.209   6.985   7.535  2.1878 -1.4887  1.1440
   47MOL   H15621408   2.059   6.919   7.570  1.0974 -0.7877  0.0767
   47MOL   H15721409   2.111   7.190   7.554  2.0332  0.0426 -0.0221
   47MOL   H15821410   2.147   7.164   7.723 -3.0897  3.5931 -0.2335
   47MOL   H15921411   1.780   7.040   7.807  0.7599 -0.4493 -0.3587
   47MOL   H16021412   1.568   6.944   7.864  2.9727  0.9492  0.6135
   47MOL   H16121413   1.382   7.146   7.531  0.4890 -0.0449 -0.3732
   47MOL   H16221414   1.612   7.220   7.453  0.1569  1.4053  0.5803
   47MOL   O16321415   1.086   7.011   7.721 -0.0223  0.6738  0.1306
   47MOL   C16421416   1.026   7.054   7.846  0.4697 -0.0794  0.1231
   47MOL   C16521417   1.027   7.204   7.860 -0.8698 -0.2474  0.1317
   47MOL   O16621418   1.155   7.253   7.880  0.0586  0.1633  0.0336
   47MOL   C16721419   1.227   7.239   7.997  0.6963 -0.3000  0.1146
   47MOL   O16821420   1.184   7.184   8.099  0.5051  0.3289 -0.1938
   47MOL   C16921421   1.373   7.270   7.970 -0.5242  0.3870  0.2320
   47MOL   C17021422   1.467   7.233   8.068  0.0577 -0.7742 -0.3815
   47MOL   C17121423   1.604   7.262   8.055 -0.1925 -0.3354  0.0684
   47MOL   C17221424   1.651   7.324   7.936  0.1718 -0.7859  0.7505
   47MOL   C17321425   1.795   7.350   7.917  0.2781 -0.4195  0.4397
   47MOL   O17421426   1.845   7.406   7.823  0.5726  0.1121 -0.6652
   47MOL   O17521427   1.871   7.297   8.010 -0.6469  0.0222 -0.2253
   47MOL   C17621428   1.552   7.367   7.844  0.4234  0.1650 -0.5560
   47MOL   C17721429   1.417   7.331   7.857  0.8030 -0.6010 -0.1479
   47MOL   H17821430   0.922   7.021   7.852 -0.6257  3.0195 -0.9544
   47MOL   H17921431   1.076   7.003   7.929  2.0433 -0.3548 -0.9742
   47MOL   H18021432   0.975   7.245   7.947  2.8520  1.1774  1.7758
   47MOL   H18121433   0.980   7.250   7.772 -0.5225 -2.7223 -1.3879
   47MOL   H18221434   1.428   7.184   8.156 -1.6443  1.4679  0.1458
   47MOL   H18321435   1.675   7.233   8.131  1.3289 -1.2786 -1.6653
   47MOL   H18421436   1.587   7.417   7.755 -0.5196  0.6728 -0.6519
   47MOL   H18521437   1.348   7.365   7.781  1.1628 -1.8323 -1.0522
   47MOL   O18621438   2.022   7.330   7.995  0.0796  0.2558  0.2213
   47MOL   C18721439   2.054   7.425   8.094  0.0364 -0.0055  0.4318
   47MOL   C18821440   2.013   7.572   8.063 -0.3965  0.4115  0.3606
   47MOL   O18921441   1.876   7.592   8.104 -0.0718 -0.0368  0.2146
   47MOL   C19021442   1.813   7.702   8.061  0.5054  0.9138  0.1280
   47MOL   O19121443   1.863   7.803   8.013 -0.5614 -0.6083  0.4317
   47MOL   C19221444   1.658   7.693   8.080 -0.3088 -0.0645 -0.4850
   47MOL   C19321445   1.583   7.794   8.017  0.1354 -0.5733  0.0846
   47MOL   C19421446   1.443   7.785   8.021 -0.3336  0.4313  0.1399
   47MOL   C19521447   1.377   7.676   8.084 -0.8375 -0.1919  0.3367
   47MOL   C19621448   1.231   7.679   8.074 -0.4249 -0.0098  0.1501
   47MOL   O19721449   1.164   7.777   8.037  0.2161  0.4906 -0.4120
   47MOL   O19821450   1.165   7.570   8.120 -0.1861  0.4954  0.5143
   47MOL   C19921451   1.456   7.570   8.139  1.3602  0.0121 -1.4843
   47MOL   C20021452   1.593   7.584   8.145 -0.6822 -0.6575 -0.1469
   47MOL   H20121453   2.015   7.394   8.191  0.9796  0.1191  0.8608
   47MOL   H20221454   2.161   7.411   8.111  0.0347 -1.9785 -0.9650
   47MOL   H20321455   2.035   7.600   7.960  0.7755 -0.7578  0.2699
   47MOL   H20421456   2.067   7.639   8.130 -0.1795 -1.1487  1.7911
   47MOL   H20521457   1.621   7.873   7.954  0.5109 -0.1586  0.8287
   47MOL   H20621458   1.394   7.868   7.973 -0.0325  0.5957  0.1140
   47MOL   H20721459   1.414   7.482   8.186  2.6037  1.0659  1.7175
   47MOL   H20821460   1.651   7.503   8.185 -1.2872 -1.2353 -0.4295
   47MOL   O20921461   1.016   7.581   8.112  0.7933  0.2742  0.0356
   47MOL   C21021462   0.959   7.576   8.238 -0.2223 -0.7957 -0.2380
   47MOL   C21121463   0.943   7.716   0.029 -0.0020  0.9509  0.0032
   47MOL   O21221464   1.066   7.776   0.040  0.2253  0.5059 -0.1659
   47MOL   C21321465   1.148   7.751   0.145 -0.3898 -0.5101  0.5728
   47MOL   O21421466   1.116   7.681   0.240 -0.2315 -0.4588  0.0489
   47MOL   C21521467   1.278   7.811   0.126 -0.4065 -0.0549  0.3323
   47MOL   C21621468   1.386   7.766   0.202  0.0286 -0.0153 -0.8806
   47MOL   C21721469   1.512   7.830   0.193 -0.7049 -0.8293  0.3534
   47MOL   C21821470   1.532   7.941   0.105  0.7895 -0.2142  0.2103
   47MOL   C21921471   1.665   8.006   0.101 -0.5919  0.2674 -0.2341
   47MOL   O22021472   1.751   7.990   0.191 -0.6088  0.2376  0.2125
   47MOL   O22121473   1.688   8.069   8.266 -0.4138 -0.0160 -0.5591
   47MOL   C22221474   1.425   7.980   0.024 -0.1570  0.0557 -0.6890
   47MOL   C22321475   1.297   7.924   0.034  0.0755  0.0027 -0.2789
   47MOL   H22421476   0.858   7.537   8.227  0.8169 -2.9263 -2.8820
   47MOL   H22521477   1.015   7.508   0.027  2.0862  0.6119 -0.6864
   47MOL   H22621478   0.882   7.708   0.119 -1.6627  1.4095 -1.0529
   47MOL   H22721479   0.878   7.775   8.240 -1.9550  0.7041  1.7143
   47MOL   H22821480   1.377   7.675   0.260 -0.6555  0.2711 -0.5296
   47MOL   H22921481   1.599   7.795   0.247  0.9003 -0.6824 -2.0849
   47MOL   H23021482   1.445   8.058   8.227  0.0105 -2.2279 -3.1778
   47MOL   H23121483   1.220   7.958   8.243  0.1281  0.2410 -0.2170
   47MOL   O23221484   1.830   8.116   8.258 -0.2044 -0.4348  0.2993
   47MOL   C23321485   1.842   8.258   0.011  0.4457  0.8029  0.6663
   47MOL   C23421486   1.791   0.060   8.164  0.7148  0.0950  0.6135
   47MOL   O23521487   1.730   0.182   8.209 -0.0407  0.2287 -0.1668
   47MOL   C23621488   1.596   0.185   8.217 -0.5049 -0.2218 -0.1648
   47MOL   O23721489   1.524   0.087   8.201  0.0699  0.5805  0.2641
   47MOL   C23821490   1.550   0.327   8.243 -0.3825 -0.9477 -0.6051
   47MOL   C23921491   1.644   0.433   8.261  0.2513  0.3759 -0.3368
   47MOL   C24021492   1.596   0.564   8.275  0.1174  0.7449  0.0833
   47MOL   C24121493   1.455   0.599   8.274 -0.4270  0.5631 -0.5085
   47MOL   C24221494   1.410   0.736   0.018 -0.5863 -0.1102 -0.2451
   47MOL   O24321495   1.487   0.830   0.025 -0.2255 -0.7218  0.1823
   47MOL   O24421496   1.278   0.758   0.013  0.2480 -0.4962 -0.0765
   47MOL   C24521497   1.367   0.491   8.269  0.2221  0.8486 -0.2069
   47MOL   C24621498   1.412   0.360   8.241 -0.1492 -0.2043 -0.4334
   47MOL   H24721499   1.780   0.005   0.098  1.3897  1.9193  1.0644
   47MOL   H24821500   1.944   8.274   0.044  0.1827  2.7857  0.5693
   47MOL   H24921501   1.724   8.274   8.104 -0.2045  1.6582  0.0011
   47MOL   H25021502   1.880   0.084   8.107 -0.3629 -0.4340 -1.3438
   47MOL   H25121503   1.749   0.412   8.275 -0.2981 -2.8664 -0.4622
   47MOL   H25221504   1.675   0.637   8.272 -0.7685  1.7545  1.0442
   47MOL   H25321505   1.261   0.499   0.013  0.4145  0.1473  1.2011
   47MOL   H25421506   1.339   0.284   8.218 -1.8257  1.2694  0.0135
   47MOL   O25521507   1.237   0.895   0.044 -0.2933  0.5983  1.0836
   47MOL   C25621508   1.223   0.966   8.199  0.0753  0.3905 -0.5603
   47MOL   C25721509   1.095   0.929   8.118  0.5080  0.7055 -0.1288
   47MOL   O25821510   0.983   0.990   8.170  0.3222  0.1305 -0.1455
   47MOL   C25921511   0.864   0.988   8.102 -0.3434  0.1288 -0.3727
   47MOL   O26021512   0.859   0.943   7.989 -0.2198 -1.2745  0.2110
   47MOL   C26121513   0.745   1.014   8.181  0.0342 -0.2404  0.2104
   47MOL   C26221514   0.748   1.078   0.034  0.5893 -0.0100  0.5881
   47MOL   C26321515   0.633   1.109   0.108 -0.0380  0.0422  0.1915
   47MOL   C26421516   0.509   1.088   0.055 -0.4496 -0.1612  1.0735
   47MOL   C26521517   0.388   1.118   0.125  0.2793  0.5391  0.1838
   47MOL   O26621518   0.385   1.177   0.232 -0.4518 -0.3021 -0.5936
   47MOL   O26721519   0.269   1.082   0.060 -0.2990 -0.0345  0.4444
   47MOL   C26821520   0.501   1.028   8.199  0.4425 -0.1997 -0.4866
   47MOL   C26921521   0.616   0.993   8.125 -0.1070  0.3835  0.1923
   47MOL   H27021522   1.219   1.071   8.229  1.5222 -0.3812  2.4873
   47MOL   H27121523   1.313   0.955   8.138  1.7627  0.1528  1.8888
   47MOL   H27221524   1.094   0.820   8.120  0.0381  0.6762 -1.5089
   47MOL   H27321525   1.109   0.966   8.016 -1.8674  2.0146 -0.0076
   47MOL   H27421526   0.838   1.106   0.086  0.2255  2.3852  0.0209
   47MOL   H27521527   0.638   1.156   0.205  1.3314 -0.0551  0.1709
   47MOL   H27621528   0.407   1.010   8.148  0.6622 -0.1838 -0.9002
   47MOL   H27721529   0.609   0.933   8.035 -1.8806 -0.1695  0.6914
   47MOL   O27821530   0.145   1.127   0.132  0.2079 -0.0503 -0.4385
   47MOL   C27921531   0.103   1.018   0.211  0.0832  0.3368 -0.1302
   47MOL   C28021532   0.038   0.917   0.123 -0.4796 -1.0051  0.5633
   47MOL   O28121533   8.169   0.912   0.124  0.3188  0.5014  0.5437
   47MOL   C28221534   8.105   0.795   0.100  0.2687 -0.1093  0.2464
   47MOL   O28321535   8.163   0.683   0.096 -0.5485  0.6431 -0.0492
   47MOL   C28421536   7.962   0.802   0.103  0.7178 -0.1212 -0.5049
   47MOL   C28521537   7.892   0.896   0.180 -0.0730  0.2501 -0.3438
   47MOL   C28621538   7.750   0.902   0.187 -0.2210 -0.1674 -0.4216
   47MOL   C28721539   7.674   0.815   0.112  0.5841  0.1188  0.6658
   47MOL   C28821540   7.523   0.820   0.105 -0.2426 -0.4159  0.9423
   47MOL   O28921541   7.451   0.750   0.033  0.5498  0.7270 -0.1619
   47MOL   O29021542   7.469   0.913   0.193 -0.4604 -0.3814 -0.2849
   47MOL   C29121543   7.738   0.709   0.044 -0.0447 -0.2454  0.2428
   47MOL   C29221544   7.881   0.700   0.037  0.5485 -0.2095  0.0551
   47MOL   H29321545   0.183   0.969   0.267  0.3349  0.8894 -0.0099
   47MOL   H29421546   0.023   1.055   0.274  0.3131  0.7087 -0.0554
   47MOL   H29521547   0.085   0.819   0.134  1.4677 -0.2327 -0.6309
   47MOL   H29621548   0.065   0.950   0.022 -1.5170 -1.1572  0.2295
   47MOL   H29721549   7.950   0.980   0.215 -0.3550  0.2731  0.0760
   47MOL   H29821550   7.707   0.986   0.239  1.1026  1.0947 -1.3139
   47MOL   H29921551   7.673   0.634   0.003 -0.0105  0.3614 -0.9436
   47MOL   H30021552   7.924   0.618   8.258  1.2800 -0.5063  1.0677
   47MOL   O30121553   7.313   0.927   0.182 -0.0085  0.2778  0.3723
   47MOL   C30221554   7.273   1.060   0.191 -0.3616  0.0864 -0.8670
   47MOL   C30321555   7.320   1.134   0.069  0.3239 -0.1331  0.5691
   47MOL   O30421556   7.333   1.268   0.091 -0.8994 -0.1420  0.2161
   47MOL   C30521557   7.228   1.348   0.063 -0.6615  0.7379  0.1594
   47MOL   O30621558   7.125   1.300   0.024  0.3047 -0.6549 -0.8823
   47MOL   C30721559   7.253   1.491   0.096  0.3020 -0.4547 -0.2040
   47MOL   C30821560   7.149   1.583   0.089  0.7893 -0.3774  0.3691
   47MOL   C30921561   7.163   1.712   0.140  0.8210  0.6440  0.1788
   47MOL   C31021562   7.284   1.757   0.191  0.0200  0.2539  0.4559
   47MOL   C31121563   7.295   1.900   0.219 -0.0951 -0.6854 -0.1793
   47MOL   O31221564   7.233   1.984   0.155 -0.4567 -0.2700  0.1061
   47MOL   O31321565   7.368   1.922   0.332 -0.2435 -0.6104  0.4336
   47MOL   C31421566   7.387   1.665   0.208  0.7993 -0.0538 -0.1623
   47MOL   C31521567   7.375   1.534   0.157 -0.3777 -0.1248 -0.3667
   47MOL   H31621568   7.165   1.058   0.208 -0.0274 -3.1644  1.2005
   47MOL   H31721569   7.316   1.107   0.279 -1.9959 -1.5654  0.8632
   47MOL   H31821570   7.248   1.120   8.264 -0.0331  2.9897  0.2953
   47MOL   H31921571   7.418   1.095   0.041  0.5711  0.5413  0.4985
   47MOL   H32021572   7.060   1.557   0.034 -0.8652  1.0457  2.3029
   47MOL   H32121573   7.077   1.777   0.128  0.6628  0.2337 -0.9314
   47MOL   H32221574   7.484   1.701   0.239  0.5610  0.8810 -0.4955
   47MOL   H32321575   7.451   1.458   0.167 -1.2427 -1.0256 -0.5280
   47MOL   O32421576   7.366   2.069   0.367 -0.1833 -0.4387 -0.5751
   47MOL   C32521577   7.487   2.127   0.328 -0.4533 -0.0680  0.1150
   47MOL   C32621578   7.492   2.263   0.396  0.4397  0.0855 -0.3155
   47MOL   O32721579   7.523   2.244   0.536 -0.4467  0.1938  0.1227
   47MOL   C32821580   7.424   2.231   0.632 -0.3119 -0.1908  0.2328
   47MOL   O32921581   7.313   2.282   0.616  0.7158  0.5722  0.4067
   47MOL   C33021582   7.466   2.169   0.756  0.1826 -0.4212 -0.5642
   47MOL   C33121583   7.602   2.133   0.776 -0.2272 -0.1806  0.1539
   47MOL   C33221584   7.633   2.074   0.901  0.7192 -0.3483  0.4140
   47MOL   C33321585   7.542   2.063   1.009  0.3280 -0.4156  0.1482
   47MOL   C33421586   7.585   2.012   1.133  0.4752  0.2658  0.0030
   47MOL   O33521587   7.521   2.020   1.238 -0.0947  0.0307  0.0096
   47MOL   O33621588   7.708   1.957   1.135 -0.0773  0.5162 -0.1339
   47MOL   C33721589   7.410   2.113   0.992  0.7019  0.1158 -1.0661
   47MOL   C33821590   7.375   2.161   0.867  0.3872 -0.2862  0.1822
   47MOL   H33921591   7.580   2.080   0.361 -0.2018  1.2358  1.2859
   47MOL   H34021592   7.491   2.147   0.221 -0.2315  0.0203  0.1405
   47MOL   H34121593   7.406   2.322   0.364  1.1410  0.9974 -0.5153
   47MOL   H34221594   7.584   2.307   0.357  1.9723 -0.2636  2.7480
   47MOL   H34321595   7.672   2.143   0.695 -1.8236  2.2913 -0.9791
   47MOL   H34421596   7.736   2.043   0.900  0.5730 -0.8191 -0.2392
   47MOL   H34521597   7.334   2.123   1.068 -0.6011  1.1779 -2.4847
   47MOL   H34621598   7.273   2.192   0.855  0.0414 -1.3643  0.2908
   47MOL   O34721599   7.743   1.903   1.273 -0.7340 -0.3310  0.2179
   47MOL   C34821600   7.835   1.995   1.330 -0.1478 -0.2232  0.3686
   47MOL   C34921601   7.901   1.930   1.461  0.2204 -1.3984 -0.3257
   47MOL   O35021602   8.039   1.881   1.450  0.1669 -0.0030  0.1159
   47MOL   C35121603   8.135   1.967   1.433  0.0820 -0.2081  0.1514
   47MOL   O35221604   8.127   2.074   1.367 -0.0156  0.4523  0.1538
   47MOL   C35321605   8.261   1.907   1.482 -0.2915  0.3585  0.2844
   47MOL   C35421606   0.103   1.981   1.486 -0.1965  0.3374  0.1916
   47MOL   C35521607   0.224   1.938   1.540  0.3466 -0.2889 -0.2282
   47MOL   C35621608   0.230   1.816   1.599  0.6074  0.2979 -0.5729
   47MOL   C35721609   0.347   1.768   1.668 -0.0681  0.3829 -0.1413
   47MOL   O35821610   0.351   1.653   1.715  0.1810 -0.4540 -0.7605
   47MOL   O35921611   0.450   1.861   1.686  0.5868  0.0608 -0.0584
   47MOL   C36021612   0.116   1.737   1.591 -0.1000  0.4683  0.5684
   47MOL   C36121613   8.270   1.775   1.546  0.2855  0.9077  0.5051
   47MOL   H36221614   7.906   2.025   1.252 -0.7782 -0.4366 -0.2817
   47MOL   H36321615   7.784   2.084   1.368  1.1522  1.2774 -1.2877
   47MOL   H36421616   7.837   1.852   1.502 -1.4756 -0.1695 -0.5758
   47MOL   H36521617   7.893   1.996   1.547 -1.1737 -1.9627 -0.0077
   47MOL   H36621618   0.099   2.083   1.449 -1.9849  0.1674 -0.1459
   47MOL   H36721619   0.312   2.000   1.539 -0.1645  0.5480  2.4700
   47MOL   H36821620   0.128   1.641   1.640 -1.9884  0.6729  1.4426
   47MOL   H36921621   8.180   1.716   1.547  1.7606 -1.4045 -0.0749
   47MOL   O37021622   0.566   1.830   1.763 -0.0277  0.1758  0.1954
   47MOL   C37121623   0.676   1.847   1.673 -0.3008 -0.4735  0.1800
   47MOL   C37221624   0.695   1.727   1.579 -0.1479 -0.9211  0.0229
   47MOL   O37321625   0.825   1.738   1.520  0.5404  0.0795 -0.1246
   47MOL   C37421626   0.848   1.815   1.418  0.4398 -0.0002  0.0329
   47MOL   O37521627   0.751   1.856   1.354 -0.3725 -0.3555  0.3483
   47MOL   C37621628   0.989   1.830   1.385  0.1690 -0.3887 -0.0447
   47MOL   C37721629   1.031   1.936   1.297  0.8845  0.0370 -0.4505
   47MOL   C37821630   1.164   1.967   1.288 -0.4260  0.5739  0.1455
   47MOL   C37921631   1.265   1.896   1.356 -0.2620  0.2222 -0.5066
   47MOL   C38021632   1.410   1.929   1.346 -0.1623 -0.0703 -0.3588
   47MOL   O38121633   1.455   2.021   1.268  0.0362  0.4494 -0.2094
   47MOL   O38221634   1.478   1.856   1.436 -0.1666 -0.9176  0.2436
   47MOL   C38321635   1.226   1.786   1.429 -0.1540 -0.0014 -0.2543
   47MOL   C38421636   1.090   1.749   1.448  0.1919 -0.2112 -0.1599
   47MOL   H38521637   0.653   1.934   1.611 -0.0366 -2.0493 -2.1982
   47MOL   H38621638   0.763   1.861   1.737 -1.3673 -0.7420  1.7179
   47MOL   H38721639   0.614   1.709   1.509 -0.0653  2.5368 -1.0372
   47MOL   H38821640   0.706   1.638   1.642 -2.1103 -1.0742  0.1869
   47MOL   H38921641   0.955   1.989   1.241  0.7864 -0.4543 -0.7928
   47MOL   H39021642   1.198   2.048   1.226  1.7045 -0.5499 -0.2398
   47MOL   H39121643   1.296   1.725   1.484 -1.3249 -1.7025 -0.6016
   47MOL   H39221644   1.062   1.663   1.507 -1.3218  1.0108  0.9843
   47MOL   O39321645   1.619   1.892   1.448  0.3816 -0.0807  0.3176
   47MOL   C39421646   1.694   1.791   1.377 -0.5354 -0.3253 -0.1231
   47MOL   C39521647   1.711   1.656   1.448  0.0229 -0.2465 -0.2877
   47MOL   O39621648   1.595   1.578   1.435 -0.2971  0.1751  0.9166
   47MOL   C39721649   1.579   1.491   1.339  0.8536 -0.0971 -0.2825
   47MOL   O39821650   1.657   1.497   1.236  0.4792  0.1159  0.0340
   47MOL   C39921651   1.463   1.402   1.365  0.4525 -0.8873 -0.0077
   47MOL   C40021652   1.366   1.424   1.469  0.3745 -0.0137 -0.1729
   47MOL   C40121653   1.252   1.343   1.486  0.6085  0.7364  0.7829
   47MOL   C40221654   1.241   1.230   1.399  0.0449  0.3173 -0.3665
   47MOL   C40321655   1.124   1.140   1.417 -0.6965  0.7042  0.0090
   47MOL   O40421656   1.078   1.054   1.343 -0.1577  0.4961 -0.1543
   47MOL   O40521657   1.075   1.149   1.545  0.7983  0.4222  0.2069
   47MOL   C40621658   1.331   1.213   1.296 -0.2768  0.0123 -0.6317
   47MOL   C40721659   1.441   1.296   1.277  0.3976  0.2328  0.1111
   47MOL   H40821660   1.671   1.771   1.273  1.1342 -0.4453 -0.4865
   47MOL   H40921661   1.794   1.835   1.371 -0.5883  0.0929  1.7831
   47MOL   H41021662   1.714   1.668   1.557  2.0599 -0.8261 -0.2699
   47MOL   H41121663   1.804   1.606   1.422 -1.2657 -1.7237 -2.2712
   47MOL   H41221664   1.367   1.508   1.537  1.3474 -0.2511  0.1099
   47MOL   H41321665   1.182   1.365   1.565 -1.3305 -1.2240 -0.3429
   47MOL   H41421666   1.314   1.130   1.228 -1.2711 -1.0175  0.8456
   47MOL   H41521667   1.509   1.273   1.196 -0.2277 -2.2741  0.2372
   47MOL   O41621668   0.962   1.058   1.578  0.0721  0.0381 -0.1350
   47MOL   C41721669   1.007   0.942   1.652 -0.4173 -0.2062  0.1316
   47MOL   C41821670   1.060   0.978   1.788  0.5132  0.1348  0.1628
   47MOL   O41921671   1.144   0.868   1.821 -0.3721  0.5595 -0.0282
   47MOL   C42021672   1.276   0.868   1.804 -0.4405  0.0452  0.7181
   47MOL   O42121673   1.333   0.961   1.763 -0.0841 -0.0025  0.3906
   47MOL   C42221674   1.341   0.737   1.842 -0.4407 -0.3913 -0.3253
   47MOL   C42321675   1.482   0.745   1.876 -0.0454  0.1120 -0.5969
   47MOL   C42421676   1.550   0.626   1.921  0.2166  0.3643 -0.2312
   47MOL   C42521677   1.482   0.499   1.926 -0.0761 -0.4460  0.0624
   47MOL   C42621678   1.548   0.383   1.995 -0.0668 -0.2374 -0.6674
   47MOL   O42721679   1.661   0.380   2.055  0.1182  0.1966  0.6371
   47MOL   O42821680   1.463   0.282   2.011 -0.1137 -0.3353 -0.6563
   47MOL   C42921681   1.348   0.495   1.883  1.1330  0.2344 -0.6220
   47MOL   C43021682   1.278   0.614   1.854  0.2487 -0.6570 -0.8077
   47MOL   H43121683   0.921   0.875   1.662 -0.5946  0.0563  0.3674
   47MOL   H43221684   1.073   0.890   1.582 -2.3035 -0.5277 -1.4744
   47MOL   H43321685   0.979   0.984   1.861  1.2854  1.9364  0.8891
   47MOL   H43421686   1.109   1.075   1.776 -0.5082  0.6378 -0.0375
   47MOL   H43521687   1.531   0.840   1.863 -0.1239  0.5671  2.0635
   47MOL   H43621688   1.654   0.637   1.947  0.1694  2.1214 -0.6804
   47MOL   H43721689   1.294   0.402   1.886  1.3339  0.1186 -0.6100
   47MOL   H43821690   1.174   0.589   1.844  0.5595 -2.9333  1.4260
   47MOL   O43921691   1.509   0.169   2.103 -0.1496 -0.5671 -0.0037
   47MOL   C44021692   1.424   0.164   2.217 -0.2468  0.3293  0.3189
   47MOL   C44121693   1.429   0.280   2.308  0.0563  0.3006  0.1471
   47MOL   O44221694   1.334   0.375   2.282 -0.3034 -0.3931  0.8183
   47MOL   C44321695   1.349   0.503   2.312 -0.6610 -0.1662  0.0973
   47MOL   O44421696   1.440   0.551   2.388 -0.4282  0.4143  0.0025
   47MOL   C44521697   1.232   0.589   2.268  0.1149  0.7984  0.6454
   47MOL   C44621698   1.131   0.538   2.187 -0.1647 -0.0414 -0.2371
   47MOL   C44721699   1.030   0.622   2.136  0.3716  0.0551  0.1995
   47MOL   C44821700   1.025   0.759   2.174  0.6119  0.0696  0.3718
   47MOL   C44921701   0.926   0.855   2.115  0.3109 -0.6619 -0.2448
   47MOL   O45021702   0.868   0.833   2.011 -0.2148 -0.0981  0.1118
   47MOL   O45121703   0.919   0.975   2.174 -0.2628 -0.0784 -0.1033
   47MOL   C45221704   1.129   0.807   2.258 -0.4797  0.2998  0.1847
   47MOL   C45321705   1.230   0.725   2.307 -0.5746 -0.3688 -0.3158
   47MOL   H45421706   1.322   0.143   2.183 -1.0234 -1.6499  3.5911
   47MOL   H45521707   1.453   0.085   2.286  0.5497  1.3505  1.1601
   47MOL   H45621708   1.529   0.322   2.295 -0.2228  0.7890 -0.4511
   47MOL   H45721709   1.418   0.249   2.412  1.7318  0.3651  0.3593
   47MOL   H45821710   1.131   0.434   2.156 -1.2554 -0.5573  1.3855
   47MOL   H45921711   0.966   0.583   2.058  0.1824  1.1911 -0.2175
   47MOL   H46021712   1.127   0.906   2.303  0.2955  1.1420 -1.5989
   47MOL   H46121713   1.294   0.766   2.384 -0.3778  1.3343 -1.3415
   47MOL   H46221714   0.863   1.024   2.117  0.5951  1.0844  0.0402
   48MOL     O121715   4.688   2.488   3.151 -0.3625  0.2374  0.3391
   48MOL     C221716   4.692   2.590   3.252  0.2668 -0.0690 -0.3781
   48MOL     C321717   4.834   2.644   3.264  0.2113  0.2945 -0.9166
   48MOL     O421718   4.851   2.733   3.160  0.0322  0.5494  0.1631
   48MOL     C521719   4.950   2.818   3.164  0.3639  0.4967  0.0287
   48MOL     O621720   5.038   2.820   3.244  1.3189  0.0737 -0.6262
   48MOL     C721721   4.934   2.919   3.061 -0.0506 -0.1046 -0.2311
   48MOL     C821722   5.051   2.995   3.023  0.4435  0.0043  0.2341
   48MOL     C921723   5.042   3.080   2.912 -0.0754 -0.1505  0.3063
   48MOL    C1021724   4.916   3.100   2.841 -0.7796 -0.5264  0.0390
   48MOL    C1121725   4.924   3.184   2.722  0.7128 -0.0787 -0.2093
   48MOL    O1221726   4.831   3.227   2.658 -0.0780 -0.4235  0.4208
   48MOL    O1321727   5.051   3.206   2.673 -0.4613 -0.0325  0.5970
   48MOL    C1421728   4.801   3.033   2.887 -0.5343 -0.4853  0.5224
   48MOL    C1521729   4.811   2.948   2.998 -0.1883  0.9135  0.3700
   48MOL    H1621730   4.614   2.666   3.250  1.6921  1.4424  0.3363
   48MOL    H1721731   4.669   2.549   3.351 -1.9687  0.9019 -0.4722
   48MOL    H1821732   4.913   2.569   3.261  0.2134  0.1465  1.7433
   48MOL    H1921733   4.848   2.688   3.363 -1.0605 -0.9304 -0.1714
   48MOL    H2021734   5.149   2.959   3.048  0.5841  0.0131 -0.3019
   48MOL    H2121735   5.132   3.132   2.880  0.1807 -1.0320 -0.4494
   48MOL    H2221736   4.701   3.026   2.846 -0.8357  0.1120  1.1265
   48MOL    H2321737   4.718   2.906   3.033  0.7629 -0.5248  1.2205
   48MOL    H2421738   4.721   2.532   3.074  0.4157  0.6548  0.9021
   48MOL    O2521739   5.056   3.287   2.547 -0.6996  0.0076  0.7849
   48MOL    C2621740   5.093   3.200   2.436  0.1276 -0.7134  0.0557
   48MOL    C2721741   5.165   3.268   2.320 -0.7879 -0.7158  0.8300
   48MOL    O2821742   5.088   3.366   2.265 -0.2124 -0.7169 -0.0289
   48MOL    C2921743   5.139   3.483   2.227 -0.0187  0.7267  0.0787
   48MOL    O3021744   5.256   3.506   2.231  0.0114  0.2544 -0.0105
   48MOL    C3121745   5.043   3.590   2.187 -0.2681  0.9556 -0.3416
   48MOL    C3221746   4.906   3.566   2.193  0.5910 -0.0510 -0.5025
   48MOL    C3321747   4.809   3.668   2.160 -0.1401 -0.4339 -0.0857
   48MOL    C3421748   4.853   3.795   2.114  0.1517 -0.3134  0.6448
   48MOL    C3521749   4.749   3.900   2.089  0.2072 -0.0990  0.0735
   48MOL    O3621750   4.630   3.882   2.092  0.4125  0.6579 -0.8003
   48MOL    O3721751   4.805   4.024   2.068  0.1151  0.0596 -0.3908
   48MOL    C3821752   4.990   3.814   2.091 -0.2531  0.0657  0.4108
   48MOL    C3921753   5.087   3.714   2.129 -0.0647  0.4998 -0.0323
   48MOL    H4021754   5.163   3.124   2.469  0.7805  0.7713  2.2145
   48MOL    H4121755   5.001   3.148   2.410  0.2996 -0.2844 -1.4881
   48MOL    H4221756   5.182   3.194   2.242  2.5796 -0.4082  1.1756
   48MOL    H4321757   5.263   3.311   2.343  0.1423 -1.7837 -1.0569
   48MOL    H4421758   4.865   3.477   2.240  1.9310  0.2151  1.2458
   48MOL    H4521759   4.702   3.663   2.174  0.1337  0.6616  2.7161
   48MOL    H4621760   5.032   3.907   2.055  0.9263 -1.9346 -3.7387
   48MOL    H4721761   5.193   3.730   2.117 -0.3358  2.4683  0.0323
   48MOL    O4821762   4.705   4.142   2.056  0.3291 -0.4879 -0.5070
   48MOL    C4921763   4.694   4.197   2.188 -0.3860 -0.0407  0.3864
   48MOL    C5021764   4.558   4.261   2.207  0.0614  0.7461  0.6563
   48MOL    O5121765   4.546   4.384   2.143 -1.0614 -0.4921 -0.3652
   48MOL    C5221766   4.430   4.458   2.165 -0.3016 -0.1672  0.0350
   48MOL    O5321767   4.332   4.419   2.231  0.4555  0.3229 -0.1223
   48MOL    C5421768   4.443   4.589   2.100 -0.2966  0.3561  0.5241
   48MOL    C5521769   4.331   4.665   2.070 -0.4073 -0.7326  0.3348
   48MOL    C5621770   4.351   4.780   1.986 -0.0633  0.0378  0.1241
   48MOL    C5721771   4.479   4.830   1.937 -0.5317  0.5169  0.7014
   48MOL    C5821772   4.480   4.948   1.840 -0.1755 -0.0617 -0.1388
   48MOL    O5921773   4.580   5.014   1.804 -0.3289 -0.2092  0.3073
   48MOL    O6021774   4.356   4.969   1.779  0.5409 -0.0838 -0.2330
   48MOL    C6121775   4.588   4.755   1.979 -0.5981  0.2228 -0.2306
   48MOL    C6221776   4.570   4.633   2.050  0.0105 -0.1958  0.9543
   48MOL    H6321777   4.694   4.115   2.260 -2.8835  0.5333  1.0648
   48MOL    H6421778   4.768   4.276   2.200  0.6059 -1.0564  1.2150
   48MOL    H6521779   4.553   4.288   2.313 -0.0914  2.1724  0.2982
   48MOL    H6621780   4.477   4.192   2.180  1.2527 -0.9880  1.4191
   48MOL    H6721781   4.230   4.632   2.089 -0.8323 -0.0545 -0.6777
   48MOL    H6821782   4.260   4.834   1.962  0.6706  1.4028  0.3618
   48MOL    H6921783   4.688   4.784   1.951  0.0330 -1.3971  0.2526
   48MOL    H7021784   4.662   4.578   2.066  0.1849 -0.0974  0.3134
   48MOL    O7121785   4.362   5.089   1.700 -0.6688 -0.7347  0.1719
   48MOL    C7221786   4.288   5.193   1.761 -0.1255  0.5777  0.3905
   48MOL    C7321787   4.376   5.261   1.870  0.1578 -0.2806  0.3983
   48MOL    O7421788   4.362   5.202   2.000  0.0091 -0.0373 -0.5772
   48MOL    C7521789   4.248   5.203   2.062  0.3197 -0.4687 -0.6406
   48MOL    O7621790   4.159   5.281   2.042 -0.0088 -0.6943 -0.1595
   48MOL    C7721791   4.246   5.114   2.174  0.2173  0.0489  0.2070
   48MOL    C7821792   4.351   5.027   2.208  0.0890 -0.8983  0.0231
   48MOL    C7921793   4.340   4.923   2.304  0.1328  0.1701  0.3004
   48MOL    C8021794   4.223   4.911   2.384  0.1597  0.0508  0.5498
   48MOL    C8121795   4.214   4.812   2.493  0.2893  0.6614  0.3572
   48MOL    O8221796   4.305   4.738   2.525 -0.1695 -0.4616  0.3566
   48MOL    O8321797   4.099   4.816   2.559 -0.2305 -0.0401 -0.6830
   48MOL    C8421798   4.119   4.999   2.347 -0.1815 -0.9472  0.3295
   48MOL    C8521799   4.127   5.102   2.254  0.6729  0.7452  0.1260
   48MOL    H8621800   4.262   5.268   1.686 -2.3966 -3.0285 -2.5637
   48MOL    H8721801   4.195   5.152   1.800 -0.1604  0.6984  0.4318
   48MOL    H8821802   4.347   5.364   1.890  0.3339 -0.3669  1.0831
   48MOL    H8921803   4.478   5.258   1.831 -0.2634 -0.6055 -0.7131
   48MOL    H9021804   4.446   5.039   2.157 -0.5313 -1.2189 -1.2396
   48MOL    H9121805   4.424   4.856   2.315 -2.6852 -3.2857  1.3813
   48MOL    H9221806   4.026   4.997   2.402  1.1292  1.9925  2.8265
   48MOL    H9321807   4.037   5.157   2.233 -0.2003 -0.5002  0.5483
   48MOL    O9421808   4.072   4.698   2.653  0.2396 -0.0846  0.3638
   48MOL    C9521809   4.085   4.746   2.788  0.2425 -0.4145  0.2904
   48MOL    C9621810   3.952   4.783   2.841  1.2293 -0.1558 -0.1524
   48MOL    O9721811   3.937   4.926   2.876 -0.0332 -0.5841  0.5034
   48MOL    C9821812   3.885   5.008   2.787 -0.1174  0.0642 -0.2626
   48MOL    O9921813   3.861   4.976   2.670 -0.5948  0.8698 -0.1526
   48MOL   C10021814   3.868   5.151   2.843  0.6081 -0.4243  0.0494
   48MOL   C10121815   3.770   5.227   2.785  0.2641 -0.2421 -0.6648
   48MOL   C10221816   3.742   5.359   2.828  0.1811  0.0807 -0.6876
   48MOL   C10321817   3.829   5.423   2.913  0.2658  0.2267 -0.0904
   48MOL   C10421818   3.806   5.565   2.939 -0.0919 -0.1758 -0.2210
   48MOL   O10521819   3.735   5.632   2.868  0.2880 -0.0357 -0.0847
   48MOL   O10621820   3.865   5.602   3.046  0.0227  0.5139  0.3091
   48MOL   C10721821   3.934   5.346   2.974 -0.0474 -0.3859  0.2497
   48MOL   C10821822   3.957   5.214   2.931  0.3675  0.0887 -0.0732
   48MOL   H10921823   4.133   4.675   2.855 -1.0388 -1.5066  0.0725
   48MOL   H11021824   4.146   4.836   2.793 -0.6303  0.2169 -0.2456
   48MOL   H11121825   3.949   4.725   2.934 -3.6438 -2.3395 -1.5227
   48MOL   H11221826   3.864   4.737   2.795  0.6693 -0.3243  1.0747
   48MOL   H11321827   3.711   5.187   2.704 -2.5964  1.4666  0.4970
   48MOL   H11421828   3.662   5.410   2.776 -0.1005  2.0921  1.6504
   48MOL   H11521829   3.999   5.392   3.047  0.5665 -2.0791  0.7880
   48MOL   H11621830   4.034   5.155   2.980 -1.5564 -0.9401  1.8371
   48MOL   O11721831   3.788   5.716   3.117  0.0834  0.2040  0.6075
   48MOL   C11821832   3.743   5.671   3.237  1.1160  0.4891  0.5332
   48MOL   C11921833   3.651   5.773   3.305 -0.5073  0.5391 -0.4191
   48MOL   O12021834   3.735   5.867   3.358  0.3100 -0.5463 -0.0929
   48MOL   C12121835   3.691   5.936   3.465  0.3218 -0.5279 -0.2258
   48MOL   O12221836   3.575   5.938   3.513 -0.3178 -0.2097  0.0895
   48MOL   C12321837   3.801   6.016   3.524 -0.6456 -0.2804  0.4465
   48MOL   C12421838   3.777   6.090   3.642 -0.6679 -0.1149 -0.1141
   48MOL   C12521839   3.885   6.157   3.699  1.1883 -0.1362 -0.3131
   48MOL   C12621840   4.012   6.156   3.645  0.1371  0.3260  0.4531
   48MOL   C12721841   4.121   6.242   3.702  0.2093  0.4797 -0.4439
   48MOL   O12821842   4.218   6.276   3.631  0.7150  0.1791 -0.2891
   48MOL   O12921843   4.100   6.275   3.827 -0.1893 -0.1000  0.0838
   48MOL   C13021844   4.037   6.077   3.524  0.1096 -0.0632 -0.7916
   48MOL   C13121845   3.928   6.014   3.466 -0.1061  0.0206  0.4561
   48MOL   H13221846   3.691   5.576   3.225  2.8337 -0.5058  0.7851
   48MOL   H13321847   3.831   5.648   3.297  1.1711  2.4384  1.2393
   48MOL   H13421848   3.609   5.717   3.388 -0.5063 -1.4412 -1.7338
   48MOL   H13521849   3.574   5.820   3.244  1.0001  2.3981 -0.9619
   48MOL   H13621850   3.679   6.089   3.688 -0.0499 -1.4514  1.1773
   48MOL   H13721851   3.857   6.217   3.784  0.8092 -2.3518  1.1779
   48MOL   H13821852   4.140   6.075   3.493  0.0332  0.8397 -1.1246
   48MOL   H13921853   3.946   5.938   3.391  0.5981 -0.1055  0.7414
   48MOL   O14021854   4.227   6.315   3.894 -0.6574  0.3843 -0.1634
   48MOL   C14121855   4.229   6.453   3.893 -0.2582  0.1659  0.4699
   48MOL   C14221856   4.357   6.502   3.962 -0.1171  0.8644 -0.6116
   48MOL   O14321857   4.359   6.474   4.102 -0.3420 -0.1326 -0.6861
   48MOL   C14421858   4.285   6.538   4.193  0.7206 -0.0805 -0.3179
   48MOL   O14521859   4.223   6.641   4.175 -0.0187  0.4162  0.6264
   48MOL   C14621860   4.282   6.465   4.319  0.3603 -0.1611  0.6774
   48MOL   C14721861   4.176   6.489   4.413  0.2091  0.0213  0.4623
   48MOL   C14821862   4.160   6.403   4.523 -0.0386 -0.2248 -0.2489
   48MOL   C14921863   4.250   6.297   4.544  0.1600 -0.5897 -0.2468
   48MOL   C15021864   4.242   6.212   4.671  0.4495 -0.1744  0.8708
   48MOL   O15121865   4.296   6.105   4.685 -0.3017  0.5341  0.4625
   48MOL   O15221866   4.177   6.265   4.769  0.2928 -0.3474 -0.1813
   48MOL   C15321867   4.361   6.285   4.465 -0.2053 -0.1827  0.1788
   48MOL   C15421868   4.373   6.356   4.344 -0.1135  0.3874  0.1080
   48MOL   H15521869   4.240   6.493   3.792  3.6438 -0.9229  0.3957
   48MOL   H15621870   4.137   6.482   3.944 -0.7759 -0.4815 -0.0944
   48MOL   H15721871   4.372   6.609   3.947 -0.2788  1.2560  1.7318
   48MOL   H15821872   4.435   6.452   3.906  1.0312  1.4402  0.4530
   48MOL   H15921873   4.104   6.568   4.399 -0.7933 -1.1390 -1.0394
   48MOL   H16021874   4.082   6.414   4.597  0.1606 -0.8597  0.0653
   48MOL   H16121875   4.420   6.197   4.485  1.1709  0.8311  0.6080
   48MOL   H16221876   4.451   6.329   4.275  0.1664  0.5862  0.3502
   48MOL   O16321877   4.140   6.170   4.882  0.0868 -0.4183  1.5350
   48MOL   C16421878   4.244   6.156   4.973  0.2410  0.7999  0.0966
   48MOL   C16521879   4.259   6.277   5.066 -0.2842 -0.2221  0.6537
   48MOL   O16621880   4.249   6.239   5.202  0.0113  0.3012  0.2329
   48MOL   C16721881   4.122   6.237   5.257 -0.2221 -0.2277  0.5595
   48MOL   O16821882   4.020   6.248   5.189  0.4247  0.1876  0.0054
   48MOL   C16921883   4.122   6.213   5.402  0.7020 -0.1660  0.4695
   48MOL   C17021884   4.239   6.184   5.478  0.9831 -0.2863 -0.7391
   48MOL   C17121885   4.244   6.161   5.616  0.3646 -0.0263  0.5133
   48MOL   C17221886   4.127   6.189   5.688  0.1968  0.6525  0.3856
   48MOL   C17321887   4.120   6.175   5.840  0.5760  0.1369 -0.2621
   48MOL   O17421888   4.027   6.206   5.910 -0.1511 -0.4145 -0.0318
   48MOL   O17521889   4.224   6.100   5.882 -0.0777  0.0347 -0.1957
   48MOL   C17621890   4.003   6.218   5.615 -0.2608  0.3890 -0.3255
   48MOL   C17721891   4.004   6.230   5.474  0.4357  0.3298  0.2069
   48MOL   H17821892   4.225   6.067   5.033 -0.2371  1.0892  0.3790
   48MOL   H17921893   4.339   6.151   4.921  0.7411  0.0042  1.0817
   48MOL   H18021894   4.199   6.363   5.036  0.9652  0.1202 -0.9552
   48MOL   H18121895   4.356   6.325   5.052  0.3258 -2.1133 -1.8634
   48MOL   H18221896   4.329   6.163   5.423  1.7150 -1.1952  0.7863
   48MOL   H18321897   4.338   6.134   5.661  0.9702 -1.0892 -1.3495
   48MOL   H18421898   3.908   6.235   5.664 -0.4782 -0.5311 -0.4156
   48MOL   H18521899   3.910   6.252   5.426 -0.3926 -0.2731  1.5180
   48MOL   O18621900   4.228   6.071   6.032  0.1829  0.4739 -0.5490
   48MOL   C18721901   4.333   6.155   6.091 -0.2160 -0.8569 -0.0439
   48MOL   C18821902   4.296   6.304   6.098  0.8696  0.2810 -0.2192
   48MOL   O18921903   4.402   6.386   6.040 -0.0349  0.0406  0.3553
   48MOL   C19021904   4.429   6.507   6.104 -0.2549  0.2196  0.2091
   48MOL   O19121905   4.369   6.549   6.203  0.7074 -0.2122  0.1466
   48MOL   C19221906   4.541   6.580   6.040 -0.1277  0.6918  0.5810
   48MOL   C19321907   4.566   6.717   6.075 -0.5120 -0.5654  0.7365
   48MOL   C19421908   4.676   6.785   6.020 -0.0458 -0.0045  0.2135
   48MOL   C19521909   4.768   6.720   5.937 -0.8567  0.2370  0.8580
   48MOL   C19621910   4.901   6.782   5.887  0.5198 -0.0166  0.0691
   48MOL   O19721911   4.963   6.744   5.792 -0.2384  0.0920 -0.1593
   48MOL   O19821912   4.941   6.895   5.953  0.0376 -0.1939 -0.3855
   48MOL   C19921913   4.746   6.587   5.901  0.1536  0.2695  0.6328
   48MOL   C20021914   4.629   6.525   5.948  0.2542  0.3269  0.0108
   48MOL   H20121915   4.365   6.122   6.190  1.7841 -1.5804 -0.8989
   48MOL   H20221916   4.418   6.137   6.025 -0.6027  0.0178 -0.7885
   48MOL   H20321917   4.274   6.317   6.204 -0.0840 -1.7653 -0.1365
   48MOL   H20421918   4.199   6.332   6.056  0.8365  1.7393  0.7742
   48MOL   H20521919   4.503   6.768   6.147  0.5304  0.1684  1.1382
   48MOL   H20621920   4.691   6.887   6.054  0.6152  0.1463 -0.5130
   48MOL   H20721921   4.815   6.541   5.832  0.7870  0.3099  1.2331
   48MOL   H20821922   4.613   6.421   5.924 -1.4202  0.5594  0.0908
   48MOL   O20921923   5.058   6.975   5.900 -0.2983  0.1534  0.0662
   48MOL   C21021924   5.163   6.937   5.983 -0.3926 -0.1003  1.0070
   48MOL   C21121925   5.293   7.022   5.962  0.0659  0.2198 -0.0888
   48MOL   O21221926   5.270   7.161   5.993  0.0480 -0.3675  0.2986
   48MOL   C21321927   5.371   7.243   6.006 -0.3256  0.4320  0.6834
   48MOL   O21421928   5.486   7.208   6.019 -0.6675 -0.5948  0.3152
   48MOL   C21521929   5.333   7.389   5.999  0.2739 -0.0382 -0.3317
   48MOL   C21621930   5.425   7.487   5.946 -0.3144  0.5640 -0.4346
   48MOL   C21721931   5.394   7.621   5.942 -0.0907  0.2153 -0.1137
   48MOL   C21821932   5.264   7.663   5.978  0.1864  0.1831  0.1068
   48MOL   C21921933   5.238   7.810   5.977  0.2950 -0.0553 -0.0338
   48MOL   O22021934   5.325   7.892   5.964 -0.0978 -0.0918  0.0820
   48MOL   O22121935   5.106   7.838   5.993  0.3620  0.5666 -0.2345
   48MOL   C22221936   5.173   7.567   6.022  0.3029  0.1572 -0.0518
   48MOL   C22321937   5.204   7.427   6.025 -0.2266 -0.0149 -0.0850
   48MOL   H22421938   5.127   6.949   6.085 -2.3492  1.5146  0.1514
   48MOL   H22521939   5.196   6.835   5.962  0.4715  0.9399 -3.2628
   48MOL   H22621940   5.333   7.005   5.861  0.3504  1.2304 -0.1533
   48MOL   H22721941   5.369   6.986   6.031 -0.7112 -0.9244  0.1842
   48MOL   H22821942   5.525   7.458   5.920 -0.3901 -2.3336  2.1243
   48MOL   H22921943   5.471   7.690   5.913  0.2597 -0.0708  0.1407
   48MOL   H23021944   5.072   7.601   6.039 -0.7559 -2.3705 -0.9569
   48MOL   H23121945   5.121   7.376   6.071 -0.9209  0.1666 -1.1061
   48MOL   O23221946   5.057   7.984   5.993  0.2405 -0.6032 -0.0499
   48MOL   C23321947   5.001   8.014   5.861 -0.4395 -0.1802 -0.2222
   48MOL   C23421948   4.848   7.998   5.865 -0.3196  0.5113  0.6811
   48MOL   O23521949   4.836   7.856   5.846 -0.5014  0.0479 -0.0695
   48MOL   C23621950   4.726   7.792   5.885 -0.0834  0.5665 -0.4397
   48MOL   O23721951   4.631   7.847   5.945  0.1001  0.7905 -0.5937
   48MOL   C23821952   4.726   7.649   5.862  0.8180  0.1679 -0.7409
   48MOL   C23921953   4.606   7.583   5.871 -0.8712  0.4595 -0.3321
   48MOL   C24021954   4.608   7.443   5.841  0.4991  0.8297 -0.3391
   48MOL   C24121955   4.731   7.376   5.813  0.2871 -0.3948 -0.6148
   48MOL   C24221956   4.743   7.227   5.793 -0.5965  0.0002  0.9075
   48MOL   O24321957   4.845   7.166   5.765  0.1568  0.5236 -0.2742
   48MOL   O24421958   4.629   7.161   5.812  0.5377  0.0664  0.6099
   48MOL   C24521959   4.849   7.443   5.814  0.4181 -0.1969  0.0925
   48MOL   C24621960   4.844   7.578   5.836 -0.0680  0.0544  0.0159
   48MOL   H24721961   5.016   8.122   5.849  0.2135 -0.2709 -0.2281
   48MOL   H24821962   5.055   7.971   5.777  0.5655  0.9713 -0.1867
   48MOL   H24921963   4.804   8.041   5.775  0.2744  1.3049  0.7644
   48MOL   H25021964   4.792   8.040   5.948 -0.6516  0.6409  0.3934
   48MOL   H25121965   4.512   7.628   5.901 -1.1528 -0.1945 -0.2017
   48MOL   H25221966   4.522   7.378   5.845  0.2509  1.1451 -0.5022
   48MOL   H25321967   4.940   7.389   5.794 -1.6461 -3.4736 -0.9521
   48MOL   H25421968   4.934   7.638   5.836 -0.8407  1.2422  1.0825
   48MOL   O25521969   4.643   7.013   5.818 -0.0426 -0.0761 -0.5064
   48MOL   C25621970   4.599   6.951   5.696 -0.0530 -0.1240 -0.4582
   48MOL   C25721971   4.507   6.824   5.719  0.0300 -0.1654 -0.3856
   48MOL   O25821972   4.373   6.867   5.737 -0.0964 -0.3941 -0.0252
   48MOL   C25921973   4.292   6.875   5.623  0.1558 -0.0258  0.3051
   48MOL   O26021974   4.336   6.859   5.505 -0.5084  0.2819 -0.1200
   48MOL   C26121975   4.148   6.903   5.649 -0.9088  0.5379  0.4100
   48MOL   C26221976   4.096   6.871   5.778  0.1171 -0.2759 -0.6091
   48MOL   C26321977   3.957   6.888   5.800 -0.4000  0.4815  0.0792
   48MOL   C26421978   3.871   6.926   5.695  0.4048  0.8673  0.0488
   48MOL   C26521979   3.722   6.920   5.708  0.1181 -0.6503 -0.5431
   48MOL   O26621980   3.664   6.899   5.814 -0.2242 -0.6476 -0.1469
   48MOL   O26721981   3.653   6.949   5.590  0.0732  0.1694 -0.0544
   48MOL   C26821982   3.924   6.967   5.573  0.1383 -0.3301 -0.3098
   48MOL   C26921983   4.067   6.956   5.546 -0.1624  0.2358 -0.6323
   48MOL   H27021984   4.534   7.012   5.632  0.2322 -1.0895 -1.6951
   48MOL   H27121985   4.689   6.931   5.638  0.0345  1.2768 -0.8362
   48MOL   H27221986   4.543   6.767   5.805 -1.0366 -2.1728 -1.2348
   48MOL   H27321987   4.521   6.759   5.633  0.2646  0.7527 -1.0540
   48MOL   H27421988   4.157   6.833   5.858 -0.9432 -1.4392 -0.3457
   48MOL   H27521989   3.920   6.864   5.899 -1.0914  0.6222 -0.1438
   48MOL   H27621990   3.855   6.996   5.495 -0.9814 -0.7394  0.5242
   48MOL   H27721991   4.113   6.982   5.452  0.4839  0.3582 -0.2891
   48MOL   O27821992   3.499   6.945   5.607 -0.3542  0.0274 -0.1006
   48MOL   C27921993   3.454   7.079   5.619  0.3218  0.0309  0.9029
   48MOL   C28021994   3.312   7.067   5.668 -0.1317 -0.3026 -0.7854
   48MOL   O28121995   3.225   7.164   5.601  0.2388  0.0309 -0.0885
   48MOL   C28221996   3.095   7.142   5.584 -0.3162  0.2780 -0.2603
   48MOL   O28321997   3.032   7.043   5.620  0.3845 -0.0373  0.3459
   48MOL   C28421998   3.030   7.262   5.508 -0.1502  0.3672 -0.8778
   48MOL   C28521999   2.892   7.278   5.495 -0.2321  0.1142 -0.2985
   48MOL   C28622000   2.836   7.398   5.438 -0.8321 -0.0115 -0.2337
   48MOL   C28722001   2.922   7.500   5.387 -1.0110 -0.0387 -0.9951
   48MOL   C28822002   2.870   7.630   5.339  0.4071 -0.0007  0.2247
   48MOL   O28922003   2.940   7.728   5.306  0.0302  0.3421 -0.2052
   48MOL   O29022004   2.731   7.634   5.344  0.0623  0.0696  0.3666
   48MOL   C29122005   3.064   7.482   5.402  0.2948 -0.7508 -0.3276
   48MOL   C29222006   3.116   7.368   5.461 -0.2012  0.4697  0.3977
   48MOL   H29322007   3.509   7.126   5.700  1.7456 -1.0023  0.5662
   48MOL   H29422008   3.462   7.140   5.529 -1.6994 -0.5641  0.3161
   48MOL   H29522009   3.290   7.060   5.775  0.7724  1.6834 -0.4403
   48MOL   H29622010   3.285   6.974   5.619  1.0417 -0.6198 -0.8512
   48MOL   H29722011   2.817   7.216   5.541 -1.1724  2.7012  1.8134
   48MOL   H29822012   2.730   7.416   5.450 -0.8809 -0.6928  0.3800
   48MOL   H29922013   3.129   7.556   5.357 -1.7950  0.4586 -1.4307
   48MOL   H30022014   3.224   7.362   5.462 -0.2703 -1.0645  0.1974
   48MOL   O30122015   2.674   7.754   5.272  0.6598  0.4729 -0.5403
   48MOL   C30222016   2.659   7.862   5.361 -0.3960  0.7198 -0.6844
   48MOL   C30322017   2.558   7.964   5.310 -0.3830 -0.1133  0.0894
   48MOL   O30422018   2.466   8.021   5.414  0.2199  0.4688  0.1383
   48MOL   C30522019   2.373   7.939   5.461  0.4012  0.4580 -0.1336
   48MOL   O30622020   2.362   7.822   5.423  0.3790 -0.5690  0.1726
   48MOL   C30722021   2.304   7.995   5.584  0.4173 -0.7731  0.8423
   48MOL   C30822022   2.345   8.113   5.648  0.1976 -0.4333 -0.0608
   48MOL   C30922023   2.283   8.150   5.770  0.1275  0.1924  0.3718
   48MOL   C31022024   2.196   8.062   5.836  0.4638  0.0749  0.4776
   48MOL   C31122025   2.155   8.101   5.975 -0.1691  0.4517 -0.4498
   48MOL   O31222026   2.151   8.216   6.021 -0.7029 -0.7719  0.0474
   48MOL   O31322027   2.129   7.989   6.048  0.0591  0.5046  0.0227
   48MOL   C31422028   2.147   7.944   5.770 -0.2129 -0.0247 -0.1673
   48MOL   C31522029   2.197   7.921   5.643 -0.1511 -0.4962 -0.1740
   48MOL   H31622030   2.621   7.811   5.449  1.3490 -1.2207 -1.0199
   48MOL   H31722031   2.754   7.908   5.390 -0.4662  0.0902  0.5576
   48MOL   H31822032   2.496   7.910   5.238  1.2388 -0.5734 -0.9889
   48MOL   H31922033   2.604   8.050   5.263 -1.2383 -0.6465 -1.8021
   48MOL   H32022034   2.425   8.177   5.614  1.0558 -0.7528  1.3228
   48MOL   H32122035   2.321   8.241   5.813  2.0877 -1.1547  1.5913
   48MOL   H32222036   2.066   7.881   5.803  0.8640 -2.2820 -1.7474
   48MOL   H32322037   2.160   7.832   5.595  1.4981 -1.2502 -0.0745
   48MOL   O32422038   2.102   8.021   6.195 -0.0558 -0.6300 -0.1171
   48MOL   C32522039   2.228   8.027   6.265 -0.7791 -0.6466  0.3246
   48MOL   C32622040   2.278   7.879   6.288 -0.1222 -0.7802  0.0758
   48MOL   O32722041   2.340   7.811   6.184  0.2065 -0.7000  0.1318
   48MOL   C32822042   2.385   7.690   6.192 -0.4695  0.1603  0.0296
   48MOL   O32922043   2.389   7.629   6.296 -0.2071 -0.0985 -0.1112
   48MOL   C33022044   2.422   7.633   6.055  0.0759  0.1168 -0.1307
   48MOL   C33122045   2.460   7.497   6.036  0.1311  0.1896 -0.1787
   48MOL   C33222046   2.497   7.451   5.912  0.5723 -0.1614  0.1654
   48MOL   C33322047   2.500   7.540   5.803  0.9586 -0.2030 -0.0341
   48MOL   C33422048   2.523   7.480   5.666  0.3225 -0.1111  0.1964
   48MOL   O33522049   2.581   7.373   5.642 -1.0262 -0.3321 -0.3356
   48MOL   O33622050   2.489   7.571   5.565  0.4782 -0.2854 -0.3242
   48MOL   C33722051   2.458   7.674   5.822 -0.3058  0.7598  0.4058
   48MOL   C33822052   2.425   7.721   5.948  0.3130 -0.2561  0.1820
   48MOL   H33922053   2.302   8.091   6.217 -1.1338  0.3591  1.1002
   48MOL   H34022054   2.220   8.066   6.366 -0.5662  1.0104 -0.2806
   48MOL   H34122055   2.193   7.818   6.319  0.0148 -1.2186 -0.4029
   48MOL   H34222056   2.332   7.863   6.382 -0.1647 -0.4920  0.1478
   48MOL   H34322057   2.467   7.416   6.108  0.2606  0.5852  0.2524
   48MOL   H34422058   2.537   7.351   5.902 -0.3125 -0.3388 -1.8265
   48MOL   H34522059   2.445   7.752   5.749 -0.1341  0.3063 -0.1111
   48MOL   H34622060   2.405   7.825   5.970  1.3432 -0.4310  2.0424
   48MOL   O34722061   2.487   7.517   5.422  0.0536 -0.2450  0.0269
   48MOL   C34822062   2.354   7.497   5.375 -0.9623  0.4174  0.0437
   48MOL   C34922063   2.377   7.452   5.235  0.6989  0.1016 -0.0012
   48MOL   O35022064   2.439   7.325   5.230 -0.6399 -0.2027  0.1066
   48MOL   C35122065   2.374   7.210   5.264 -0.2067  0.0457  0.3743
   48MOL   O35222066   2.255   7.202   5.255  0.5370 -0.1314 -0.2263
   48MOL   C35322067   2.473   7.091   5.288 -0.7294  0.0792  0.3057
   48MOL   C35422068   2.440   6.956   5.278  0.1215 -0.1410  0.0914
   48MOL   C35522069   2.538   6.856   5.304  0.3758 -0.6701  0.9208
   48MOL   C35622070   2.673   6.891   5.318 -0.3394 -0.4210 -0.1415
   48MOL   C35722071   2.773   6.785   5.352  0.2615 -0.6492 -0.0098
   48MOL   O35822072   2.747   6.667   5.351  0.0267 -0.2631  0.6579
   48MOL   O35922073   2.890   6.835   5.393 -0.2646  0.8379 -0.2884
   48MOL   C36022074   2.712   7.028   5.324 -0.2071 -0.8140  0.5800
   48MOL   C36122075   2.613   7.132   5.319 -0.2790  0.2519  0.7376
   48MOL   H36222076   2.328   7.422   5.450 -0.1148 -0.7008 -0.7798
   48MOL   H36322077   2.291   7.584   5.393  0.3880  1.5255 -0.4822
   48MOL   H36422078   2.434   7.535   5.194  0.6073  1.3752  2.3455
   48MOL   H36522079   2.282   7.454   5.182  0.4999  0.7361  0.3722
   48MOL   H36622080   2.341   6.919   5.252  0.3582  0.1194 -1.2268
   48MOL   H36722081   2.518   6.751   5.292  0.8240 -0.5996 -0.5247
   48MOL   H36822082   2.810   7.058   5.357 -1.3411  1.8830  1.5865
   48MOL   H36922083   2.646   7.233   5.338 -3.3294  1.1617  1.5475
   48MOL   O37022084   3.003   6.737   5.414 -0.2297  0.2184 -0.2667
   48MOL   C37122085   2.995   6.684   5.546  1.0004 -0.8024  0.0332
   48MOL   C37222086   3.108   6.582   5.563 -0.4228 -0.1010 -0.5805
   48MOL   O37322087   3.085   6.492   5.455 -0.1935 -0.0711  0.0868
   48MOL   C37422088   3.136   6.376   5.446  0.2019  0.0382  0.3759
   48MOL   O37522089   3.201   6.322   5.533 -0.9783  0.7273 -0.0450
   48MOL   C37622090   3.108   6.312   5.315  0.0292 -0.6182 -0.0314
   48MOL   C37722091   3.008   6.358   5.224  0.0122 -0.0062  0.9979
   48MOL   C37822092   2.989   6.292   5.100  0.3227 -0.3909 -0.3243
   48MOL   C37922093   3.084   6.194   5.066  0.2115  0.1839  0.1155
   48MOL   C38022094   3.079   6.125   4.934 -0.7117  0.0746 -0.0642
   48MOL   O38122095   3.158   6.032   4.910 -0.3045  0.8356 -0.3262
   48MOL   O38222096   2.987   6.170   4.840  0.0441  0.3599 -0.6316
   48MOL   C38322097   3.173   6.136   5.163  0.5725  0.4232 -0.7593
   48MOL   C38422098   3.189   6.201   5.286 -0.2914 -0.1704  0.4441
   48MOL   H38522099   2.986   6.764   5.619 -2.5438  0.6849 -1.8797
   48MOL   H38622100   2.903   6.628   5.565  1.5314 -1.1638  1.5648
   48MOL   H38722101   3.116   6.530   5.658  1.5714  0.5915 -0.3378
   48MOL   H38822102   3.206   6.629   5.555 -0.1948 -0.2509  1.1266
   48MOL   H38922103   2.950   6.446   5.249 -0.2043  0.4691 -1.1235
   48MOL   H39022104   2.921   6.333   5.026 -0.2132  0.6651  0.7370
   48MOL   H39122105   3.234   6.049   5.141 -1.4329 -1.2271 -0.0287
   48MOL   H39222106   3.267   6.168   5.353  1.1795  1.0097 -0.6422
   48MOL   O39322107   3.010   6.115   4.706 -0.1703 -0.1218 -0.4813
   48MOL   C39422108   2.896   6.040   4.671  0.5965  0.2232 -0.2337
   48MOL   C39522109   2.904   5.988   4.525 -0.0026 -0.5000  0.4857
   48MOL   O39622110   2.888   5.844   4.518 -0.4651 -0.3060 -0.9582
   48MOL   C39722111   2.770   5.788   4.540 -0.8352  0.7042  0.4167
   48MOL   O39822112   2.663   5.846   4.555 -0.2863 -0.0387  0.0664
   48MOL   C39922113   2.780   5.642   4.516 -0.7458  0.1720 -0.0883
   48MOL   C40022114   2.665   5.567   4.479 -0.3836 -0.3896  0.1452
   48MOL   C40122115   2.667   5.434   4.454 -0.2984 -0.3043 -0.1383
   48MOL   C40222116   2.785   5.362   4.466 -0.2287 -0.6377 -0.2456
   48MOL   C40322117   2.792   5.216   4.432  1.0195 -0.2424 -0.3941
   48MOL   O40422118   2.711   5.128   4.469 -0.1254  0.1806 -0.2108
   48MOL   O40522119   2.888   5.188   4.340 -0.4574 -0.1249  0.2908
   48MOL   C40622120   2.904   5.431   4.505  0.2309  0.0724  0.5131
   48MOL   C40722121   2.901   5.569   4.528  0.0560 -0.2758  0.0141
   48MOL   H40822122   2.878   5.956   4.738  1.2914  0.8057  0.7053
   48MOL   H40922123   2.807   6.103   4.680 -1.8759 -3.4241  2.1704
   48MOL   H41022124   2.993   6.017   4.469 -0.8346 -3.7587 -2.6969
   48MOL   H41122125   2.819   6.028   4.470 -0.8186 -2.8326 -0.0230
   48MOL   H41222126   2.575   5.627   4.471 -0.0880 -0.1503 -1.5855
   48MOL   H41322127   2.577   5.385   4.421 -1.8763  2.5906 -0.3029
   48MOL   H41422128   2.996   5.377   4.521 -0.5265 -0.6654  2.6794
   48MOL   H41522129   2.990   5.627   4.549 -0.0329  1.0974 -3.0654
   48MOL   O41622130   2.890   5.045   4.290  0.6451  0.2575  0.5625
   48MOL   C41722131   3.002   4.986   4.356  0.2745 -0.3823 -0.4118
   48MOL   C41822132   3.010   4.839   4.309 -0.2125 -0.3038  0.7402
   48MOL   O41922133   2.980   4.744   4.411  0.1549  0.1622 -0.2946
   48MOL   C42022134   2.937   4.619   4.373 -0.5825  0.2971  0.4876
   48MOL   O42122135   2.918   4.587   4.256  0.5190 -0.2063 -0.8889
   48MOL   C42222136   2.920   4.521   4.489  0.6168  0.2242 -0.1333
   48MOL   C42322137   2.895   4.573   4.618 -0.5952 -0.0735 -0.1613
   48MOL   C42422138   2.863   4.488   4.726 -0.4317  0.9175 -0.3014
   48MOL   C42522139   2.863   4.349   4.702 -0.1891 -0.3503  0.2057
   48MOL   C42622140   2.829   4.250   4.802 -0.0227  0.4483 -0.5250
   48MOL   O42722141   2.806   4.133   4.768 -0.3477  0.3933  0.0845
   48MOL   O42822142   2.823   4.299   4.925 -0.3653  0.1413 -0.0461
   48MOL   C42922143   2.906   4.298   4.575  0.5075 -0.3423 -0.2777
   48MOL   C43022144   2.940   4.382   4.470 -0.1610 -0.1234  0.2365
   48MOL   H43122145   3.093   5.041   4.332  1.4019 -2.0988 -0.1897
   48MOL   H43222146   2.974   4.995   4.460  0.6396  1.6605 -0.4720
   48MOL   H43322147   3.108   4.819   4.266 -0.6428  1.0200 -0.9161
   48MOL   H43422148   2.934   4.840   4.231  1.4195 -1.0494 -0.8966
   48MOL   H43522149   2.892   4.678   4.640 -0.2634 -0.3329  1.1526
   48MOL   H43622150   2.834   4.534   4.819 -1.3213  0.8171 -0.5161
   48MOL   H43722151   2.903   4.192   4.551  0.0893 -0.4324  0.1614
   48MOL   H43822152   2.970   4.339   4.375 -1.2166  3.2394 -1.7114
   48MOL   O43922153   2.766   4.205   5.029  0.3756 -0.5063  0.1804
   48MOL   C44022154   2.644   4.268   5.065  0.3905  0.4803  0.0736
   48MOL   C44122155   2.568   4.153   5.121 -0.2455  0.6331 -0.6635
   48MOL   O44222156   2.478   4.103   5.024 -0.5621 -0.1022 -0.7947
   48MOL   C44322157   2.346   4.126   5.029 -0.7079 -0.3287 -0.0127
   48MOL   O44422158   2.289   4.181   5.123  0.8062  0.7833 -0.0402
   48MOL   C44522159   2.284   4.077   4.903  0.5732  0.5342  0.3033
   48MOL   C44622160   2.153   4.113   4.877 -0.1138  0.8054  0.1709
   48MOL   C44722161   2.085   4.053   4.773  0.2466  0.0652 -0.3973
   48MOL   C44822162   2.143   3.966   4.679  0.3586  0.6098 -0.2170
   48MOL   C44922163   2.068   3.898   4.567 -0.3854  0.0267 -0.4075
   48MOL   O45022164   2.122   3.843   4.469  0.3357  0.2552 -0.5475
   48MOL   O45122165   1.933   3.910   4.577  0.1586  0.5909  0.2481
   48MOL   C45222166   2.286   3.936   4.702 -0.1122  0.9557  0.6624
   48MOL   C45322167   2.349   3.980   4.820  0.5821  0.1773 -0.1016
   48MOL   H45422168   2.651   4.354   5.132  1.3904 -0.3569  1.0809
   48MOL   H45522169   2.587   4.307   4.982 -2.0740 -2.5176  0.2653
   48MOL   H45622170   2.523   4.177   5.217  2.2941 -1.6163  1.1428
   48MOL   H45722171   2.633   4.070   5.150  0.2977  1.3824  0.2962
   48MOL   H45822172   2.095   4.188   4.929 -1.5119  0.3185 -0.6414
   48MOL   H45922173   1.985   4.085   4.748 -0.8045 -1.4954  1.6602
   48MOL   H46022174   2.337   3.878   4.626 -1.8232 -0.2863  0.4445
   48MOL   H46122175   2.454   3.960   4.832  0.5795  1.1411  1.7139
   48MOL   H46222176   1.889   3.850   4.519  0.7194 -1.7408  2.1591
   49MOL     O122177   4.322   5.746   4.111  0.3011 -0.8847 -0.4768
   49MOL     C222178   4.362   5.742   4.249  0.1818  0.0841  0.0982
   49MOL     C322179   4.350   5.874   4.323 -0.2543 -0.3958 -0.5075
   49MOL     O422180   4.470   5.951   4.314 -0.0791 -0.1197 -0.1308
   49MOL     C522181   4.483   6.058   4.227  0.4651 -0.1048  0.3479
   49MOL     O622182   4.391   6.080   4.149  0.0717 -0.2729 -0.7610
   49MOL     C722183   4.619   6.119   4.223 -0.6506 -0.0965  0.6138
   49MOL     C822184   4.650   6.227   4.133  0.3326  0.0451  0.2599
   49MOL     C922185   4.777   6.290   4.131 -0.6470  0.7043 -0.3671
   49MOL    C1022186   4.884   6.250   4.214  0.2468  0.0689 -0.4834
   49MOL    C1122187   5.026   6.300   4.213  0.6341  0.0508  0.3011
   49MOL    O1222188   5.063   6.407   4.170 -0.1845 -0.0683  0.0370
   49MOL    O1322189   5.107   6.216   4.269  0.4952 -0.4009  0.3421
   49MOL    C1422190   4.848   6.149   4.311  0.1281 -0.1030  0.5350
   49MOL    C1522191   4.724   6.082   4.310 -0.6781 -0.9180 -0.2996
   49MOL    H1622192   4.292   5.672   4.294 -1.4235  0.6709 -1.4457
   49MOL    H1722193   4.466   5.707   4.257  0.2586  0.1435 -0.6179
   49MOL    H1822194   4.335   5.840   4.426 -0.5382 -0.3128 -0.5203
   49MOL    H1922195   4.261   5.933   4.301  0.1373  1.9113  3.4652
   49MOL    H2022196   4.573   6.262   4.065  1.2794 -0.4127 -1.0595
   49MOL    H2122197   4.786   6.378   4.069 -2.6744 -0.3148 -2.1995
   49MOL    H2222198   4.919   6.115   4.384 -2.2712  0.7806  3.4150
   49MOL    H2322199   4.705   5.998   4.374  1.1529  0.6903  2.4389
   49MOL    H2422200   4.386   5.794   4.060 -0.6392 -0.2924 -1.1250
   49MOL    O2522201   5.243   6.275   4.308 -0.5534 -0.1106 -0.0412
   49MOL    C2622202   5.234   6.324   4.442  0.5652 -0.4118  0.4425
   49MOL    C2722203   5.371   6.373   4.492  0.3804  0.7325 -0.8273
   49MOL    O2822204   5.459   6.270   4.528  0.7539 -0.4333  0.0809
   49MOL    C2922205   5.448   6.207   4.643  0.3337  0.1455  0.9181
   49MOL    O3022206   5.360   6.229   4.728 -0.2149 -0.3978 -0.2857
   49MOL    C3122207   5.534   6.085   4.653 -0.0929 -0.9152  0.6736
   49MOL    C3222208   5.521   6.005   4.766  0.3658  0.2180 -0.8928
   49MOL    C3322209   5.597   5.889   4.778  1.1324 -1.0597 -0.0680
   49MOL    C3422210   5.702   5.860   4.685  0.0667  0.2494  0.2837
   49MOL    C3522211   5.798   5.746   4.716 -0.0800  0.5531 -1.1383
   49MOL    O3622212   5.796   5.683   4.822 -0.0452  0.2564 -0.2852
   49MOL    O3722213   5.882   5.713   4.616 -0.1275 -0.4151  0.3098
   49MOL    C3822214   5.720   5.945   4.576 -0.1693 -0.3142  0.2965
   49MOL    C3922215   5.641   6.064   4.563  0.2613  0.1376  0.5918
   49MOL    H4022216   5.163   6.407   4.442  1.4608  0.3810  2.3670
   49MOL    H4122217   5.201   6.239   4.502  0.4132  0.2017  1.2371
   49MOL    H4222218   5.363   6.440   4.577  1.7127 -1.3458  1.0035
   49MOL    H4322219   5.424   6.434   4.418  0.7185  0.4153 -0.8548
   49MOL    H4422220   5.448   6.028   4.843  0.7926 -0.6489 -0.2294
   49MOL    H4522221   5.577   5.829   4.866  2.1269  0.2278  1.0413
   49MOL    H4622222   5.809   5.934   4.515  0.6302 -0.9688  1.5813
   49MOL    H4722223   5.669   6.135   4.486 -2.2680 -0.0046 -0.5157
   49MOL    O4822224   5.980   5.602   4.643 -0.9970  0.0163 -1.0845
   49MOL    C4922225   5.922   5.473   4.650 -0.1926 -0.1119  0.3159
   49MOL    C5022226   5.871   5.427   4.514 -0.8874 -0.1177 -0.3400
   49MOL    O5122227   5.739   5.484   4.487  0.3510  0.1595 -0.0934
   49MOL    C5222228   5.664   5.441   4.385 -0.6085  0.4123 -0.8242
   49MOL    O5322229   5.690   5.340   4.315  0.1403 -0.6958 -0.0048
   49MOL    C5422230   5.552   5.535   4.364 -0.4221  0.0552  0.2663
   49MOL    C5522231   5.461   5.512   4.260 -0.4937  0.2005  0.4584
   49MOL    C5622232   5.350   5.597   4.231 -0.6575 -0.4113 -0.1990
   49MOL    C5722233   5.318   5.705   4.315 -0.5413  0.5861  0.2133
   49MOL    C5822234   5.190   5.785   4.297 -0.5497  0.4269  0.6013
   49MOL    O5922235   5.123   5.780   4.191 -0.4917  0.0862 -0.1714
   49MOL    O6022236   5.159   5.849   4.409  0.1834  0.2883  0.3716
   49MOL    C6122237   5.405   5.733   4.424 -0.0000 -0.2458  0.3560
   49MOL    C6222238   5.524   5.655   4.438 -0.7072 -0.0862 -0.2199
   49MOL    H6322239   5.996   5.400   4.685 -0.7950 -0.7709  0.2371
   49MOL    H6422240   5.852   5.466   4.733 -1.6396  0.4533 -0.8370
   49MOL    H6522241   5.868   5.318   4.522 -2.8670  0.0218  1.3650
   49MOL    H6622242   5.938   5.464   4.437 -0.9652 -1.1415 -0.9068
   49MOL    H6722243   5.470   5.419   4.205 -2.7827  0.8797 -1.2041
   49MOL    H6822244   5.278   5.575   4.154  0.1272 -0.7322 -0.8461
   49MOL    H6922245   5.387   5.816   4.491  0.1875 -0.3768  0.5708
   49MOL    H7022246   5.589   5.676   4.521 -0.7782  0.3543 -0.2776
   49MOL    O7122247   5.018   5.898   4.419  0.0339  0.0815  0.7756
   49MOL    C7222248   4.929   5.799   4.475  0.5969  0.0529  0.7809
   49MOL    C7322249   4.977   5.774   4.625  0.4226  0.5521  0.1547
   49MOL    O7422250   5.088   5.678   4.631  0.6321  0.0729 -0.1014
   49MOL    C7522251   5.062   5.554   4.617  0.2993 -1.0309  0.0113
   49MOL    O7622252   4.951   5.502   4.590 -0.0445 -0.4400  0.0955
   49MOL    C7722253   5.192   5.482   4.615 -0.5200 -0.2324 -0.6359
   49MOL    C7822254   5.201   5.365   4.540 -0.1323 -0.4480  0.0076
   49MOL    C7922255   5.323   5.284   4.531 -0.8759  0.5057  0.4995
   49MOL    C8022256   5.430   5.320   4.620 -0.3078  0.0914 -0.0161
   49MOL    C8122257   5.542   5.228   4.638  0.5859  0.1798  0.0618
   49MOL    O8222258   5.571   5.145   4.554 -0.0216 -0.0734  0.2650
   49MOL    O8322259   5.621   5.260   4.748 -0.2462  0.6976 -0.0772
   49MOL    C8422260   5.429   5.444   4.687  0.1173 -0.0077  0.1442
   49MOL    C8522261   5.310   5.520   4.695  0.4154 -0.7866  0.7173
   49MOL    H8622262   4.830   5.843   4.486  0.6912  0.5091 -0.1867
   49MOL    H8722263   4.917   5.718   4.403 -2.3198  0.4579  0.7630
   49MOL    H8822264   4.900   5.723   4.683  2.4692 -2.3103  0.4758
   49MOL    H8922265   5.006   5.858   4.687  0.6226  2.1572 -2.0678
   49MOL    H9022266   5.116   5.333   4.480 -0.2781 -0.6762  0.3372
   49MOL    H9122267   5.314   5.191   4.478  0.0599  0.8266 -0.2551
   49MOL    H9222268   5.516   5.466   4.747  2.2697 -4.0939 -1.2959
   49MOL    H9322269   5.313   5.611   4.753  0.1705  0.2863 -0.9328
   49MOL    O9422270   5.754   5.177   4.748  0.1745  0.4921  0.1629
   49MOL    C9522271   5.738   5.052   4.808  0.9296  0.0789 -0.3812
   49MOL    C9622272   5.851   4.950   4.789 -0.4906  0.3204 -0.4579
   49MOL    O9722273   5.965   5.004   4.842 -0.1574 -0.0051  0.1001
   49MOL    C9822274   6.037   5.095   4.771  1.0793 -0.5077 -0.8458
   49MOL    O9922275   6.005   5.149   4.665  0.4252  0.4396  0.3340
   49MOL   C10022276   6.170   5.124   4.833  0.2648  0.3636  0.2900
   49MOL   C10122277   6.221   5.039   4.938  0.3895  0.0654 -0.4813
   49MOL   C10222278   6.341   5.084   5.005 -0.6211  0.3627 -0.0532
   49MOL   C10322279   6.412   5.196   4.960 -0.1317 -0.5985 -0.7870
   49MOL   C10422280   6.550   5.234   5.015 -0.2786  0.9192  0.0776
   49MOL   O10522281   6.628   5.159   5.066 -0.2767  0.2810 -0.3203
   49MOL   O10622282   6.570   5.367   5.007 -0.5249 -0.8290 -0.0579
   49MOL   C10722283   6.371   5.271   4.841  1.1682  0.2601  0.4200
   49MOL   C10822284   6.242   5.234   4.787  0.9503  0.6063 -0.2622
   49MOL   H10922285   5.720   5.068   4.914 -1.6866 -2.5219 -0.3599
   49MOL   H11022286   5.645   5.008   4.773 -0.0987  1.4505  0.5857
   49MOL   H11122287   5.874   4.915   4.688 -0.2327 -2.1122  0.4264
   49MOL   H11222288   5.827   4.856   4.838 -3.0256 -0.4621 -3.0050
   49MOL   H11322289   6.173   4.951   4.977  2.9805 -0.1934  2.2485
   49MOL   H11422290   6.391   5.026   5.081  0.6274 -0.1527 -1.2486
   49MOL   H11522291   6.434   5.347   4.798  0.4918 -0.1841 -1.3826
   49MOL   H11622292   6.197   5.297   4.712  0.1471 -0.5526 -0.7692
   49MOL   O11722293   6.678   5.419   5.095 -0.2196 -0.1496 -0.0037
   49MOL   C11822294   6.806   5.434   5.024  0.2618  0.5478 -0.2860
   49MOL   C11922295   6.815   5.559   4.936 -0.5107 -0.3766  0.5964
   49MOL   O12022296   6.951   5.573   4.883  0.4579 -0.4368 -0.0640
   49MOL   C12122297   6.982   5.642   4.769 -0.1894 -0.2895  0.8939
   49MOL   O12222298   6.901   5.710   4.708  0.1256 -0.5326 -0.3617
   49MOL   C12322299   7.125   5.628   4.722  0.8366 -0.4080 -0.6228
   49MOL   C12422300   7.182   5.724   4.636 -0.5566 -0.5207 -0.4354
   49MOL   C12522301   7.312   5.707   4.587 -0.4491 -0.1796  0.4938
   49MOL   C12622302   7.386   5.593   4.620 -0.4124  0.5553 -0.0124
   49MOL   C12722303   7.513   5.573   4.548 -0.5450  0.0998  0.2590
   49MOL   O12822304   7.570   5.660   4.478 -0.0787  0.2268 -0.2793
   49MOL   O12922305   7.567   5.453   4.570  0.8278  0.0425  0.6306
   49MOL   C13022306   7.334   5.504   4.719 -0.2075 -0.4935  0.6899
   49MOL   C13122307   7.200   5.522   4.761  0.3630  0.4413 -0.2295
   49MOL   H13222308   6.876   5.442   5.107  1.8694 -4.1223 -1.0499
   49MOL   H13322309   6.839   5.346   4.968 -0.2268  0.2473 -0.1015
   49MOL   H13422310   6.796   5.648   4.996  1.3398  1.4132 -1.3648
   49MOL   H13522311   6.743   5.546   4.855 -1.3428  0.2639  1.2269
   49MOL   H13622312   7.119   5.807   4.607 -0.4519 -0.0212  0.7677
   49MOL   H13722313   7.360   5.772   4.515 -0.2859  0.9278  1.6102
   49MOL   H13822314   7.386   5.416   4.754 -1.5452 -1.3356  0.5939
   49MOL   H13922315   7.168   5.443   4.827  1.0654  0.2311 -0.1325
   49MOL   O14022316   7.702   5.431   4.495 -0.4667  0.4608 -0.0051
   49MOL   C14122317   7.817   5.445   4.584 -0.0049 -0.1283 -0.1556
   49MOL   C14222318   7.942   5.467   4.503 -0.9615  0.6497  0.3724
   49MOL   O14322319   7.994   5.352   4.442 -0.1206 -0.1479 -1.2837
   49MOL   C14422320   7.951   5.315   4.320 -0.8591  0.2376  0.2992
   49MOL   O14522321   7.846   5.358   4.267  0.2641  0.5562  0.6326
   49MOL   C14622322   8.047   5.219   4.252 -0.0987 -0.5288  0.0264
   49MOL   C14722323   8.020   5.173   4.124  0.9183  0.0451  0.5260
   49MOL   C14822324   8.108   5.090   4.062 -0.1206 -0.2092  0.3578
   49MOL   C14922325   8.236   5.054   4.111  0.3149  0.0431 -0.4502
   49MOL   C15022326   0.057   4.981   4.022  0.3268 -0.1630 -0.1775
   49MOL   O15122327   0.033   4.931   3.914  0.5574  0.2990  0.1328
   49MOL   O15222328   0.182   4.981   4.072  0.1366 -0.0773 -0.3435
   49MOL   C15322329   8.261   5.096   4.241 -0.0998 -0.1444 -0.6427
   49MOL   C15422330   8.168   5.178   4.316  0.4227  1.5160 -0.2334
   49MOL   H15522331   7.798   5.540   4.635 -1.6527  0.6871 -2.2035
   49MOL   H15622332   7.826   5.369   4.662  0.8688 -0.0924 -0.2204
   49MOL   H15722333   8.018   5.497   4.575 -0.0730  2.1573 -1.1500
   49MOL   H15822334   7.919   5.555   4.443 -3.9795  0.2095  0.8076
   49MOL   H15922335   7.924   5.195   4.080  0.0350 -3.0336  0.7969
   49MOL   H16022336   8.094   5.064   3.959 -0.1079  0.0130  0.2989
   49MOL   H16122337   0.066   5.057   4.302 -0.4766 -0.9657 -0.6541
   49MOL   H16222338   8.197   5.208   4.415  2.8235 -0.4962 -0.2724
   49MOL   O16322339   0.287   4.902   3.993  0.1228 -0.0081  0.0039
   49MOL   C16422340   0.335   4.798   4.077  0.9565 -0.1818 -0.4851
   49MOL   C16522341   0.256   4.669   4.053 -1.0523  0.0799 -0.1131
   49MOL   O16622342   0.123   4.685   4.098 -0.2583 -0.2156  0.7407
   49MOL   C16722343   0.067   4.597   4.187 -0.0881 -0.0065 -0.3608
   49MOL   O16822344   0.113   4.486   4.202 -0.1841  0.7853  0.5560
   49MOL   C16922345   8.222   4.657   4.257 -0.0104  0.0544  0.5530
   49MOL   C17022346   8.130   4.733   4.177  0.0085  0.1306 -0.9763
   49MOL   C17122347   8.029   4.804   4.244 -0.1620 -0.0729  0.3486
   49MOL   C17222348   8.011   4.800   4.386  1.1085  0.8777  0.5883
   49MOL   C17322349   7.901   4.875   4.460  0.0453 -0.1179 -0.1340
   49MOL   O17422350   7.840   4.832   4.559 -0.8013  0.3152  0.0202
   49MOL   O17522351   7.875   4.992   4.403 -0.1587 -0.3463  0.1922
   49MOL   C17622352   8.095   4.711   4.459 -0.1447  0.2671  0.3670
   49MOL   C17722353   8.197   4.643   4.391  0.0557 -0.3620 -0.2272
   49MOL   H17822354   0.441   4.778   4.057  0.9833  0.6942 -1.2487
   49MOL   H17922355   0.324   4.829   4.181 -1.4817  0.8803 -1.0340
   49MOL   H18022356   0.316   4.592   4.101 -1.6878 -1.4920 -1.7925
   49MOL   H18122357   0.248   4.649   3.946 -3.4089 -2.5573  0.5118
   49MOL   H18222358   8.150   4.734   4.071  3.4593  0.7523 -0.3764
   49MOL   H18322359   7.970   4.873   4.185  0.2247  0.7489  0.9074
   49MOL   H18422360   8.087   4.696   4.565  0.4276 -0.5088  0.3002
   49MOL   H18522361   8.260   4.580   4.452  1.1334  0.6935 -0.2114
   49MOL   O18622362   7.794   5.079   4.495  0.3463 -0.1044  0.0064
   49MOL   C18722363   7.664   5.088   4.439  0.3670 -0.2198 -0.2689
   49MOL   C18822364   7.569   4.964   4.456  0.5630 -0.0042  0.0775
   49MOL   O18922365   7.601   4.866   4.354  0.0565 -0.2772  0.5722
   49MOL   C19022366   7.557   4.876   4.222  0.4287  0.2167 -0.3127
   49MOL   O19122367   7.479   4.962   4.179 -0.0431  0.1750 -0.0411
   49MOL   C19222368   7.614   4.768   4.134  0.5621 -0.3557 -0.4226
   49MOL   C19322369   7.693   4.652   4.170  0.6505  0.3218  0.8879
   49MOL   C19422370   7.740   4.565   4.073  0.0322  0.7997  0.2713
   49MOL   C19522371   7.717   4.589   3.935 -0.0783 -0.8706  0.2942
   49MOL   C19622372   7.780   4.502   3.833 -0.3710 -0.2249  0.5518
   49MOL   O19722373   7.760   4.505   3.711  0.5485  0.3763  0.3726
   49MOL   O19822374   7.855   4.403   3.885  0.3334  1.0609 -0.2567
   49MOL   C19922375   7.632   4.689   3.897 -0.0843 -0.5103  0.1922
   49MOL   C20022376   7.585   4.778   3.997  0.2612 -0.0506  0.3668
   49MOL   H20122377   7.625   5.177   4.489  2.1425  1.1951 -1.3495
   49MOL   H20222378   7.669   5.112   4.333 -1.3011 -1.5101 -0.6639
   49MOL   H20322379   7.466   4.999   4.452  0.3098 -0.7025  0.5231
   49MOL   H20422380   7.576   4.932   4.560  0.2956  0.5827  0.2797
   49MOL   H20522381   7.724   4.647   4.274  2.4352 -0.1282  0.3624
   49MOL   H20622382   7.804   4.484   4.104  0.3238  0.7087 -0.5476
   49MOL   H20722383   7.608   4.698   3.792  2.1148  1.6253 -0.1655
   49MOL   H20822384   7.522   4.862   3.971 -1.8841 -2.4319 -2.5496
   49MOL   O20922385   7.921   4.323   3.774  0.3473  0.1241 -0.4778
   49MOL   C21022386   7.840   4.207   3.746  0.1162 -0.0333 -0.0499
   49MOL   C21122387   7.875   4.146   3.606  0.7328 -0.4803  0.2670
   49MOL   O21222388   8.005   4.092   3.594  0.4649 -0.1743 -0.1323
   49MOL   C21322389   8.090   4.143   3.504  1.2060  0.7026 -0.3050
   49MOL   O21422390   8.064   4.236   3.431  0.8713  0.8013 -0.2445
   49MOL   C21522391   8.224   4.084   3.504  0.0188  0.2109 -0.5622
   49MOL   C21622392   8.264   3.998   3.612 -0.0146 -0.5542  0.6615
   49MOL   C21722393   0.121   3.941   3.607 -0.7078 -0.2909 -0.3076
   49MOL   C21822394   0.217   3.982   3.518 -0.1335 -0.1045 -0.2763
   49MOL   C21922395   0.357   3.919   3.517  1.1674 -0.0956  0.0136
   49MOL   O22022396   0.437   3.939   3.419  0.1459 -0.1757  0.3322
   49MOL   O22122397   0.386   3.842   3.619 -1.0770 -0.1545 -0.0024
   49MOL   C22222398   0.180   4.088   3.423  0.1612  0.0105  0.5578
   49MOL   C22322399   0.043   4.121   3.408 -0.6703  0.4029 -0.7617
   49MOL   H22422400   7.853   4.134   3.826  0.9337  0.6261  0.4173
   49MOL   H22522401   7.733   4.228   3.749  0.1043 -0.3557  2.2403
   49MOL   H22622402   7.867   4.216   3.523  0.0711 -0.9572 -0.0732
   49MOL   H22722403   7.807   4.063   3.588 -0.1964  0.9095 -2.8757
   49MOL   H22822404   8.187   3.964   3.680 -0.5640 -3.2969 -1.2349
   49MOL   H22922405   0.151   3.867   3.680 -0.3376 -0.2177 -0.3862
   49MOL   H23022406   0.242   4.130   3.346 -3.0177  1.9101 -1.0858
   49MOL   H23122407   0.025   4.192   3.329  2.3649 -1.0486 -2.8428
   49MOL   O23222408   0.527   3.813   3.634 -0.1229 -0.3488 -0.2643
   49MOL   C23322409   0.564   3.862   3.761  0.5412 -0.6630 -0.2176
   49MOL   C23422410   0.714   3.854   3.776 -0.0283  0.1015  0.2340
   49MOL   O23522411   0.770   3.963   3.702  0.4276  0.4038 -0.5246
   49MOL   C23622412   0.800   4.079   3.766 -0.1817 -0.2707  0.2929
   49MOL   O23722413   0.799   4.107   3.887 -0.3285  0.1494  0.0979
   49MOL   C23822414   0.823   4.183   3.659  0.4524 -0.7051  0.1471
   49MOL   C23922415   0.800   4.169   3.519 -0.5630 -0.3098 -0.4401
   49MOL   C24022416   0.806   4.277   3.433  0.8076  0.3651 -0.6499
   49MOL   C24122417   0.831   4.403   3.484 -0.1424 -0.3957  0.2086
   49MOL   C24222418   0.825   4.523   3.392 -0.1131  0.2443  0.4805
   49MOL   O24322419   0.852   4.632   3.434 -0.6848  0.5178 -0.2354
   49MOL   O24422420   0.794   4.497   3.269  0.2420  0.9636  0.0103
   49MOL   C24522421   0.857   4.427   3.620 -0.1297 -0.1492  0.6872
   49MOL   C24622422   0.857   4.315   3.704 -0.1338  0.2122 -0.3396
   49MOL   H24722423   0.521   3.961   3.779  0.3631 -0.6814 -0.5275
   49MOL   H24822424   0.518   3.801   3.838 -1.3697  0.1403 -0.6918
   49MOL   H24922425   0.747   3.756   3.743 -0.6786  0.4205 -1.4227
   49MOL   H25022426   0.745   3.861   3.881  2.2739  2.1457 -0.5349
   49MOL   H25122427   0.752   4.078   3.486 -0.8440 -0.0001 -0.8922
   49MOL   H25222428   0.790   4.259   3.328 -2.9880 -0.7539  0.0224
   49MOL   H25322429   0.861   4.528   3.658 -0.7939  0.5940 -1.1822
   49MOL   H25422430   0.877   4.335   3.808 -0.6743  2.3080 -0.6220
   49MOL   O25522431   0.773   4.618   3.179 -1.0022  0.0860 -1.1111
   49MOL   C25622432   0.883   4.620   3.087 -0.0062 -0.1789 -0.0513
   49MOL   C25722433   0.884   4.493   2.985  0.1721  0.0740 -0.3494
   49MOL   O25822434   0.932   4.382   3.058  1.2169 -0.5268  0.4076
   49MOL   C25922435   1.008   4.284   3.005 -0.4246 -0.3954 -0.0935
   49MOL   O26022436   1.024   4.270   2.882  0.4159  0.5820 -0.6646
   49MOL   C26122437   1.068   4.190   3.110 -0.6044  0.3075 -0.0875
   49MOL   C26222438   1.084   4.229   3.244 -0.3099  0.1591 -0.6447
   49MOL   C26322439   1.134   4.145   3.344  0.4878  0.5049 -0.3488
   49MOL   C26422440   1.187   4.023   3.303  0.1185 -0.1796 -0.0793
   49MOL   C26522441   1.251   3.938   3.409  0.2007  1.0427  0.4182
   49MOL   O26622442   1.306   3.828   3.379 -0.5551 -0.3756 -0.3291
   49MOL   O26722443   1.243   3.987   3.535  0.0198 -0.2607  0.1845
   49MOL   C26822444   1.168   3.978   3.169  0.7007  0.0858 -0.1024
   49MOL   C26922445   1.111   4.059   3.068 -0.2117 -0.0201  0.2032
   49MOL   H27022446   0.869   4.712   3.029  2.0751  1.0264  1.2924
   49MOL   H27122447   0.974   4.639   3.145 -0.4882  0.8279  0.3735
   49MOL   H27222448   0.950   4.502   2.898 -0.9626 -0.6204 -1.3040
   49MOL   H27322449   0.784   4.474   2.946  0.6587  0.8803 -2.0785
   49MOL   H27422450   1.047   4.322   3.284  1.7993  1.1288 -0.8963
   49MOL   H27522451   1.140   4.177   3.447  0.3673  0.1583 -0.2330
   49MOL   H27622452   1.205   3.878   3.154 -0.4148 -0.6368  1.9072
   49MOL   H27722453   1.095   4.021   2.969 -1.4945 -0.6323  0.6360
   49MOL   O27822454   1.340   3.909   3.628  0.7106 -0.3863  0.6649
   49MOL   C27922455   1.267   3.797   3.685 -0.5561  0.4543  0.7898
   49MOL   C28022456   1.124   3.823   3.730  0.1364 -0.4916  0.2470
   49MOL   O28122457   1.112   3.918   3.835 -0.1152  0.1340  0.7500
   49MOL   C28222458   1.149   3.870   3.957  0.2797  1.0887 -0.1598
   49MOL   O28322459   1.199   3.761   3.977 -0.1147 -0.4194  0.8088
   49MOL   C28422460   1.136   3.972   4.063  0.6876  0.5697  0.7200
   49MOL   C28522461   1.084   4.101   4.034  0.2156 -0.4671  0.4379
   49MOL   C28622462   1.058   4.198   4.136  0.1885  0.2702  0.1183
   49MOL   C28722463   1.096   4.167   4.266 -0.5240  0.2297 -0.4964
   49MOL   C28822464   1.071   4.270   4.375 -0.4085  0.8037  0.6808
   49MOL   O28922465   1.053   4.392   4.353  0.2868 -0.5103 -0.0147
   49MOL   O29022466   1.066   4.219   4.501  0.3508 -0.3782  0.4531
   49MOL   C29122467   1.151   4.043   4.293 -0.3075 -0.1615 -0.1482
   49MOL   C29222468   1.172   3.945   4.199 -0.3746  0.2934  0.6888
   49MOL   H29322469   1.260   3.715   3.614 -0.6445  0.5047  0.7397
   49MOL   H29422470   1.339   3.766   3.760  1.1718  0.2711 -0.9211
   49MOL   H29522471   1.071   3.730   3.751 -0.1553 -0.7507 -1.5902
   49MOL   H29622472   1.061   3.865   3.652  0.0006 -2.6856 -0.8763
   49MOL   H29722473   1.057   4.132   3.934 -0.9231 -1.5469  0.3955
   49MOL   H29822474   1.015   4.290   4.101 -0.2763 -0.8972 -2.4748
   49MOL   H29922475   1.196   4.023   4.389  0.7644 -2.9115 -1.1744
   49MOL   H30022476   1.211   3.849   4.231  1.0126 -0.1026 -2.0193
   49MOL   O30122477   1.015   4.313   4.607  0.3521 -0.0304 -0.0444
   49MOL   C30222478   1.125   4.387   4.651 -0.0153  0.1908  0.7356
   49MOL   C30322479   1.220   4.313   4.745  0.9351  0.0324 -0.0286
   49MOL   O30422480   1.206   4.354   4.878 -0.4181  0.1573 -0.0854
   49MOL   C30522481   1.094   4.328   4.948 -0.6465 -0.5386  0.0116
   49MOL   O30622482   1.030   4.226   4.927 -0.0007  0.4393  0.0235
   49MOL   C30722483   1.063   4.425   5.060 -0.0846 -0.9818  0.5840
   49MOL   C30822484   1.123   4.551   5.060 -0.0774  0.0187 -0.0576
   49MOL   C30922485   1.103   4.643   5.166  0.3370 -0.3099 -0.6753
   49MOL   C31022486   1.014   4.615   5.266  0.8019  0.9372  0.1591
   49MOL   C31122487   0.988   4.702   5.383 -0.3789 -0.0414  0.6265
   49MOL   O31222488   0.926   4.666   5.484  0.2899 -0.0532 -0.3859
   49MOL   O31322489   1.042   4.826   5.366  0.0849  0.2360 -0.8655
   49MOL   C31422490   0.949   4.491   5.261 -0.4036  0.4259  0.7717
   49MOL   C31522491   0.972   4.391   5.161 -0.4738  0.0397  0.2520
   49MOL   H31622492   1.177   4.436   4.568  0.7164 -1.0046  0.4694
   49MOL   H31722493   1.077   4.469   4.704  1.7381  0.2415  2.2923
   49MOL   H31822494   1.318   4.335   4.703  1.1117  0.3825  0.5724
   49MOL   H31922495   1.201   4.206   4.734  0.6726  0.1805 -1.0512
   49MOL   H32022496   1.192   4.573   4.980  1.7194 -2.5830  0.7229
   49MOL   H32122497   1.146   4.742   5.166  0.4301 -0.3508 -0.3681
   49MOL   H32222498   0.875   4.457   5.332  1.0237 -0.2408  1.9752
   49MOL   H32322499   0.922   4.296   5.148 -0.7127  0.3688 -1.2795
   49MOL   O32422500   1.003   4.923   5.472 -0.1818  0.0238 -0.0753
   49MOL   C32522501   1.104   4.924   5.569  0.2989  0.7415  0.7083
   49MOL   C32622502   1.055   4.981   5.707 -0.1959 -0.3074 -0.1914
   49MOL   O32722503   1.039   5.120   5.687  0.2505 -0.2099 -0.0829
   49MOL   C32822504   0.921   5.172   5.657  0.2147 -0.0923 -0.4365
   49MOL   O32922505   0.817   5.102   5.633 -0.6041 -0.7937 -0.2970
   49MOL   C33022506   0.924   5.324   5.642 -0.4838  0.1162  0.6908
   49MOL   C33122507   0.812   5.394   5.596 -0.1677  0.8776 -0.4728
   49MOL   C33222508   0.824   5.531   5.583  0.1843 -0.5376 -0.4902
   49MOL   C33322509   0.947   5.599   5.606  0.4552 -0.0392  0.2874
   49MOL   C33422510   0.962   5.746   5.594 -0.5762 -0.4575  0.1812
   49MOL   O33522511   1.059   5.807   5.640  1.4150 -0.5544  0.5948
   49MOL   O33622512   0.865   5.803   5.510 -0.0860 -0.3584 -0.1531
   49MOL   C33722513   1.059   5.526   5.637  0.0413  0.2153  0.6396
   49MOL   C33822514   1.044   5.385   5.661 -0.6218 -0.5632 -1.1411
   49MOL   H33922515   1.135   4.821   5.584  0.3846  0.9925  2.3564
   49MOL   H34022516   1.187   4.979   5.525  0.8170 -0.7667 -0.2156
   49MOL   H34122517   1.123   4.960   5.789  0.7527  2.0991 -0.3316
   49MOL   H34222518   0.959   4.937   5.734  0.2211 -0.8928  0.3418
   49MOL   H34322519   0.718   5.347   5.574 -0.3382  0.1090  1.7599
   49MOL   H34422520   0.733   5.581   5.555 -0.1267  0.1383  1.6840
   49MOL   H34522521   1.149   5.585   5.650  0.1105  0.1110  0.6395
   49MOL   H34622522   1.133   5.329   5.687 -0.1407  0.2104 -1.1001
   49MOL   O34722523   0.898   5.938   5.444  0.3808 -0.3288  0.5287
   49MOL   C34822524   0.962   5.906   5.320  0.5478 -0.3274 -0.1510
   49MOL   C34922525   0.950   6.035   5.244  0.2252  0.7489 -0.0434
   49MOL   O35022526   0.987   6.017   5.105  0.4171 -0.2031  0.7293
   49MOL   C35122527   0.982   6.128   5.029  0.1176 -0.4888  0.1804
   49MOL   O35222528   0.947   6.237   5.073  0.5236 -0.0417 -0.1978
   49MOL   C35322529   1.037   6.103   4.889  0.4369  0.2666  0.0413
   49MOL   C35422530   1.010   6.200   4.784 -0.4747  0.0604  0.2738
   49MOL   C35522531   1.054   6.175   4.655 -0.1032  0.7550  0.3013
   49MOL   C35622532   1.120   6.050   4.623  0.1685 -0.1707 -0.5176
   49MOL   C35722533   1.187   6.025   4.491  0.2987  0.4118  0.3076
   49MOL   O35822534   1.247   5.920   4.466 -0.2031  0.1999  0.3566
   49MOL   O35922535   1.173   6.124   4.406 -0.2332  0.2800  0.2431
   49MOL   C36022536   1.136   5.956   4.732  0.0941 -0.7458  0.0604
   49MOL   C36122537   1.092   5.979   4.862 -0.4811  0.1316  0.5355
   49MOL   H36222538   1.065   5.875   5.336  1.3048  1.7664 -0.7559
   49MOL   H36322539   0.908   5.830   5.263 -0.1938  1.4425 -1.8589
   49MOL   H36422540   1.024   6.098   5.293  0.4008 -0.8643  1.8461
   49MOL   H36522541   0.849   6.076   5.255 -0.8956 -2.3475  1.8522
   49MOL   H36622542   0.971   6.296   4.814 -0.3858 -0.7156  3.0350
   49MOL   H36722543   1.053   6.243   4.572  0.6581  2.8708  1.9799
   49MOL   H36822544   1.183   5.862   4.709  0.2167 -1.2745  2.3857
   49MOL   H36922545   1.116   5.914   4.944 -0.1869  1.5269  1.5714
   49MOL   O37022546   1.200   6.076   4.268  0.3609  0.0893  0.2375
   49MOL   C37122547   1.074   6.062   4.198 -0.4045  0.4035  0.0070
   49MOL   C37222548   1.100   5.999   4.060 -0.4501  0.8856 -0.3679
   49MOL   O37322549   1.187   6.074   3.977  0.3744 -0.3774 -0.1405
   49MOL   C37422550   1.139   6.183   3.916  0.0020 -0.9047 -1.1903
   49MOL   O37522551   1.025   6.230   3.927 -0.3149 -0.0902 -0.0777
   49MOL   C37622552   1.227   6.235   3.807  0.2632  0.5076  0.6226
   49MOL   C37722553   1.181   6.325   3.707  0.3639 -0.4404  0.4852
   49MOL   C37822554   1.268   6.369   3.604  0.5942  0.3570 -0.1380
   49MOL   C37922555   1.404   6.344   3.612  0.0519  0.7046 -0.0601
   49MOL   C38022556   1.494   6.381   3.496  0.0003 -0.7091  0.0749
   49MOL   O38122557   1.608   6.338   3.479 -0.3327  0.4187  0.4634
   49MOL   O38222558   1.454   6.492   3.428  0.9298 -0.2955 -0.0124
   49MOL   C38322559   1.451   6.257   3.713  0.6838 -0.2099  0.6628
   49MOL   C38422560   1.365   6.196   3.803  0.0461  0.2844  0.3285
   49MOL   H38522561   0.998   6.004   4.252 -1.7560  1.3507 -0.8414
   49MOL   H38622562   1.035   6.164   4.193 -1.4325  0.0081 -0.1446
   49MOL   H38722563   0.999   5.985   4.022 -1.4158  0.9860  2.0370
   49MOL   H38822564   1.148   5.902   4.071 -2.5040 -0.2837 -1.4793
   49MOL   H38922565   1.074   6.335   3.696  0.0639 -2.1085  1.6986
   49MOL   H39022566   1.227   6.427   3.522  2.4199 -0.6364 -1.7855
   49MOL   H39122567   1.557   6.241   3.723  1.1172  0.4025 -2.3178
   49MOL   H39222568   1.407   6.120   3.868 -0.1256  0.4895  0.6833
   49MOL   O39322569   1.563   6.552   3.348  0.6796  0.1537 -0.1982
   49MOL   C39422570   1.531   6.539   3.215 -0.5551  0.0379  0.2576
   49MOL   C39522571   1.576   6.413   3.152  1.1072 -0.5448  0.4451
   49MOL   O39622572   1.594   6.430   3.015 -0.6154 -0.0897  0.1639
   49MOL   C39722573   1.660   6.339   2.939 -0.2629 -0.1182 -0.4435
   49MOL   O39822574   1.737   6.248   2.974  0.1883 -0.1891 -0.0614
   49MOL   C39922575   1.628   6.356   2.796 -0.4233  0.9462  0.2439
   49MOL   C40022576   1.593   6.477   2.731 -0.7565 -0.8178 -0.0040
   49MOL   C40122577   1.561   6.476   2.595  0.6620 -0.2883  0.5747
   49MOL   C40222578   1.574   6.361   2.515  0.0327 -0.5048  0.3694
   49MOL   C40322579   1.551   6.358   2.360  0.0633 -0.0663  0.2108
   49MOL   O40422580   1.505   6.452   2.291  0.9539  0.5745 -0.1436
   49MOL   O40522581   1.587   6.247   2.308  0.0883 -0.2517  0.6709
   49MOL   C40622582   1.602   6.240   2.578 -0.0119 -0.2867 -0.3157
   49MOL   C40722583   1.631   6.237   2.719 -0.1003 -0.4635 -0.0933
   49MOL   H40822584   1.431   6.569   3.183  0.2963  0.0553 -2.5114
   49MOL   H40922585   1.584   6.627   3.177 -0.2639 -0.5333 -0.6651
   49MOL   H41022586   1.502   6.335   3.165 -0.9460  1.4755  1.1037
   49MOL   H41122587   1.670   6.380   3.197  1.1918  0.4306  0.9868
   49MOL   H41222588   1.588   6.567   2.791 -1.2550  0.1786 -1.5034
   49MOL   H41322589   1.538   6.569   2.544  0.9421 -0.8425 -0.5704
   49MOL   H41422590   1.615   6.153   2.516 -0.4232 -1.2322  0.8991
   49MOL   H41522591   1.651   6.141   2.764  1.9233 -0.3116 -0.5929
   49MOL   O41622592   1.583   6.245   2.154 -0.0371 -0.3239  0.6466
   49MOL   C41722593   1.507   6.139   2.115 -0.1998  0.5182 -0.4291
   49MOL   C41822594   1.512   6.100   1.963 -0.1839  0.2210  0.3233
   49MOL   O41922595   1.406   6.160   1.884 -0.1719 -0.4800  0.2773
   49MOL   C42022596   1.313   6.085   1.828  0.2534  0.2042 -0.1072
   49MOL   O42122597   1.289   5.967   1.855 -0.2489 -0.1037 -0.8752
   49MOL   C42222598   1.243   6.158   1.722 -0.5428 -0.0121 -0.4628
   49MOL   C42322599   1.135   6.094   1.655  0.2127 -0.1057  0.3510
   49MOL   C42422600   1.060   6.160   1.555  0.1393 -0.7110  0.5547
   49MOL   C42522601   1.095   6.289   1.509 -0.7356 -0.9300  0.2052
   49MOL   C42622602   1.020   6.351   1.402 -0.0707 -0.1455  0.3645
   49MOL   O42722603   1.065   6.433   1.321 -0.2896 -0.0188 -0.2341
   49MOL   O42822604   0.894   6.313   1.414  0.0687  0.2369 -0.0789
   49MOL   C42922605   1.204   6.357   1.573 -0.2155  0.7613 -0.2557
   49MOL   C43022606   1.268   6.293   1.680 -0.1338 -0.2439  0.4638
   49MOL   H43122607   1.538   6.048   2.165 -0.5165 -0.2588 -1.6306
   49MOL   H43222608   1.404   6.163   2.141 -0.1158 -0.8881  1.2412
   49MOL   H43322609   1.511   5.991   1.966  2.0536  0.1264 -0.9692
   49MOL   H43422610   1.608   6.122   1.915 -0.8464  1.4791 -0.4315
   49MOL   H43522611   1.101   5.994   1.680 -0.1488  0.3803  1.8836
   49MOL   H43622612   0.968   6.123   1.512 -0.5305 -0.1381  1.4531
   49MOL   H43722613   1.237   6.454   1.539  0.3838  0.3254 -0.9467
   49MOL   H43822614   1.342   6.357   1.725  1.0571 -0.8746 -0.5731
   49MOL   O43922615   0.804   6.387   1.312  0.3393  0.5737  0.4201
   49MOL   C44022616   0.777   6.301   1.201  0.0994  0.0456 -0.3612
   49MOL   C44122617   0.648   6.350   1.143 -0.8650  0.0194  0.4596
   49MOL   O44222618   0.668   6.406   1.009  0.4510  0.4153  0.0214
   49MOL   C44322619   0.650   6.534   0.985  0.9492 -0.1163  0.0382
   49MOL   O44422620   0.606   6.616   1.062 -0.1826 -0.2483  0.1789
   49MOL   C44522621   0.691   6.574   0.849  0.5178  0.4058 -0.6370
   49MOL   C44622622   0.692   6.711   0.822  0.1974 -0.8530 -0.2475
   49MOL   C44722623   0.747   6.769   0.706 -0.7160  0.2051  0.1972
   49MOL   C44822624   0.809   6.680   0.609 -0.2261 -0.2330 -0.3149
   49MOL   C44922625   0.891   6.730   0.491 -0.7522 -0.9072 -0.1441
   49MOL   O45022626   0.977   6.661   0.438 -0.4343  0.6829 -0.4284
   49MOL   O45122627   0.857   6.856   0.453 -0.3727  0.4558  0.0318
   49MOL   C45222628   0.798   6.540   0.622  0.0992 -0.5711 -0.0417
   49MOL   C45322629   0.738   6.487   0.741 -0.1907  0.2276  0.5930
   49MOL   H45422630   0.851   6.293   1.121 -0.0893  1.3752 -0.6828
   49MOL   H45522631   0.764   6.199   1.238 -1.7453 -0.2301 -1.7322
   49MOL   H45622632   0.603   6.424   1.208 -0.7574  2.7106 -2.4159
   49MOL   H45722633   0.575   6.270   1.158 -1.4247  0.2584 -0.9103
   49MOL   H45822634   0.658   6.776   0.901 -2.2293 -1.6471 -0.5699
   49MOL   H45922635   0.748   6.877   0.710 -0.0183  0.2095  0.0346
   49MOL   H46022636   0.849   6.473   0.554  4.0710 -0.4100  2.5748
   49MOL   H46122637   0.734   6.380   0.755  0.0320  0.2371  0.7165
   49MOL   H46222638   0.902   6.902   0.384  1.8489 -0.2180  0.9956
   50MOL     O122639   1.664   0.769   3.527  0.1285  0.1505 -0.0626
   50MOL     C222640   1.705   0.880   3.461  0.1098 -0.1900 -0.1038
   50MOL     C322641   1.707   1.003   3.554 -0.0215  0.5191  0.1005
   50MOL     O422642   1.771   1.112   3.490 -0.4555  0.7186  0.2244
   50MOL     C522643   1.756   1.239   3.541  0.0402 -0.1281  1.0364
   50MOL     O622644   1.683   1.264   3.636 -0.4803  0.0840 -0.1167
   50MOL     C722645   1.830   1.346   3.466  0.3269  0.3509 -0.1355
   50MOL     C822646   1.927   1.326   3.366 -0.0551 -0.3263 -0.5175
   50MOL     C922647   2.008   1.438   3.320 -0.7886  0.5820 -0.5138
   50MOL    C1022648   1.973   1.573   3.363 -0.7814 -0.1264 -0.3184
   50MOL    C1122649   2.044   1.687   3.313  0.7170  0.1098  0.0597
   50MOL    O1222650   1.983   1.788   3.285  0.0759 -0.2205  0.4486
   50MOL    O1322651   2.178   1.679   3.326 -0.0502  0.6485 -0.5544
   50MOL    C1422652   1.881   1.590   3.464 -0.3875 -1.0491 -0.8768
   50MOL    C1522653   1.811   1.477   3.515  0.2000  0.3070 -0.7699
   50MOL    H1622654   1.808   0.863   3.430 -0.1952 -0.8687 -0.7509
   50MOL    H1722655   1.648   0.897   3.370 -1.1073  0.2863  0.7427
   50MOL    H1822656   1.758   0.969   3.644  2.2832 -1.1265 -1.7684
   50MOL    H1922657   1.606   1.034   3.581  0.1101  1.3512 -0.3497
   50MOL    H2022658   1.955   1.230   3.327  3.1099  0.9091 -1.4722
   50MOL    H2122659   2.081   1.421   3.242  0.0596 -1.4394  0.6619
   50MOL    H2222660   1.843   1.683   3.504  4.0504  0.6830 -0.3009
   50MOL    H2322661   1.740   1.505   3.591 -0.0465  1.4913 -1.4314
   50MOL    H2422662   1.630   0.709   3.463  2.3921 -0.5217 -0.6833
   50MOL    O2522663   2.257   1.803   3.285 -0.1561 -0.0142 -0.3402
   50MOL    C2622664   2.299   1.807   3.154  0.1860  1.4642 -0.1961
   50MOL    C2722665   2.397   1.926   3.138  0.0072 -0.1512  0.3947
   50MOL    O2822666   2.525   1.870   3.134  0.3718  0.4468  0.1576
   50MOL    C2922667   2.640   1.948   3.129 -0.7335  0.0832 -0.1231
   50MOL    O3022668   2.653   2.062   3.178 -0.3876  0.1527 -0.1816
   50MOL    C3122669   2.754   1.872   3.073 -0.0648 -0.2559 -0.1588
   50MOL    C3222670   2.871   1.946   3.038 -0.1918  0.3956  0.5693
   50MOL    C3322671   2.984   1.880   2.981 -1.1810  0.6869 -0.1293
   50MOL    C3422672   2.978   1.738   2.954 -1.0789  1.0335  0.0024
   50MOL    C3522673   3.085   1.671   2.879  0.0025  0.4683  0.1549
   50MOL    O3622674   3.171   1.730   2.812  0.4725  0.8592 -0.5837
   50MOL    O3722675   3.084   1.531   2.886  0.5922  0.4704  0.3098
   50MOL    C3822676   2.870   1.665   3.008 -0.4955 -0.5032  0.1145
   50MOL    C3922677   2.755   1.730   3.071 -0.0271 -0.2321 -0.0176
   50MOL    H4022678   2.354   1.716   3.130 -1.0657  0.5388  0.4043
   50MOL    H4122679   2.221   1.814   3.079 -0.8649  1.4112  0.8816
   50MOL    H4222680   2.397   2.006   3.212 -1.4931  0.6717 -0.4737
   50MOL    H4322681   2.382   1.976   3.043  0.3833  1.2379  1.0498
   50MOL    H4422682   2.880   2.049   3.069  1.5389 -0.3379  2.6280
   50MOL    H4522683   3.072   1.936   2.955 -0.6960  1.0841  2.2634
   50MOL    H4622684   2.865   1.557   2.998 -0.7582 -0.5376  0.6189
   50MOL    H4722685   2.668   1.672   3.100 -0.5866  0.3929 -0.4435
   50MOL    O4822686   3.182   1.460   2.799 -0.5547  1.1647  0.7536
   50MOL    C4922687   3.118   1.386   2.695  0.3555 -0.3064  1.0639
   50MOL    C5022688   3.228   1.301   2.627 -0.0775 -0.7181  0.5898
   50MOL    O5122689   3.325   1.390   2.562  0.6069 -0.0557  0.3968
   50MOL    C5222690   3.390   1.346   2.457  0.6030 -0.5300 -0.0865
   50MOL    O5322691   3.365   1.237   2.400 -0.1384 -0.1220 -0.0664
   50MOL    C5422692   3.505   1.433   2.412  0.1153  0.5772  0.2965
   50MOL    C5522693   3.510   1.572   2.436 -0.1516  0.3934 -1.1079
   50MOL    C5622694   3.612   1.645   2.385 -0.6017 -0.9771  0.3786
   50MOL    C5722695   3.729   1.594   2.325  0.0675  0.6743 -1.0466
   50MOL    C5822696   3.850   1.677   2.308 -0.1640 -0.6318  0.0672
   50MOL    O5922697   3.852   1.795   2.330  0.1432  0.3339  0.0172
   50MOL    O6022698   3.959   1.610   2.277 -0.5111  0.0662  0.2229
   50MOL    C6122699   3.722   1.450   2.313 -0.3390 -0.0509 -0.8932
   50MOL    C6222700   3.613   1.373   2.350  0.0859  0.3200  0.0890
   50MOL    H6322701   3.050   1.311   2.736  0.0297 -0.1226  0.8614
   50MOL    H6422702   3.065   1.454   2.629  1.5743  1.7066  2.1404
   50MOL    H6522703   3.171   1.240   2.556 -0.2346 -0.3776  0.4171
   50MOL    H6622704   3.283   1.232   2.691  1.1619  1.2444  1.6942
   50MOL    H6722705   3.431   1.628   2.484  0.6952  1.0623 -0.4808
   50MOL    H6822706   3.602   1.753   2.394 -2.4615 -1.1971  1.3545
   50MOL    H6922707   3.811   1.407   2.269  0.5206 -0.4026  1.1332
   50MOL    H7022708   3.624   1.268   2.332  1.6305  0.7561 -1.6371
   50MOL    O7122709   4.085   1.687   2.300  0.2259 -0.2414  0.1987
   50MOL    C7222710   4.125   1.753   2.184 -0.1147 -0.5403  0.3565
   50MOL    C7322711   4.235   1.865   2.215 -0.2314 -0.4466 -0.0245
   50MOL    O7422712   4.303   1.897   2.094  0.5137  0.1336 -0.6623
   50MOL    C7522713   4.422   1.948   2.092 -0.3091 -0.0039 -0.7022
   50MOL    O7622714   4.500   1.965   2.189  0.1610 -0.2340  0.2012
   50MOL    C7722715   4.448   1.993   1.946  0.0444  0.3352 -0.5901
   50MOL    C7822716   4.527   2.110   1.923 -0.2169  0.2501  0.5530
   50MOL    C7922717   4.559   2.156   1.794 -0.6419  0.6741 -0.3526
   50MOL    C8022718   4.504   2.093   1.686  0.2233  0.1261  0.3949
   50MOL    C8122719   4.538   2.148   1.557 -0.5465 -0.4450  0.8448
   50MOL    O8222720   4.621   2.241   1.542 -0.0268 -0.1940  0.0830
   50MOL    O8322721   4.472   2.099   1.445  0.2339  0.0158 -0.0220
   50MOL    C8422722   4.418   1.980   1.700  0.5920  0.1049  0.6743
   50MOL    C8522723   4.398   1.926   1.832 -0.7378  0.1916 -0.3892
   50MOL    H8622724   4.167   1.686   2.109  0.1272 -0.6894  0.6255
   50MOL    H8722725   4.041   1.810   2.143  0.1987  0.8391  1.5922
   50MOL    H8822726   4.315   1.827   2.280  1.4459 -1.2620 -2.4802
   50MOL    H8922727   4.182   1.945   2.265 -0.6635 -1.2645  0.8446
   50MOL    H9022728   4.565   2.174   2.001  1.8283 -0.0458 -0.1557
   50MOL    H9122729   4.621   2.244   1.787 -0.7195  0.8132  0.6939
   50MOL    H9222730   4.371   1.941   1.611  2.4860  0.8101 -0.6867
   50MOL    H9322731   4.334   1.840   1.840  0.1306 -0.4595 -0.4555
   50MOL    O9422732   4.513   2.183   1.321 -0.3509  0.3089  0.3063
   50MOL    C9522733   4.616   2.114   1.256  0.0158  0.1225  0.2066
   50MOL    C9622734   4.692   2.193   1.151 -0.0961  0.6726  0.2606
   50MOL    O9722735   4.783   2.276   1.221 -0.5046 -0.2408 -0.6162
   50MOL    C9822736   4.789   2.410   1.209 -0.2077 -0.2828 -0.2209
   50MOL    O9922737   4.728   2.469   1.126  0.2854 -0.1196 -0.2015
   50MOL   C10022738   4.884   2.475   1.305  0.0508 -0.5441 -0.8744
   50MOL   C10122739   4.901   2.417   1.439 -0.1183 -0.3057 -0.3399
   50MOL   C10222740   4.980   2.485   1.535 -0.3150 -0.2812 -0.5407
   50MOL   C10322741   5.060   2.596   1.498 -0.4183  0.0982  0.2439
   50MOL   C10422742   5.150   2.657   1.596 -0.6108  0.0462  0.3989
   50MOL   O10522743   5.242   2.730   1.567  0.6729  0.0733  0.4017
   50MOL   O10622744   5.125   2.620   1.722  0.2543 -0.8248 -0.5002
   50MOL   C10722745   5.062   2.643   1.362  0.6808 -0.3247 -0.2009
   50MOL   C10822746   4.970   2.584   1.270 -0.2658 -0.0022  0.1742
   50MOL   H10922747   4.692   2.082   1.328  0.3638  2.6923  1.0127
   50MOL   H11022748   4.583   2.016   1.219  1.0794 -0.5672  1.0434
   50MOL   H11122749   4.618   2.244   1.089 -0.1526 -3.2475 -3.1266
   50MOL   H11222750   4.742   2.119   1.089  1.0973 -0.0228  2.0161
   50MOL   H11322751   4.854   2.330   1.482  1.9709 -0.6951  1.2701
   50MOL   H11422752   4.976   2.443   1.635 -0.4047  0.3685 -0.2725
   50MOL   H11522753   5.128   2.724   1.337  3.4959 -1.8010  2.0726
   50MOL   H11622754   4.967   2.635   1.175  1.7535 -0.2100 -0.0245
   50MOL   O11722755   5.246   2.646   1.810  0.5760 -0.3548  0.1654
   50MOL   C11822756   5.294   2.516   1.836  0.0544  0.2968  0.0084
   50MOL   C11922757   5.205   2.426   1.922  0.1229 -0.3508  0.0785
   50MOL   O12022758   5.262   2.305   1.960  0.1584  0.1203  0.2134
   50MOL   C12122759   5.269   2.273   2.097 -0.1326 -0.3817  0.8287
   50MOL   O12222760   5.250   2.355   2.191  0.3238  0.0460  0.0171
   50MOL   C12322761   5.306   2.125   2.107  0.3289 -0.4902  0.0837
   50MOL   C12422762   5.339   2.033   2.004  0.5185  0.3633 -0.2324
   50MOL   C12522763   5.351   1.899   2.033  0.1587  0.1078 -0.3488
   50MOL   C12622764   5.342   1.851   2.165 -0.1849  0.3179 -1.0349
   50MOL   C12722765   5.349   1.705   2.200  0.1403 -0.6192  0.0043
   50MOL   O12822766   5.380   1.622   2.117  0.7604 -0.0417  0.1869
   50MOL   O12922767   5.310   1.675   2.325  0.0762 -0.3800  0.5589
   50MOL   C13022768   5.322   1.940   2.266  0.1062 -0.4301 -0.1452
   50MOL   C13122769   5.306   2.079   2.236 -0.8164 -0.1101  0.3065
   50MOL   H13222770   5.315   2.468   1.740  1.1852  0.2075  0.3004
   50MOL   H13322771   5.388   2.526   1.889  0.7304  1.8207 -1.4124
   50MOL   H13422772   5.103   2.416   1.884  0.4630 -1.7310 -0.4847
   50MOL   H13522773   5.184   2.492   2.007 -0.5148  0.6082 -0.8125
   50MOL   H13622774   5.338   2.071   1.902 -2.9718  0.2303 -0.3302
   50MOL   H13722775   5.383   1.835   1.952 -0.4946  0.8861 -1.2367
   50MOL   H13822776   5.324   1.921   2.373  0.6230 -0.5162 -0.1730
   50MOL   H13922777   5.310   2.143   2.322  0.1157 -0.0132  0.1968
   50MOL   O14022778   5.325   1.525   2.355  0.2340 -0.0754  0.6123
   50MOL   C14122779   5.448   1.505   2.422  0.1836 -0.5017 -0.4030
   50MOL   C14222780   5.461   1.358   2.456  0.9755  0.1109 -0.1950
   50MOL   O14322781   5.377   1.316   2.564  0.1695  0.3539  0.6352
   50MOL   C14422782   5.430   1.259   2.673  0.4081  0.2854 -0.2262
   50MOL   O14522783   5.552   1.254   2.704  0.4941 -0.2000 -0.3940
   50MOL   C14622784   5.320   1.195   2.761 -0.5427 -0.0190 -0.2061
   50MOL   C14722785   5.368   1.103   2.861  0.2658  0.2898  1.0283
   50MOL   C14822786   5.272   1.036   2.937  1.0823  0.4277  1.1468
   50MOL   C14922787   5.137   1.066   2.932  0.1790 -0.0657  0.2126
   50MOL   C15022788   5.031   0.995   3.010  0.1183  0.4035 -0.3285
   50MOL   O15122789   4.921   1.047   3.034 -0.3060  0.2768  0.0574
   50MOL   O15222790   5.062   0.870   3.041  0.3728  0.2339  0.1212
   50MOL   C15322791   5.094   1.163   2.836 -0.2481  0.4002  0.0842
   50MOL   C15422792   5.187   1.224   2.750 -0.7918  0.2775  0.4932
   50MOL   H15522793   5.535   1.544   2.369  0.7189 -1.1909 -0.0264
   50MOL   H15622794   5.432   1.554   2.518  2.1657  1.4696 -1.0270
   50MOL   H15722795   5.566   1.344   2.478  0.3210 -1.6447  1.9352
   50MOL   H15822796   5.443   1.296   2.368  0.0569 -1.2608  0.9380
   50MOL   H15922797   5.471   1.076   2.878  0.0349  0.0066  2.0245
   50MOL   H16022798   5.307   0.957   3.002  0.8986 -0.6184 -0.0035
   50MOL   H16122799   4.991   1.193   2.828 -0.3251  0.1275  0.0429
   50MOL   H16222800   5.164   1.299   2.675 -0.7463  2.7654  2.9154
   50MOL   O16322801   4.961   0.807   3.129  0.8328 -0.0973 -0.0392
   50MOL   C16422802   5.004   0.792   3.266 -0.8354 -0.0351  0.4653
   50MOL   C16522803   4.911   0.694   3.346  0.5115 -0.9329  0.2207
   50MOL   O16622804   4.790   0.754   3.390 -0.0165 -0.5525 -0.1817
   50MOL   C16722805   4.678   0.716   3.322  0.1060 -0.7471 -0.7570
   50MOL   O16822806   4.682   0.656   3.214 -0.7038 -0.0996 -0.4209
   50MOL   C16922807   4.553   0.768   3.402  0.6530 -0.0256 -0.1495
   50MOL   C17022808   4.564   0.849   3.515 -0.3229  0.3309  0.0412
   50MOL   C17122809   4.454   0.909   3.572  0.1098 -0.1881  0.0607
   50MOL   C17222810   4.322   0.879   3.532 -0.0755 -0.5732 -1.1594
   50MOL   C17322811   4.208   0.950   3.590 -0.2506 -0.3487 -0.3258
   50MOL   O17422812   4.218   1.032   3.683 -0.1290 -0.3284  0.0448
   50MOL   O17522813   4.097   0.927   3.529 -0.0438 -0.6834 -0.0617
   50MOL   C17622814   4.311   0.798   3.419 -0.1766  0.3956  0.0903
   50MOL   C17722815   4.426   0.751   3.348  0.1746  0.1320 -0.0712
   50MOL   H17822816   5.110   0.772   3.258 -0.7851  0.8833 -1.4758
   50MOL   H17922817   4.988   0.888   3.317  0.1889  0.6768 -0.5282
   50MOL   H18022818   4.965   0.661   3.434  0.3259 -1.3913  0.1640
   50MOL   H18122819   4.903   0.602   3.289  2.3003  0.0281 -1.6731
   50MOL   H18222820   4.660   0.885   3.550 -0.7609  3.2998 -1.6195
   50MOL   H18322821   4.468   0.967   3.662 -1.0765  0.9128 -0.4507
   50MOL   H18422822   4.212   0.775   3.384  0.5889 -1.3062 -0.9766
   50MOL   H18522823   4.410   0.687   3.263  0.0943 -0.7095  0.5621
   50MOL   O18622824   3.976   1.019   3.576 -0.2084 -0.3953 -0.1032
   50MOL   C18722825   3.973   1.139   3.496 -0.3792  0.5019  0.4858
   50MOL   C18822826   3.907   1.249   3.579 -0.0436  0.3886 -0.0776
   50MOL   O18922827   3.765   1.228   3.577  0.2813  0.1949 -0.0383
   50MOL   C19022828   3.676   1.327   3.599 -0.2395  1.0795  0.1133
   50MOL   O19122829   3.700   1.440   3.650  0.0622  0.4065 -0.4171
   50MOL   C19222830   3.542   1.287   3.548 -0.3116  0.0459  0.5484
   50MOL   C19322831   3.518   1.157   3.495 -0.2294 -0.8242  0.4295
   50MOL   C19422832   3.393   1.131   3.440 -0.0053  0.7446 -0.1473
   50MOL   C19522833   3.291   1.234   3.443 -0.2679 -0.5694  0.0123
   50MOL   C19622834   3.152   1.202   3.406 -0.5202  0.5190  0.8719
   50MOL   O19722835   3.113   1.090   3.372  1.2694  0.4407 -0.1510
   50MOL   O19822836   3.074   1.304   3.401  0.2193 -0.0315  0.7361
   50MOL   C19922837   3.323   1.366   3.480  0.4177  0.8966  0.1276
   50MOL   C20022838   3.448   1.387   3.537  0.3868  0.2647  0.2968
   50MOL   H20122839   4.077   1.160   3.473 -0.2434  0.6780  1.2566
   50MOL   H20222840   3.925   1.127   3.398 -1.2591 -2.3249  1.2202
   50MOL   H20322841   3.926   1.342   3.524 -0.6415  1.0412  0.8196
   50MOL   H20422842   3.943   1.262   3.681 -1.2074  0.4761  0.3202
   50MOL   H20522843   3.599   1.085   3.494  0.8993  0.3762  2.5136
   50MOL   H20622844   3.363   1.033   3.406  1.7297 -0.2547  1.1291
   50MOL   H20722845   3.249   1.445   3.488 -0.1214  0.3139  1.0433
   50MOL   H20822846   3.470   1.491   3.557 -1.7150  0.6334  0.8660
   50MOL   O20922847   2.930   1.280   3.366  0.0427 -0.0167 -0.5559
   50MOL   C21022848   2.922   1.328   3.230  0.0011 -0.2802  0.1958
   50MOL   C21122849   2.779   1.346   3.186 -0.0275 -1.0308  0.8048
   50MOL   O21222850   2.750   1.318   3.050 -0.1988 -0.1581 -0.2740
   50MOL   C21322851   2.627   1.332   3.001  0.0345 -0.0298  0.4017
   50MOL   O21422852   2.535   1.350   3.074 -0.4150 -0.2427  0.1621
   50MOL   C21522853   2.617   1.332   2.848  0.7893 -0.2197 -0.4043
   50MOL   C21622854   2.492   1.302   2.784  0.2482 -0.0913 -0.3780
   50MOL   C21722855   2.491   1.289   2.643  0.1488  0.1114 -0.1162
   50MOL   C21822856   2.604   1.303   2.563  1.1588 -0.0536  0.1332
   50MOL   C21922857   2.606   1.290   2.419  0.1781  0.3974  0.9975
   50MOL   O22022858   2.498   1.283   2.358  0.0969 -0.6453 -0.2497
   50MOL   O22122859   2.722   1.295   2.354 -0.6063 -0.0095  0.6703
   50MOL   C22222860   2.725   1.334   2.627 -0.1395 -0.1699  0.0036
   50MOL   C22322861   2.733   1.345   2.764 -0.8819  0.3172  0.3920
   50MOL   H22422862   2.980   1.418   3.209  0.2865 -0.8165 -1.3581
   50MOL   H22522863   2.960   1.254   3.160  2.1178  3.2212 -2.5258
   50MOL   H22622864   2.745   1.442   3.226  3.6539 -0.1351  1.9851
   50MOL   H22722865   2.728   1.264   3.237  0.0000 -1.5872 -0.0460
   50MOL   H22822866   2.404   1.272   2.839 -0.3294  0.5177 -0.9638
   50MOL   H22922867   2.393   1.271   2.603  0.6416 -1.9992 -0.4503
   50MOL   H23022868   2.815   1.343   2.569  0.1868 -1.1022  0.3543
   50MOL   H23122869   2.824   1.368   2.817  0.6944 -3.9186 -0.3257
   50MOL   O23222870   2.716   1.271   2.202  0.4408 -0.1924 -0.0036
   50MOL   C23322871   2.687   1.395   2.131 -0.2228 -0.5698  0.4726
   50MOL   C23422872   2.689   1.355   1.981 -0.0241 -0.4411  0.4069
   50MOL   O23522873   2.558   1.319   1.924  0.1801 -0.3560 -0.2397
   50MOL   C23622874   2.539   1.327   1.787 -0.8777  0.1883 -0.3666
   50MOL   O23722875   2.632   1.331   1.705 -0.0471  0.2543  0.0768
   50MOL   C23822876   2.393   1.331   1.752 -0.2514 -0.7125 -0.0299
   50MOL   C23922877   2.293   1.296   1.851 -0.4343  0.3323 -0.0914
   50MOL   C24022878   2.156   1.297   1.815 -0.3082  0.7018 -0.0637
   50MOL   C24122879   2.110   1.332   1.685  0.5091  0.1224  0.2699
   50MOL   C24222880   1.965   1.358   1.645 -0.8902  0.0256  0.5932
   50MOL   O24322881   1.936   1.418   1.540 -0.1401 -0.7334 -0.3646
   50MOL   O24422882   1.867   1.302   1.718 -0.1614 -0.0553  0.0860
   50MOL   C24522883   2.210   1.365   1.591  0.4748  0.3338  0.1340
   50MOL   C24622884   2.348   1.367   1.625  0.4056 -0.3231  0.0628
   50MOL   H24722885   2.601   1.461   2.146 -0.3749 -0.5560 -0.4585
   50MOL   H24822886   2.778   1.450   2.154 -0.4677  0.2112 -0.4165
   50MOL   H24922887   2.760   1.274   1.970 -0.0777 -0.6585  1.6333
   50MOL   H25022888   2.736   1.434   1.923  0.9823  0.6038  2.5760
   50MOL   H25122889   2.335   1.281   1.950 -0.8211  0.2024  0.0548
   50MOL   H25222890   2.079   1.287   1.890  0.1750  5.0997  1.1474
   50MOL   H25322891   2.183   1.402   1.492 -2.6128 -0.3933  0.6514
   50MOL   H25422892   2.411   1.395   1.542 -0.1481  0.4849 -0.0909
   50MOL   O25522893   1.732   1.320   1.654  0.3500  0.0490  0.1342
   50MOL   C25622894   1.702   1.217   1.561  0.0559  0.0621  0.1044
   50MOL   C25722895   1.637   1.094   1.624  1.1478 -0.7789  0.3506
   50MOL   O25822896   1.730   1.016   1.701  0.1353  0.3402 -0.6655
   50MOL   C25922897   1.728   1.029   1.841 -0.7420  0.0659  0.3419
   50MOL   O26022898   1.662   1.119   1.891 -0.0254  0.7123 -0.0509
   50MOL   C26122899   1.808   0.921   1.916 -0.3375 -0.4377  0.4317
   50MOL   C26222900   1.887   0.824   1.849 -0.6004  0.2249 -0.4342
   50MOL   C26322901   1.947   0.718   1.929 -0.3907 -0.1122  0.9471
   50MOL   C26422902   1.926   0.705   2.066 -0.1810 -0.1292  0.1785
   50MOL   C26522903   1.963   0.578   2.134  0.2088  0.5091  0.7630
   50MOL   O26622904   1.952   0.568   2.255 -0.0508  0.1983  0.2368
   50MOL   O26722905   2.016   0.482   2.053  0.3966 -0.7495  0.7234
   50MOL   C26822906   1.858   0.813   2.130 -0.0798  0.3533 -0.3737
   50MOL   C26922907   1.798   0.913   2.056  0.1932 -0.0193 -0.4181
   50MOL   H27022908   1.635   1.271   1.494  1.3069  3.0586  1.1810
   50MOL   H27122909   1.788   1.205   1.496  0.0013 -0.3318  0.1032
   50MOL   H27222910   1.604   1.027   1.544 -3.2198  1.1294  0.3944
   50MOL   H27322911   1.546   1.116   1.680  1.5139  0.2935  0.5456
   50MOL   H27422912   1.881   0.812   1.742 -1.0714 -1.2042 -0.2603
   50MOL   H27522913   1.996   0.636   1.878 -2.3867 -0.3542 -0.6594
   50MOL   H27622914   1.833   0.800   2.235  0.4630 -1.9172 -0.4866
   50MOL   H27722915   1.742   0.989   2.107  1.1211  0.6671 -0.3974
   50MOL   O27822916   2.061   0.357   2.122  0.2308 -0.3985 -0.1028
   50MOL   C27922917   1.945   0.274   2.139 -0.7967 -0.1508  0.1223
   50MOL   C28022918   1.891   0.212   2.008  0.0692  0.6992 -0.1742
   50MOL   O28122919   1.957   0.098   1.954  0.2322  0.4030  0.0856
   50MOL   C28222920   1.934   8.246   2.004 -0.5243  0.2839  0.5976
   50MOL   O28322921   1.866   8.216   2.101  0.6943 -0.1450 -0.1670
   50MOL   C28422922   1.997   8.147   1.917 -0.2515  0.4113  0.0568
   50MOL   C28522923   2.094   8.184   1.826 -0.1868  0.3257 -0.4332
   50MOL   C28622924   2.149   8.093   1.739  0.5556  0.0304 -0.7462
   50MOL   C28722925   2.111   7.957   1.746 -0.2184  0.4933  0.3215
   50MOL   C28822926   2.177   7.858   1.655 -0.4493 -0.5729 -0.3760
   50MOL   O28922927   2.120   7.758   1.611  0.1388 -0.6623  0.1722
   50MOL   O29022928   2.307   7.889   1.633  0.0640  0.4902 -0.1138
   50MOL   C29122929   2.009   7.917   1.835 -0.6774  0.3730 -0.5239
   50MOL   C29222930   1.956   8.012   1.924  0.2966 -0.6279  0.3930
   50MOL   H29322931   1.981   0.195   2.204  2.4670 -0.2607 -1.7223
   50MOL   H29422932   1.866   0.331   2.189  0.2194  0.6780  0.7863
   50MOL   H29522933   1.870   0.282   1.927 -0.2868 -1.8685 -2.3817
   50MOL   H29622934   1.790   0.172   2.022  0.4249 -0.2441 -0.3079
   50MOL   H29722935   2.126   0.012   1.828  2.1042 -0.3941  1.2929
   50MOL   H29822936   2.224   8.125   1.668  1.2951 -1.3680 -0.6180
   50MOL   H29922937   1.970   7.818   1.849 -1.5110  0.7930  0.1919
   50MOL   H30022938   1.881   7.987   1.998 -0.5110  1.5505  0.3507
   50MOL   O30122939   2.387   7.775   1.581  0.6675  0.2020  0.2492
   50MOL   C30222940   2.449   7.715   1.689  0.5510  0.4086  0.2652
   50MOL   C30322941   2.529   7.594   1.639  0.5344  0.8422 -0.1270
   50MOL   O30422942   2.563   7.495   1.740 -0.2746 -0.5253 -0.2560
   50MOL   C30522943   2.614   7.375   1.705 -0.1572  0.2968  1.2197
   50MOL   O30622944   2.616   7.336   1.589  0.2405 -0.5191 -0.5521
   50MOL   C30722945   2.652   7.298   1.824 -0.3834  0.3846  0.2947
   50MOL   C30822946   2.700   7.165   1.809 -0.2984  0.9570  0.3531
   50MOL   C30922947   2.734   7.087   1.924 -0.0163  0.2049  0.5715
   50MOL   C31022948   2.713   7.142   2.054  0.3948  0.2215  0.5002
   50MOL   C31122949   2.741   7.049   2.167  0.6040 -0.1214 -0.0886
   50MOL   O31222950   2.787   6.934   2.153 -0.1230  0.0172  0.0410
   50MOL   O31322951   2.706   7.091   2.282 -0.8431 -0.2257  0.2875
   50MOL   C31422952   2.661   7.271   2.068  0.3004  0.1224  0.0330
   50MOL   C31522953   2.642   7.353   1.956  0.0213  0.5522  0.2395
   50MOL   H31622954   2.515   7.793   1.725  0.5665  0.5834 -0.1334
   50MOL   H31722955   2.379   7.683   1.766 -1.2511 -0.9403 -1.8330
   50MOL   H31822956   2.629   7.622   1.606  0.0730  2.5348 -0.1227
   50MOL   H31922957   2.485   7.553   1.548 -2.1800  2.3345  0.4631
   50MOL   H32022958   2.711   7.126   1.709  0.7179  1.6336  0.1952
   50MOL   H32122959   2.763   6.983   1.910 -2.0901  0.0075 -2.6447
   50MOL   H32222960   2.659   7.306   2.170  1.0831 -3.7598  1.4709
   50MOL   H32322961   2.588   7.444   1.975 -1.6820 -0.4912  0.4490
   50MOL   O32422962   2.745   7.006   2.405 -0.2539  0.1609 -0.0762
   50MOL   C32522963   2.652   6.904   2.421  0.0246 -0.3403 -0.1311
   50MOL   C32622964   2.668   6.848   2.562 -0.6906  0.2144  0.1823
   50MOL   O32722965   2.567   6.896   2.643  0.3332  0.5202  0.5949
   50MOL   C32822966   2.553   6.861   2.774  0.2736 -0.4451  0.2167
   50MOL   O32922967   2.621   6.775   2.825 -0.0972  0.0865  1.1394
   50MOL   C33022968   2.442   6.933   2.850 -0.4092  0.0562 -0.3803
   50MOL   C33122969   2.354   7.012   2.781 -0.4564  0.4982  0.0755
   50MOL   C33222970   2.242   7.072   2.830 -0.1607  0.0790  0.1284
   50MOL   C33322971   2.228   7.063   2.970  0.7782 -0.1993 -0.9039
   50MOL   C33422972   2.126   7.151   3.033 -0.4945  0.0034  0.3286
   50MOL   O33522973   2.034   7.204   2.974 -0.4506 -0.3428  0.7397
   50MOL   O33622974   2.158   7.184   3.164 -0.2190 -0.2073 -0.1156
   50MOL   C33722975   2.312   6.982   3.049  0.3991 -0.4790 -0.0873
   50MOL   C33822976   2.413   6.909   2.988 -0.5989 -0.1955 -0.3279
   50MOL   H33922977   2.555   6.944   2.392  1.2934  2.2766 -0.9041
   50MOL   H34022978   2.685   6.825   2.353 -3.8857 -1.7052 -0.5696
   50MOL   H34122979   2.758   6.873   2.618  0.1489 -0.1010 -0.9888
   50MOL   H34222980   2.668   6.739   2.565 -3.0091  0.2280  1.7255
   50MOL   H34322981   2.382   7.038   2.680 -0.3310 -1.8725 -0.5280
   50MOL   H34422982   2.175   7.125   2.766  0.1323  0.1750 -0.0990
   50MOL   H34522983   2.294   6.978   3.155 -3.4497 -2.2652 -0.7085
   50MOL   H34622984   2.462   6.836   3.051 -1.0848  0.5578  0.9454
   50MOL   O34722985   2.066   7.281   3.233  0.8589 -0.0783 -0.0316
   50MOL   C34822986   1.989   7.213   3.323  0.6035 -0.4848 -0.6216
   50MOL   C34922987   1.873   7.142   3.252  0.2098  0.5014 -0.9056
   50MOL   O35022988   1.773   7.090   3.340 -0.0729  0.8708 -0.3943
   50MOL   C35122989   1.795   6.965   3.387 -0.3312 -1.0465 -0.1142
   50MOL   O35222990   1.901   6.910   3.379 -0.2120  0.0494  0.3400
   50MOL   C35322991   1.687   6.911   3.483  0.0268  0.3875  0.2061
   50MOL   C35422992   1.707   6.788   3.553 -0.2231 -0.7713 -0.4155
   50MOL   C35522993   1.615   6.737   3.644  0.5040 -0.1331  0.5995
   50MOL   C35622994   1.492   6.799   3.662  0.5601 -0.4746 -0.3623
   50MOL   C35722995   1.395   6.730   3.763  0.6318  1.4035 -0.0837
   50MOL   O35822996   1.418   6.628   3.824 -0.1089 -0.3642  0.4929
   50MOL   O35922997   1.285   6.807   3.783  0.2371  0.0805  0.4719
   50MOL   C36022998   1.472   6.924   3.600  0.1332 -0.0168 -0.1241
   50MOL   C36122999   1.570   6.983   3.513 -0.5589 -0.3539 -0.4173
   50MOL   H36223000   2.048   7.147   3.387 -2.0258 -0.3281  2.1182
   50MOL   H36323001   1.946   7.286   3.393 -1.5531 -0.9592 -1.4005
   50MOL   H36423002   1.925   7.068   3.191  0.3879  0.1532 -0.3312
   50MOL   H36523003   1.812   7.214   3.198 -0.6356  0.3058 -0.2420
   50MOL   H36623004   1.794   6.724   3.550 -0.3484 -1.0334  1.3538
   50MOL   H36723005   1.643   6.646   3.696 -1.0818 -0.6634  0.5306
   50MOL   H36823006   1.374   6.966   3.613 -0.4719 -1.1037 -1.0246
   50MOL   H36923007   1.546   7.079   3.469 -0.8874 -0.2460 -0.0096
   50MOL   O37023008   1.189   6.757   3.885  0.7184  0.3055 -0.6745
   50MOL   C37123009   1.233   6.803   4.009  0.0381 -0.0957  0.3310
   50MOL   C37223010   1.128   6.742   4.103 -0.5408  0.4306  0.6279
   50MOL   O37323011   1.122   6.806   4.224 -0.2919  1.2158  0.3580
   50MOL   C37423012   1.040   6.911   4.244  0.1927 -0.1166 -1.0250
   50MOL   O37523013   0.978   6.962   4.147  0.9982  0.5023  0.3545
   50MOL   C37623014   1.043   6.973   4.379  0.2343 -0.0993 -0.5172
   50MOL   C37723015   0.953   7.075   4.419  0.8022  0.8905 -0.4206
   50MOL   C37823016   0.958   7.132   4.545  0.1001  0.1285 -0.2141
   50MOL   C37923017   1.064   7.095   4.635  0.1546  0.5315 -0.9852
   50MOL   C38023018   1.074   7.164   4.771 -0.2525 -0.0963 -0.5763
   50MOL   O38123019   0.992   7.250   4.808  0.0800 -0.5168  0.1410
   50MOL   O38223020   1.173   7.106   4.847  0.0740 -0.0487 -0.8844
   50MOL   C38323021   1.162   7.003   4.591 -0.1418  0.9847 -0.3296
   50MOL   C38423022   1.146   6.939   4.465  0.1547 -0.2922 -0.3450
   50MOL   H38523023   1.331   6.763   4.034 -0.1739 -1.6902 -1.2703
   50MOL   H38623024   1.248   6.911   4.015 -0.4102  0.0910 -1.6416
   50MOL   H38723025   1.167   6.641   4.121 -0.4144  0.5644  1.1065
   50MOL   H38823026   1.028   6.718   4.067  0.2004 -1.0302 -0.5218
   50MOL   H38923027   0.881   7.110   4.346 -0.5461 -2.8568 -1.0036
   50MOL   H39023028   0.887   7.209   4.573 -1.6852 -0.8509 -1.9441
   50MOL   H39123029   1.241   6.968   4.657 -2.0217  1.8322  2.4543
   50MOL   H39223030   1.207   6.853   4.441 -2.2098 -1.7400 -1.3164
   50MOL   O39323031   1.168   7.136   4.992  0.0021  0.9022  0.0413
   50MOL   C39423032   1.128   7.014   5.058 -0.4971  0.2423 -0.0853
   50MOL   C39523033   1.252   6.937   5.107 -0.3239  0.4813 -0.0019
   50MOL   O39623034   1.253   6.916   5.243  0.0691  0.7185  0.2464
   50MOL   C39723035   1.346   6.843   5.303 -0.7524  0.5728 -0.3851
   50MOL   O39823036   1.427   6.768   5.251 -0.1331 -0.1278 -0.2374
   50MOL   C39923037   1.351   6.854   5.460 -0.3495  0.1003 -0.2233
   50MOL   C40023038   1.451   6.783   5.521 -0.2419  0.1341 -0.3724
   50MOL   C40123039   1.465   6.786   5.661  0.3921  0.2967 -0.5980
   50MOL   C40223040   1.364   6.856   5.741 -0.1716  0.7213  0.1607
   50MOL   C40323041   1.374   6.849   5.888  0.1855  0.5003 -0.1924
   50MOL   O40423042   1.452   6.780   5.954  0.2911  0.0150  0.3215
   50MOL   O40523043   1.282   6.920   5.949  0.0557 -0.1662 -0.0395
   50MOL   C40623044   1.261   6.927   5.678  0.0506 -0.3929  0.2070
   50MOL   C40723045   1.254   6.929   5.535  0.0453  0.0618  0.1456
   50MOL   H40823046   1.073   7.049   5.146  0.3444 -0.7578  0.8600
   50MOL   H40923047   1.066   6.956   4.990  1.2032 -0.3983 -1.1205
   50MOL   H41023048   1.345   6.980   5.071  0.2771 -1.2514 -0.5776
   50MOL   H41123049   1.252   6.836   5.066 -3.3665  0.3190  0.2848
   50MOL   H41223050   1.526   6.742   5.456 -0.1060  1.3376 -0.9751
   50MOL   H41323051   1.551   6.737   5.705  0.0878  0.4855  0.2316
   50MOL   H41423052   1.180   6.978   5.728  0.2519  0.9601 -0.8136
   50MOL   H41523053   1.174   6.979   5.482  1.0233  1.6218  0.0843
   50MOL   O41623054   1.280   6.928   6.103 -0.1116  0.3772 -0.2020
   50MOL   C41723055   1.340   7.050   6.140 -0.1955 -0.4721 -1.0543
   50MOL   C41823056   1.347   7.050   6.293  0.0798  0.6561  0.5981
   50MOL   O41923057   1.468   6.976   6.324  0.2426 -0.0298  0.3383
   50MOL   C42023058   1.512   6.978   6.447  0.0403 -0.5254  0.2225
   50MOL   O42123059   1.449   7.031   6.537 -0.2378  0.4690  0.0053
   50MOL   C42223060   1.636   6.911   6.462 -0.0302 -0.9984  0.2920
   50MOL   C42323061   1.706   6.909   6.590  0.0007  0.4756 -0.0278
   50MOL   C42423062   1.829   6.840   6.610 -0.0833  0.3390 -0.7286
   50MOL   C42523063   1.897   6.783   6.501  0.4156  0.2463  1.6761
   50MOL   C42623064   2.026   6.713   6.505  0.5624  0.3266 -0.6109
   50MOL   O42723065   2.091   6.689   6.408 -0.4510  0.0448  0.4509
   50MOL   O42823066   2.057   6.671   6.626  0.2502  0.8708  0.0969
   50MOL   C42923067   1.824   6.780   6.380 -0.3113  0.2338 -0.5432
   50MOL   C43023068   1.704   6.843   6.356  0.5624 -0.0912  0.3067
   50MOL   H43123069   1.436   7.050   6.089  0.6055 -1.6344  0.4079
   50MOL   H43223070   1.288   7.139   6.104  2.0476  1.7794  1.0724
   50MOL   H43323071   1.262   7.000   6.340  1.3118 -1.3682  0.7575
   50MOL   H43423072   1.354   7.151   6.333  0.8156  0.1938  1.6771
   50MOL   H43523073   1.657   6.937   6.682  2.1822  0.7890  1.0809
   50MOL   H43623074   1.876   6.832   6.707 -1.3187  1.8644  0.0159
   50MOL   H43723075   1.866   6.725   6.298  0.5143  1.5271 -1.0044
   50MOL   H43823076   1.654   6.847   6.260  1.2868  1.1164 -0.0356
   50MOL   O43923077   2.150   6.547   6.624 -0.1570 -0.6162 -0.5337
   50MOL   C44023078   2.278   6.594   6.647  0.0525  0.1168 -0.3980
   50MOL   C44123079   2.374   6.476   6.654 -0.1810  1.0401  0.5048
   50MOL   O44223080   2.348   6.391   6.766 -0.7085 -0.5767 -0.4015
   50MOL   C44323081   2.394   6.437   6.892 -0.3750  0.3126 -0.3085
   50MOL   O44423082   2.463   6.539   6.910 -0.0940 -0.1304  0.2568
   50MOL   C44523083   2.345   6.346   7.003  0.6922  0.4243  0.3107
   50MOL   C44623084   2.366   6.389   7.136  0.7793  0.2319  0.0055
   50MOL   C44723085   2.320   6.308   7.239  0.0265  0.7799  0.1414
   50MOL   C44823086   2.245   6.197   7.223  0.5254  0.6096 -0.2495
   50MOL   C44923087   2.167   6.130   7.331  0.0602  0.1094  0.3333
   50MOL   O45023088   2.078   6.052   7.307  0.2811  0.0952 -0.6760
   50MOL   O45123089   2.203   6.172   7.454 -0.3946  0.1876  0.4376
   50MOL   C45223090   2.247   6.140   7.087 -0.6840  0.0048 -0.2708
   50MOL   C45323091   2.292   6.214   6.974 -0.0264 -0.1855 -0.0700
   50MOL   H45423092   2.312   6.665   6.572 -0.9681 -0.1365 -1.1227
   50MOL   H45523093   2.282   6.658   6.735 -0.0397  1.6775 -1.5123
   50MOL   H45623094   2.480   6.500   6.664 -0.1711  1.9029 -1.3731
   50MOL   H45723095   2.364   6.413   6.565  0.6946 -1.6089  2.2331
   50MOL   H45823096   2.405   6.487   7.159  0.1169  0.4915  0.0199
   50MOL   H45923097   2.325   6.340   7.342 -0.2381 -1.8054  0.9697
   50MOL   H46023098   2.196   6.046   7.067 -0.3759  0.0654 -1.3781
   50MOL   H46123099   2.287   6.174   6.873  0.7659  0.8668 -0.5313
   50MOL   H46223100   2.128   6.147   7.506 -1.1283  1.3306 -0.0545
   51MOL     O123101   4.791   8.214   6.893  0.3759  0.3466  0.2440
   51MOL     C223102   4.739   8.099   6.833  0.4047 -0.4307 -1.1372
   51MOL     C323103   4.590   8.086   6.865 -0.2293 -0.2637  0.3924
   51MOL     O423104   4.537   7.981   6.778  0.0116  0.5678 -0.1477
   51MOL     C523105   4.512   8.006   6.646  0.1846 -0.0011  0.7325
   51MOL     O623106   4.518   8.123   6.603  0.6854  0.3686  0.1009
   51MOL     C723107   4.482   7.888   6.560 -0.3489 -0.1084 -0.7810
   51MOL     C823108   4.534   7.762   6.592  0.1612  0.2839  0.3231
   51MOL     C923109   4.535   7.653   6.497 -0.0754  0.1470 -0.7306
   51MOL    C1023110   4.476   7.675   6.372  0.0368 -0.0181 -0.0185
   51MOL    C1123111   4.471   7.569   6.263 -0.8374 -0.3628  0.7527
   51MOL    O1223112   4.407   7.587   6.158  1.1400 -0.2318 -0.0055
   51MOL    O1323113   4.539   7.454   6.296 -0.2179 -0.0975 -0.1324
   51MOL    C1423114   4.410   7.797   6.349 -0.5845 -0.7216 -0.1763
   51MOL    C1523115   4.413   7.902   6.439  0.0207 -0.3328 -0.2160
   51MOL    H1623116   4.759   8.108   6.726 -0.3433  0.3700 -1.2186
   51MOL    H1723117   4.796   8.018   6.879  0.7905  1.4744  1.8616
   51MOL    H1823118   4.530   8.176   6.848  2.4089  1.2626 -1.1471
   51MOL    H1923119   4.586   8.065   6.972 -1.5425 -0.6237  0.2850
   51MOL    H2023120   4.585   7.749   6.686 -0.9623 -1.1877  0.7472
   51MOL    H2123121   4.584   7.562   6.529 -4.1452 -1.5886  1.0225
   51MOL    H2223122   4.363   7.810   6.253  0.2330 -0.0685 -0.4870
   51MOL    H2323123   4.375   7.999   6.409  1.8880  0.5021  0.0320
   51MOL    H2423124   4.773   8.210   6.986 -0.5312  0.3315  0.0696
   51MOL    O2523125   4.537   7.360   6.184 -0.0746 -0.0597  0.2336
   51MOL    C2623126   4.457   7.245   6.230 -0.2372 -0.2000  0.2607
   51MOL    C2723127   4.471   7.139   6.121  0.4247  0.0890 -0.1139
   51MOL    O2823128   4.388   7.166   6.004 -0.0575  0.1343  0.4411
   51MOL    C2923129   4.264   7.124   5.980  0.1244 -0.0270  0.6027
   51MOL    O3023130   4.207   7.046   6.052  0.7422 -0.5043 -0.3404
   51MOL    C3123131   4.197   7.195   5.864 -0.8058  0.2465  0.2352
   51MOL    C3223132   4.272   7.245   5.755  0.2476  0.0930  0.1240
   51MOL    C3323133   4.207   7.321   5.648 -0.2674  0.7226  0.0938
   51MOL    C3423134   4.064   7.329   5.644 -0.0920  0.0746  0.2398
   51MOL    C3523135   3.991   7.392   5.536 -0.9580  0.7132  0.5757
   51MOL    O3623136   3.876   7.424   5.546 -0.0991  0.4252  0.3217
   51MOL    O3723137   4.064   7.414   5.427  0.2107 -0.1118  0.3475
   51MOL    C3823138   3.995   7.278   5.753 -0.1849 -0.1516  0.3476
   51MOL    C3923139   4.057   7.216   5.862 -0.2317 -0.1797 -0.7771
   51MOL    H4023140   4.502   7.210   6.323 -0.0433  0.7205  0.5193
   51MOL    H4123141   4.354   7.273   6.252 -0.3595  0.5199 -1.2293
   51MOL    H4223142   4.458   7.036   6.155 -0.3249  0.6215  1.2434
   51MOL    H4323143   4.571   7.140   6.078  0.3781  0.1114 -0.2238
   51MOL    H4423144   4.378   7.230   5.740 -0.6407 -2.4070 -4.6828
   51MOL    H4523145   4.253   7.359   5.559  0.5412 -0.3926  0.0262
   51MOL    H4623146   3.887   7.286   5.750  0.0137  3.3162 -0.7416
   51MOL    H4723147   4.005   7.174   5.947 -0.5009  2.3265  0.3601
   51MOL    O4823148   3.985   7.471   5.310  0.2196  0.1327 -0.1393
   51MOL    C4923149   4.029   7.602   5.273  0.1964 -0.2523 -0.1831
   51MOL    C5023150   3.961   7.711   5.361  0.1124 -0.5138  0.4407
   51MOL    O5123151   3.841   7.754   5.278  0.2018 -0.7927 -0.4448
   51MOL    C5223152   3.748   7.836   5.339  0.2630 -0.7247  0.3633
   51MOL    O5323153   3.745   7.835   5.462  0.3061  0.0107  0.4289
   51MOL    C5423154   3.661   7.915   5.249  0.4064 -0.3480  0.2157
   51MOL    C5523155   3.579   8.020   5.295  0.1482 -0.3344 -0.4302
   51MOL    C5623156   3.497   8.086   5.205  0.2275 -0.1854  0.1549
   51MOL    C5723157   3.482   8.058   5.073  0.0282 -0.4645 -0.2286
   51MOL    C5823158   3.408   8.147   4.979 -0.3767  0.2740  0.1201
   51MOL    O5923159   3.352   8.246   5.017  0.1524  0.6514  0.0922
   51MOL    O6023160   3.411   8.103   4.851  0.9468  0.5998  0.0690
   51MOL    C6123161   3.558   7.946   5.028 -0.2138 -0.0842  0.2245
   51MOL    C6223162   3.649   7.879   5.113  0.6675  0.0051  0.0402
   51MOL    H6323163   4.132   7.625   5.302  0.1762 -2.9786  2.2736
   51MOL    H6423164   4.026   7.621   5.166 -1.8154 -0.8451 -0.2472
   51MOL    H6523165   4.018   7.802   5.379 -0.1883  0.0961 -1.5686
   51MOL    H6623166   3.929   7.668   5.456  0.9840 -2.2037 -0.0086
   51MOL    H6723167   3.569   8.042   5.400 -0.8245  3.2805 -1.2094
   51MOL    H6823168   3.446   8.173   5.244  0.3083  0.0231 -0.2054
   51MOL    H6923169   3.556   7.926   4.921 -1.0209  1.4796 -0.0804
   51MOL    H7023170   3.712   7.796   5.084  0.4108 -0.6471  1.3378
   51MOL    O7123171   3.340   8.194   4.754 -0.5370  0.0211 -0.0097
   51MOL    C7223172   3.199   8.159   4.764 -0.2165  0.1298  0.0203
   51MOL    C7323173   3.122   8.182   4.632 -0.4803 -0.1716 -0.9093
   51MOL    O7423174   3.114   0.048   4.603  0.5287 -0.1530  0.7557
   51MOL    C7523175   3.200   0.108   4.513 -0.3325  0.2894 -0.1411
   51MOL    O7623176   3.301   0.057   4.475 -0.4227  0.2299 -0.2686
   51MOL    C7723177   3.167   0.247   4.465  0.0329  0.1324 -0.4867
   51MOL    C7823178   3.235   0.309   4.357  0.4064 -0.0136  0.7249
   51MOL    C7923179   3.193   0.435   4.308 -0.3523 -0.2219 -0.6778
   51MOL    C8023180   3.088   0.506   4.382  0.6546 -0.3095  0.0337
   51MOL    C8123181   3.036   0.636   4.336 -0.0809 -0.3342  0.2227
   51MOL    O8223182   3.027   0.662   4.217  0.4690 -0.0923  0.1793
   51MOL    O8323183   2.997   0.716   4.435  0.2849  0.5938  0.2962
   51MOL    C8423184   3.021   0.438   4.483 -0.7503 -0.0664 -0.6520
   51MOL    C8523185   3.058   0.312   4.528  0.5819 -0.0218  0.4122
   51MOL    H8623186   3.186   8.054   4.791 -1.4163  0.2731  0.0423
   51MOL    H8723187   3.155   8.222   4.842  2.1479 -0.1474  1.6357
   51MOL    H8823188   3.026   8.132   4.645  0.2781 -1.6978 -1.0698
   51MOL    H8923189   3.174   8.138   4.547  0.7806 -0.6857  0.0963
   51MOL    H9023190   3.320   0.258   4.315  0.4688  0.3826  0.3639
   51MOL    H9123191   3.245   0.480   4.225 -1.8271 -0.2926 -1.6516
   51MOL    H9223192   2.943   0.497   4.529 -0.4320  0.4346 -0.7488
   51MOL    H9323193   3.001   0.269   4.609  1.2867  0.9077  1.4119
   51MOL    O9423194   2.955   0.854   4.394  0.6943  0.1361 -0.0099
   51MOL    C9523195   3.068   0.946   4.412 -0.1141 -0.1264  0.3854
   51MOL    C9623196   3.008   1.088   4.424  0.1403 -0.1033 -0.2844
   51MOL    O9723197   3.111   1.164   4.493  0.1710 -0.1424 -0.1354
   51MOL    C9823198   3.145   1.285   4.451 -0.0923  0.0195 -0.3521
   51MOL    O9923199   3.130   1.325   4.334 -0.6634 -0.0157  0.1573
   51MOL   C10023200   3.229   1.358   4.548 -0.1702 -0.4069  0.1456
   51MOL   C10123201   3.294   1.479   4.512  0.8011 -0.3479  0.8187
   51MOL   C10223202   3.388   1.526   4.609  0.5999  0.2627 -0.2642
   51MOL   C10323203   3.399   1.476   4.743  0.4164 -0.2944  0.3512
   51MOL   C10423204   3.494   1.524   4.844 -0.5128 -0.2481 -0.4531
   51MOL   O10523205   3.515   1.471   4.949  0.0882 -0.0511 -0.2072
   51MOL   O10623206   3.533   1.641   4.804  0.0482 -0.4868  0.1743
   51MOL   C10723207   3.330   1.357   4.775 -0.2006 -0.3579  0.2784
   51MOL   C10823208   3.240   1.307   4.678  0.0804  0.4030  0.3445
   51MOL   H10923209   3.125   0.943   4.506  0.0693 -1.6125  0.2422
   51MOL   H11023210   3.153   0.928   4.346 -2.9160 -0.0641 -3.3832
   51MOL   H11123211   2.921   1.103   4.490  0.6648 -0.9985  0.6235
   51MOL   H11223212   2.993   1.120   4.321 -0.1831  0.4525 -0.0693
   51MOL   H11323213   3.287   1.528   4.416 -0.9445 -2.2428 -0.0493
   51MOL   H11423214   3.454   1.606   4.580  0.6176  0.4077  0.1837
   51MOL   H11523215   3.346   1.309   4.870  1.0306  0.0148  0.2726
   51MOL   H11623216   3.194   1.215   4.709 -1.3246  0.9847  0.0246
   51MOL   O11723217   3.615   1.702   4.914  0.5629 -0.3768  0.2333
   51MOL   C11823218   3.529   1.786   4.998  0.1258 -0.7767  0.1798
   51MOL   C11923219   3.635   1.865   5.083  0.1052  0.3556 -0.6204
   51MOL   O12023220   3.568   1.946   5.184  0.0894  0.0646 -0.4505
   51MOL   C12123221   3.586   2.081   5.184  0.3704  0.3593  0.0552
   51MOL   O12223222   3.650   2.144   5.103 -0.0677  0.0767 -0.3729
   51MOL   C12323223   3.529   2.152   5.296  0.6243  0.0176 -0.0351
   51MOL   C12423224   3.536   2.291   5.317  0.1865 -0.2038  0.3430
   51MOL   C12523225   3.493   2.353   5.435 -0.2476  0.4713 -0.4817
   51MOL   C12623226   3.435   2.276   5.537 -0.5609 -0.4601  0.0010
   51MOL   C12723227   3.397   2.338   5.673 -0.9034  0.3379  0.3821
   51MOL   O12823228   3.317   2.278   5.751 -0.3597  0.4758  0.1808
   51MOL   O12923229   3.456   2.453   5.693  0.0970  0.0797  0.2151
   51MOL   C13023230   3.422   2.138   5.518 -0.7384  0.1677 -0.1762
   51MOL   C13123231   3.465   2.080   5.399 -0.2211  0.0542  0.5948
   51MOL   H13223232   3.471   1.858   4.940  1.7693 -0.0952 -0.6488
   51MOL   H13323233   3.473   1.713   5.056  0.6597 -0.4773  1.0782
   51MOL   H13423234   3.692   1.927   5.013  0.3006  0.4409 -0.3885
   51MOL   H13523235   3.699   1.801   5.143 -0.2786  2.2025  1.8292
   51MOL   H13623236   3.567   2.355   5.236 -0.7227  0.1865  0.2959
   51MOL   H13723237   3.485   2.459   5.455  2.0755  0.6377 -0.2881
   51MOL   H13823238   3.384   2.070   5.593 -0.5022  0.2037 -0.0238
   51MOL   H13923239   3.448   1.977   5.375 -0.6033  0.4573 -0.8888
   51MOL   O14023240   3.436   2.516   5.829  0.5787  0.0381  0.2562
   51MOL   C14123241   3.309   2.588   5.835  0.6782  0.3059  0.0992
   51MOL   C14223242   3.293   2.644   5.974  0.0226 -0.2833  0.4364
   51MOL   O14323243   3.281   2.534   6.064 -0.2506 -0.4143  0.3805
   51MOL   C14423244   3.361   2.519   6.178  0.0264  0.2829  0.2858
   51MOL   O14523245   3.458   2.588   6.198  0.5664 -0.0961  0.3488
   51MOL   C14623246   3.310   2.415   6.262  0.0995  0.4171  0.2972
   51MOL   C14723247   3.176   2.375   6.262 -0.2920 -0.4752 -0.5319
   51MOL   C14823248   3.131   2.282   6.358  0.3416 -0.3869  0.1036
   51MOL   C14923249   3.227   2.226   6.444  0.0307  0.1252  0.1228
   51MOL   C15023250   3.186   2.112   6.531  1.1531  0.4535 -0.2839
   51MOL   O15123251   3.257   2.018   6.567  0.0824  0.0046  0.3024
   51MOL   O15223252   3.057   2.125   6.571 -0.0733 -0.2566  0.0916
   51MOL   C15323253   3.358   2.260   6.446 -0.1749 -0.3775 -0.4420
   51MOL   C15423254   3.401   2.363   6.357 -1.0668  0.6024 -0.6150
   51MOL   H15523255   3.299   2.673   5.767 -2.7321 -0.3002 -0.2738
   51MOL   H15623256   3.227   2.522   5.806 -0.1863  1.8680 -1.0971
   51MOL   H15723257   3.197   2.695   5.973  0.8426  1.4562 -4.4996
   51MOL   H15823258   3.375   2.712   5.994 -0.6717 -0.0506  2.5661
   51MOL   H15923259   3.100   2.411   6.194 -1.2378 -0.5110  0.4904
   51MOL   H16023260   3.027   2.254   6.356  0.1804  0.2040 -0.0723
   51MOL   H16123261   3.421   2.228   6.528 -0.7028 -0.7355 -0.1781
   51MOL   H16223262   3.502   2.388   6.388 -1.2825  1.2697 -0.4343
   51MOL   O16323263   3.009   2.022   6.665 -0.1926  0.7914 -0.1686
   51MOL   C16423264   2.904   1.948   6.607  0.3445  0.5399  0.0375
   51MOL   C16523265   2.766   2.024   6.557 -1.4137 -0.0034 -0.3542
   51MOL   O16623266   2.652   1.932   6.542  0.0104  0.1997  0.1940
   51MOL   C16723267   2.528   1.977   6.550  0.0968 -0.0716  0.2214
   51MOL   O16823268   2.495   2.094   6.570  0.3299  0.0912  0.5929
   51MOL   C16923269   2.431   1.865   6.545  0.0280  0.1503  0.3842
   51MOL   C17023270   2.294   1.894   6.558  0.6094  0.0006  0.2762
   51MOL   C17123271   2.202   1.790   6.549 -0.1392 -0.0538  0.5376
   51MOL   C17223272   2.239   1.659   6.531  0.0498  0.3860 -0.0545
   51MOL   C17323273   2.130   1.554   6.535  0.6418  0.7093 -1.3122
   51MOL   O17423274   2.015   1.573   6.488 -0.3272 -0.0163 -0.0369
   51MOL   O17523275   2.166   1.428   6.571 -0.3289 -0.4090 -0.1276
   51MOL   C17623276   2.377   1.625   6.515 -0.6338 -0.3492 -0.2403
   51MOL   C17723277   2.474   1.729   6.518  0.9194  0.4063 -0.3860
   51MOL   H17823278   2.942   1.891   6.523 -1.5298  0.0574 -0.5000
   51MOL   H17923279   2.879   1.880   6.689 -0.7240  0.4746 -0.3289
   51MOL   H18023280   2.768   2.066   6.456 -0.1964 -2.1148 -1.2386
   51MOL   H18123281   2.737   2.097   6.632  1.6810 -0.5499  1.4667
   51MOL   H18223282   2.256   1.994   6.550 -2.2985 -1.1465 -1.1608
   51MOL   H18323283   2.099   1.820   6.556 -0.0503  0.4955 -0.3766
   51MOL   H18423284   2.405   1.521   6.515 -0.1388 -0.2250  1.0776
   51MOL   H18523285   2.573   1.695   6.493  0.8316 -1.1934  1.3310
   51MOL   O18623286   2.059   1.321   6.554 -0.3119  0.2137  0.3661
   51MOL   C18723287   2.024   1.300   6.688  0.3840 -0.6937  0.6094
   51MOL   C18823288   1.877   1.256   6.703  0.0350  0.3226 -1.3622
   51MOL   O18923289   1.781   1.358   6.666  0.1392  0.5602 -1.2281
   51MOL   C19023290   1.697   1.421   6.761  0.1287 -0.1855 -0.0765
   51MOL   O19123291   1.689   1.394   6.876  0.1201 -0.1677 -0.2592
   51MOL   C19223292   1.631   1.539   6.703 -0.2955 -0.2857  0.1729
   51MOL   C19323293   1.527   1.598   6.773 -1.2934 -0.5895 -0.1355
   51MOL   C19423294   1.476   1.721   6.726 -1.3944 -0.4706 -0.2239
   51MOL   C19523295   1.522   1.782   6.606  0.4000  0.6250  0.0102
   51MOL   C19623296   1.465   1.909   6.555  1.0452 -0.0182 -0.4579
   51MOL   O19723297   1.492   1.956   6.444  0.1943 -0.1413  0.4609
   51MOL   O19823298   1.376   1.962   6.652 -0.1519 -0.0228 -0.2130
   51MOL   C19923299   1.630   1.720   6.535  0.0800  0.5325 -0.0188
   51MOL   C20023300   1.686   1.601   6.586  0.2850  1.0416  0.8053
   51MOL   H20123301   2.095   1.222   6.718  1.8121  0.7686  1.1246
   51MOL   H20223302   2.043   1.381   6.759 -0.6477 -0.1656  0.2793
   51MOL   H20323303   1.864   1.229   6.808  0.7751 -1.3026 -1.6864
   51MOL   H20423304   1.858   1.170   6.640  0.0076 -0.0900 -0.7926
   51MOL   H20523305   1.489   1.551   6.863 -0.4281  0.3798  0.7623
   51MOL   H20623306   1.397   1.767   6.784 -0.8453  1.7855 -1.1973
   51MOL   H20723307   1.676   1.760   6.446 -1.4081 -1.0583 -1.5441
   51MOL   H20823308   1.757   1.550   6.522 -0.6970 -2.6770  2.5088
   51MOL   O20923309   1.280   2.059   6.587  0.0340  0.1609 -0.7931
   51MOL   C21023310   1.161   1.990   6.554  0.1926  0.0273 -0.0170
   51MOL   C21123311   1.053   2.093   6.524 -0.2148  0.7725  0.4839
   51MOL   O21223312   1.080   2.145   6.397  0.0397 -0.1305 -0.2686
   51MOL   C21323313   1.014   2.243   6.350 -0.6104  0.0972  0.5011
   51MOL   O21423314   0.925   2.308   6.406  0.2997 -0.3568 -0.5597
   51MOL   C21523315   1.056   2.281   6.207 -0.3980  1.2340  0.4151
   51MOL   C21623316   1.161   2.216   6.136 -0.1025  0.1375 -0.3214
   51MOL   C21723317   1.195   2.260   6.006 -0.7661  0.5619  0.4815
   51MOL   C21823318   1.113   2.345   5.926  0.4957 -0.4389 -0.7821
   51MOL   C21923319   1.142   2.389   5.785  0.1255  0.2964 -0.1156
   51MOL   O22023320   1.085   2.484   5.729  0.2820  0.4095  0.3346
   51MOL   O22123321   1.246   2.321   5.735  0.7995 -0.2978 -1.0911
   51MOL   C22223322   1.010   2.410   5.998  0.4244  0.1002 -0.5207
   51MOL   C22323323   0.988   2.378   6.136 -0.5511  0.3210 -0.5075
   51MOL   H22423324   1.178   1.917   6.475  2.6789  0.5424  0.0100
   51MOL   H22523325   1.121   1.938   6.641 -2.3350  0.4124 -0.9057
   51MOL   H22623326   1.054   2.172   6.600  3.2076  1.6686 -0.3988
   51MOL   H22723327   0.955   2.045   6.531  0.1730  0.0888  1.3068
   51MOL   H22823328   1.218   2.144   6.192 -1.0416 -0.4146 -0.0727
   51MOL   H22923329   1.288   2.220   5.967 -0.5119  1.2579  0.3819
   51MOL   H23023330   0.945   2.484   5.954 -1.3727 -0.3173  1.3383
   51MOL   H23123331   0.909   2.437   6.180  0.5580  1.6109 -0.2048
   51MOL   O23223332   1.281   2.371   5.600  0.1902 -0.2003  0.1398
   51MOL   C23323333   1.221   2.292   5.496  0.1786  0.3453  0.1064
   51MOL   C23423334   1.121   2.392   5.422  0.1681  0.0513  0.1264
   51MOL   O23523335   1.080   2.335   5.299 -0.0502  0.5144 -0.3978
   51MOL   C23623336   0.984   2.240   5.308  0.3351  0.4026  0.1890
   51MOL   O23723337   0.939   2.199   5.413 -0.1722  0.1134 -0.1474
   51MOL   C23823338   0.932   2.188   5.178  0.0578  0.0442  0.3408
   51MOL   C23923339   1.006   2.207   5.063 -0.4529  1.2607 -0.1029
   51MOL   C24023340   0.978   2.146   4.942  0.2182 -0.0401 -0.0258
   51MOL   C24123341   0.864   2.062   4.927 -0.2691  0.0229  0.4380
   51MOL   C24223342   0.826   1.998   4.799  0.6658 -0.2808  0.1942
   51MOL   O24323343   0.724   1.932   4.783 -0.0290  0.3822  0.1224
   51MOL   O24423344   0.930   2.007   4.713  0.1776  0.5555 -0.3835
   51MOL   C24523345   0.779   2.055   5.042 -0.7441  0.6036 -0.6294
   51MOL   C24623346   0.810   2.117   5.171 -0.4168 -0.1067 -0.0192
   51MOL   H24723347   1.296   2.278   5.418 -0.8878  0.5630 -0.9769
   51MOL   H24823348   1.181   2.196   5.529  0.6423  0.1763  0.1835
   51MOL   H24923349   1.165   2.491   5.410  0.9593 -0.3029  0.1158
   51MOL   H25023350   1.035   2.424   5.481  0.2746  0.4767  0.0532
   51MOL   H25123351   1.088   2.277   5.076 -0.4810  1.2766 -0.0087
   51MOL   H25223352   1.042   2.165   4.857 -0.3068 -1.5577 -0.7958
   51MOL   H25323353   0.682   2.006   5.041 -0.8922  0.8589  0.2661
   51MOL   H25423354   0.758   2.097   5.264 -1.7086  0.0159 -0.7098
   51MOL   O25523355   0.917   1.929   4.585 -0.5455  0.0169 -0.1763
   51MOL   C25623356   0.864   2.010   4.484  0.1036 -0.2560 -0.3199
   51MOL   C25723357   0.939   2.143   4.454  0.3185  0.4194 -0.0770
   51MOL   O25823358   0.903   2.243   4.554 -0.0911  0.9016  0.3073
   51MOL   C25923359   0.794   2.318   4.544  0.8130 -0.0660  0.0669
   51MOL   O26023360   0.704   2.317   4.461  0.4288  0.0126 -0.4085
   51MOL   C26123361   0.779   2.402   4.666  0.2238 -0.0542  0.4515
   51MOL   C26223362   0.668   2.489   4.680  0.8763  0.0610  0.3918
   51MOL   C26323363   0.649   2.575   4.790  0.4183  0.0072 -0.1118
   51MOL   C26423364   0.745   2.584   4.889  0.1223  0.3573 -0.4133
   51MOL   C26523365   0.741   2.701   4.988  0.5589 -0.1927 -0.8635
   51MOL   O26623366   0.839   2.727   5.063 -0.4633  0.1825 -0.0151
   51MOL   O26723367   0.615   2.759   5.005 -0.0421  0.1158 -0.3660
   51MOL   C26823368   0.866   2.510   4.877 -0.0123 -0.8452 -0.0315
   51MOL   C26923369   0.879   2.417   4.771 -0.1727 -0.3135  0.4362
   51MOL   H27023370   0.834   1.945   4.401  0.1785 -1.1212  0.3157
   51MOL   H27123371   0.763   2.032   4.519  0.2563 -1.0431  0.6309
   51MOL   H27223372   0.902   2.188   4.362  2.2241 -0.1294 -1.1509
   51MOL   H27323373   1.046   2.124   4.450 -0.1176 -2.0555 -0.9918
   51MOL   H27423374   0.594   2.494   4.601  1.1849  2.0583  0.1993
   51MOL   H27523375   0.561   2.637   4.790 -0.1636 -0.7934  1.6776
   51MOL   H27623376   0.954   2.528   4.937  0.5084  2.1885 -1.6186
   51MOL   H27723377   0.973   2.370   4.748  0.0700  1.0064 -1.4326
   51MOL   O27823378   0.626   2.905   5.036  0.6880  0.5202 -0.4518
   51MOL   C27923379   0.581   2.922   5.171 -0.1376  0.4736 -0.0520
   51MOL   C28023380   0.550   3.070   5.171 -0.1957 -0.1278 -0.4886
   51MOL   O28123381   0.501   3.105   5.299 -0.8162  0.3208 -0.2297
   51MOL   C28223382   0.366   3.102   5.319  0.2060 -0.3441  0.3428
   51MOL   O28323383   0.285   3.082   5.223 -0.4927 -0.0027  0.5691
   51MOL   C28423384   0.327   3.130   5.459 -0.2589  0.3756 -0.3690
   51MOL   C28523385   0.195   3.159   5.488 -0.1326 -0.1473  0.3797
   51MOL   C28623386   0.160   3.175   5.621 -0.4610  0.3338 -0.2815
   51MOL   C28723387   0.247   3.148   5.732 -0.2503  0.0153 -0.2196
   51MOL   C28823388   0.200   3.145   5.875 -0.6668  0.0033  0.1259
   51MOL   O28923389   0.276   3.148   5.971 -0.0025 -0.0400  0.4116
   51MOL   O29023390   0.063   3.157   5.888  0.4806  0.2995  0.5434
   51MOL   C29123391   0.384   3.123   5.705  0.1124  1.0474  0.1177
   51MOL   C29223392   0.426   3.121   5.565  0.3103 -0.0068  0.1765
   51MOL   H29323393   0.494   2.861   5.195  0.5564  0.6381  3.0494
   51MOL   H29423394   0.658   2.899   5.245  0.7208  2.9843 -0.0994
   51MOL   H29523395   0.476   3.107   5.100  1.3424  3.5294 -0.2916
   51MOL   H29623396   0.642   3.125   5.154  0.3478 -1.4961 -2.1568
   51MOL   H29723397   0.117   3.179   5.416 -0.9010  0.5063  1.3754
   51MOL   H29823398   0.060   3.205   5.648  0.2302  0.8810  1.7513
   51MOL   H29923399   0.456   3.106   5.783 -0.3576  0.9680  0.5310
   51MOL   H30023400   0.529   3.094   5.545 -0.0392 -0.2068 -1.4342
   51MOL   O30123401   0.019   3.173   6.028  0.6908 -0.5413 -0.1787
   51MOL   C30223402   8.243   3.055   6.077  0.0163  0.0148  0.5179
   51MOL   C30323403   8.140   3.074   6.185  0.0490 -0.3422  0.0332
   51MOL   O30423404   8.014   3.127   6.128 -0.3936  0.0181 -0.4432
   51MOL   C30523405   7.998   3.258   6.114  0.1326 -0.7355 -0.3655
   51MOL   O30623406   8.071   3.353   6.150  0.2045  0.3200  0.0164
   51MOL   C30723407   7.871   3.276   6.048  0.8769  0.4233  0.8117
   51MOL   C30823408   7.857   3.376   5.954  0.4539 -0.1992  0.2583
   51MOL   C30923409   7.733   3.403   5.892  0.8094  0.3527  0.3671
   51MOL   C31023410   7.622   3.317   5.918  0.2597 -0.2737 -0.8793
   51MOL   C31123411   7.495   3.325   5.838 -0.5553 -0.0160  0.2521
   51MOL   O31223412   7.388   3.281   5.871  0.2502  0.3456  0.0532
   51MOL   O31323413   7.513   3.386   5.724  0.2716  0.1491 -0.2677
   51MOL   C31423414   7.633   3.216   6.015 -0.2200 -0.8527 -0.4156
   51MOL   C31523415   7.756   3.192   6.078 -0.1942  0.3191  0.8284
   51MOL   H31623416   8.197   3.013   5.988 -3.2223  1.6723  1.3299
   51MOL   H31723417   0.055   2.995   6.104  1.3078  1.8639  0.6064
   51MOL   H31823418   8.171   3.126   6.276 -0.0182  2.2883 -1.3948
   51MOL   H31923419   8.115   2.971   6.212  0.2950 -0.2610  0.5606
   51MOL   H32023420   7.937   3.446   5.933  0.7060 -0.1228  1.4422
   51MOL   H32123421   7.719   3.492   5.833 -0.5375  0.6795  1.1666
   51MOL   H32223422   7.544   3.159   6.040  0.4455 -2.4283 -1.5166
   51MOL   H32323423   7.763   3.118   6.156  2.9051  0.0988  0.4141
   51MOL   O32423424   7.417   3.344   5.614  0.7095  0.3050  0.4291
   51MOL   C32523425   7.310   3.430   5.588 -0.3113  1.3212  0.7589
   51MOL   C32623426   7.346   3.565   5.534 -0.1702 -0.7776  0.2071
   51MOL   O32723427   7.395   3.555   5.404  0.5712 -0.0437  0.1756
   51MOL   C32823428   7.470   3.651   5.346 -0.4232 -0.5184  0.8794
   51MOL   O32923429   7.483   3.766   5.384 -0.1762 -0.5668  0.7941
   51MOL   C33023430   7.545   3.609   5.223 -0.1740  0.7664  0.7388
   51MOL   C33123431   7.624   3.698   5.146 -0.4419  0.5586 -0.3313
   51MOL   C33223432   7.720   3.647   5.055  0.0912  0.9867  0.2745
   51MOL   C33323433   7.730   3.507   5.029  0.4548 -0.2653 -0.2768
   51MOL   C33423434   7.817   3.456   4.924  0.2795  0.8215  0.2801
   51MOL   O33523435   7.891   3.532   4.858  0.2830  0.0743 -0.5821
   51MOL   O33623436   7.810   3.327   4.893  0.2399 -0.0698  0.4702
   51MOL   C33723437   7.639   3.423   5.100 -0.3735  0.1132 -0.7558
   51MOL   C33823438   7.560   3.475   5.202 -1.0631  0.5862  0.8879
   51MOL   H33923439   7.232   3.378   5.532  1.4000 -0.8963  0.3835
   51MOL   H34023440   7.273   3.440   5.690 -0.3822  1.9563  0.6713
   51MOL   H34123441   7.419   3.606   5.604  0.3962 -0.8556 -0.3240
   51MOL   H34223442   7.266   3.639   5.525  0.3672 -0.3146 -0.9475
   51MOL   H34323443   7.618   3.805   5.156  1.9459  0.6283  0.8062
   51MOL   H34423444   7.779   3.715   4.995  0.6713  0.7460  0.5661
   51MOL   H34523445   7.642   3.316   5.086  0.6328 -0.2886  2.1806
   51MOL   H34623446   7.510   3.404   5.266  1.0885 -1.3659  0.4619
   51MOL   O34723447   7.884   3.289   4.765 -0.3334 -0.1618  0.2578
   51MOL   C34823448   8.005   3.229   4.796 -0.0587 -0.3977  0.4211
   51MOL   C34923449   8.119   3.271   4.697 -0.6055 -1.4662  0.0595
   51MOL   O35023450   8.081   3.224   4.565 -0.0098 -0.1352 -0.7657
   51MOL   C35123451   8.143   3.124   4.508  0.0880 -0.0444 -0.2159
   51MOL   O35223452   8.247   3.087   4.546  0.1435 -0.1074  0.6375
   51MOL   C35323453   8.066   3.071   4.391 -0.3812 -0.3810  0.2894
   51MOL   C35423454   8.131   2.987   4.298 -0.2630 -0.3600  0.3544
   51MOL   C35523455   8.074   2.954   4.174 -0.0732  0.2815  0.1617
   51MOL   C35623456   7.943   3.003   4.136 -0.1611 -0.5171  0.0592
   51MOL   C35723457   7.879   2.973   4.004  1.1594  0.5193  0.3788
   51MOL   O35823458   7.778   3.035   3.954  0.4712 -0.0748  0.5709
   51MOL   O35923459   7.945   2.863   3.945  0.6963 -0.5633  0.3028
   51MOL   C36023460   7.882   3.094   4.232  0.1402  0.9670  0.4138
   51MOL   C36123461   7.936   3.119   4.355 -0.2414  0.8655 -0.2699
   51MOL   H36223462   8.041   3.261   4.894  1.0967  0.4860 -0.2785
   51MOL   H36323463   7.999   3.121   4.795  0.7519 -0.4449 -1.2677
   51MOL   H36423464   8.213   3.230   4.733 -0.1727  0.3016  1.0054
   51MOL   H36523465   8.140   3.378   4.694 -1.4083 -1.2556  1.4300
   51MOL   H36623466   8.233   2.958   4.318 -0.8530 -1.7152  1.4639
   51MOL   H36723467   8.137   2.895   4.109 -0.4345 -0.1681  0.2172
   51MOL   H36823468   7.783   3.126   4.206 -0.1049 -0.6317 -0.7230
   51MOL   H36923469   7.884   3.182   4.426 -1.7176  0.2870 -0.8221
   51MOL   O37023470   7.873   2.819   3.822 -0.7809  0.0717 -0.5080
   51MOL   C37123471   7.835   2.687   3.831  0.6961  0.3062 -0.0201
   51MOL   C37223472   7.962   2.602   3.847 -0.4293  0.0608 -0.0259
   51MOL   O37323473   7.924   2.470   3.838  0.3438 -0.5803 -0.2074
   51MOL   C37423474   8.022   2.379   3.852 -0.1524 -0.3671 -0.2059
   51MOL   O37523475   8.133   2.408   3.887 -0.0423  0.6472 -0.2307
   51MOL   C37623476   7.981   2.240   3.828  0.6389  0.0661  0.3840
   51MOL   C37723477   7.851   2.212   3.867 -0.4324 -0.1423 -0.5638
   51MOL   C37823478   7.802   2.083   3.859 -0.0125  0.1447 -0.0368
   51MOL   C37923479   7.891   1.979   3.828  0.2775  0.1137  0.1646
   51MOL   C38023480   7.842   1.837   3.835 -0.1045  0.8330  0.3783
   51MOL   O38123481   7.742   1.797   3.897 -0.0765  0.2018  0.2228
   51MOL   O38223482   7.920   1.764   3.749  0.0532  0.1351 -0.1527
   51MOL   C38323483   8.022   2.006   3.793 -0.8731 -0.3534 -0.2246
   51MOL   C38423484   8.075   2.139   3.795  0.4343 -0.0981  0.6481
   51MOL   H38523485   7.785   2.676   3.928 -1.0210 -0.8015 -1.0010
   51MOL   H38623486   7.776   2.655   3.745 -0.4770 -1.7058  1.4761
   51MOL   H38723487   8.022   2.633   3.932 -1.2273  1.8524 -0.1014
   51MOL   H38823488   8.020   2.622   3.757  1.0606 -0.7164  0.7525
   51MOL   H38923489   7.785   2.292   3.897  1.0018  0.5345  0.8294
   51MOL   H39023490   7.700   2.062   3.887  0.4126  0.3585  1.7464
   51MOL   H39123491   8.083   1.925   3.756 -1.4183 -0.5906 -0.6187
   51MOL   H39223492   8.180   2.160   3.782  0.3996 -0.4259 -0.2129
   51MOL   O39323493   7.861   1.621   3.725 -0.8745 -0.1482  0.5906
   51MOL   C39423494   7.947   1.523   3.776  0.4556 -0.5594  0.5191
   51MOL   C39523495   7.951   1.516   3.932  0.1322  0.1404  0.4095
   51MOL   O39623496   8.086   1.524   3.979  0.5883  0.2159  0.1257
   51MOL   C39723497   8.150   1.411   3.995 -0.2222 -0.4721  0.2268
   51MOL   O39823498   8.109   1.305   3.954  0.2823  0.0913  0.7325
   51MOL   C39923499   0.013   1.427   4.056 -0.0550  0.1687  0.1852
   51MOL   C40023500   0.057   1.556   4.098  0.8113  0.1175 -0.2504
   51MOL   C40123501   0.185   1.572   4.151  0.0227  0.0722 -0.0261
   51MOL   C40223502   0.271   1.462   4.161  0.1317  0.2259 -0.3552
   51MOL   C40323503   0.408   1.478   4.224  0.5857 -0.0257  0.1007
   51MOL   O40423504   0.428   1.563   4.308  0.2954  0.4005  0.1042
   51MOL   O40523505   0.495   1.385   4.188 -0.4113 -0.4049  0.1611
   51MOL   C40623506   0.229   1.336   4.122  0.5866  0.9539 -0.6466
   51MOL   C40723507   0.100   1.320   4.068 -0.3391 -0.7716 -0.3893
   51MOL   H40823508   7.934   1.418   3.749 -0.7386 -0.4150  0.5332
   51MOL   H40923509   8.041   1.556   3.730 -0.3848 -0.0721 -0.8654
   51MOL   H41023510   7.897   1.430   3.971  2.2339 -1.0437  0.8106
   51MOL   H41123511   7.900   1.605   3.969  0.6417  0.6813 -0.1533
   51MOL   H41223512   8.273   1.646   4.088 -0.3169 -0.5945 -0.0626
   51MOL   H41323513   0.201   1.673   4.185 -1.9080  1.0351 -1.8691
   51MOL   H41423514   0.294   1.251   4.135 -3.3198 -2.1541 -0.6733
   51MOL   H41523515   0.080   1.222   4.027 -0.1882 -0.7653 -0.4773
   51MOL   O41623516   0.623   1.376   4.273 -0.0196  0.2218 -0.6499
   51MOL   C41723517   0.733   1.411   4.197  0.0002  0.1997  0.0958
   51MOL   C41823518   0.764   1.285   4.108  0.5938  0.3608  0.8970
   51MOL   O41923519   0.680   1.288   3.999 -0.8262  0.2738  0.2250
   51MOL   C42023520   0.670   1.186   3.906 -0.0460 -0.4085  0.4396
   51MOL   O42123521   0.736   1.082   3.917  0.1347  0.1257 -0.3084
   51MOL   C42223522   0.572   1.218   3.796 -0.1047  0.3156 -0.7762
   51MOL   C42323523   0.477   1.322   3.818  0.1865 -0.3732  0.4579
   51MOL   C42423524   0.383   1.359   3.716 -0.0249  0.0214  0.0360
   51MOL   C42523525   0.398   1.301   3.587  0.5918 -0.3024  0.8697
   51MOL   C42623526   0.312   1.339   3.474  0.0072 -0.0332  0.4279
   51MOL   O42723527   0.337   1.295   3.365  0.5448  0.1590  0.0130
   51MOL   O42823528   0.196   1.399   3.516 -0.2412 -0.2583 -0.5085
   51MOL   C42923529   0.504   1.206   3.562  0.2455  0.0243 -0.6881
   51MOL   C43023530   0.581   1.157   3.667  1.7307 -0.3456 -0.3538
   51MOL   H43123531   0.720   1.504   4.143  0.0476  0.7600  1.0488
   51MOL   H43223532   0.825   1.416   4.254  0.2070 -3.9345  0.2733
   51MOL   H43323533   0.765   1.185   4.152 -1.6093 -1.2928 -2.5777
   51MOL   H43423534   0.868   1.302   4.078  0.5124 -0.0310  0.3882
   51MOL   H43523535   0.473   1.374   3.913 -0.1955  1.3490 -0.4711
   51MOL   H43623536   0.304   1.426   3.747  0.3090 -0.2640  1.5456
   51MOL   H43723537   0.515   1.163   3.464  1.4269 -1.1988 -0.0398
   51MOL   H43823538   0.651   1.078   3.647  1.3061 -1.1201  1.2140
   51MOL   O43923539   0.105   1.439   3.406  0.2381 -0.1140  0.9753
   51MOL   C44023540   0.097   1.579   3.418  0.0473 -0.2933  0.0815
   51MOL   C44123541   0.044   1.646   3.544 -0.7207 -0.5872 -0.4017
   51MOL   O44223542   0.141   1.687   3.635 -0.5014  0.3554  0.0845
   51MOL   C44323543   0.106   1.745   3.746  0.1836 -0.8700 -0.4193
   51MOL   O44423544   8.269   1.767   3.790 -0.1818 -0.0002  0.3750
   51MOL   C44523545   0.231   1.773   3.832  0.5383 -0.1712  0.7513
   51MOL   C44623546   0.359   1.716   3.806 -0.2724 -0.7672  0.3659
   51MOL   C44723547   0.465   1.730   3.895 -0.3317 -0.5879 -0.4261
   51MOL   C44823548   0.447   1.808   4.009 -0.0824 -0.7459  0.3102
   51MOL   C44923549   0.558   1.828   4.106 -0.1033 -0.7197 -0.1104
   51MOL   O45023550   0.665   1.763   4.092 -0.5860  0.7365 -0.4199
   51MOL   O45123551   0.534   1.904   4.217  1.0627  0.3077 -0.0139
   51MOL   C45223552   0.322   1.870   4.032  0.0163  0.2374  0.1526
   51MOL   C45323553   0.213   1.845   3.951  0.3374 -0.0142 -0.4390
   51MOL   H45423554   0.188   1.619   3.374  0.0431 -0.8296 -0.4092
   51MOL   H45523555   0.025   1.601   3.339  1.1325 -0.2134 -0.8868
   51MOL   H45623556   8.246   1.580   3.589 -1.1694  0.7211  0.7992
   51MOL   H45723557   0.001   1.742   3.516  2.9599  1.5361  0.8078
   51MOL   H45823558   0.376   1.664   3.713  0.7318 -0.3149  0.2851
   51MOL   H45923559   0.560   1.684   3.874 -0.1051 -0.7762  0.9862
   51MOL   H46023560   0.311   1.939   4.114  0.5718  1.2685 -0.6252
   51MOL   H46123561   0.114   1.876   3.982  0.5092  0.4246 -0.3193
   51MOL   H46223562   0.581   1.872   4.293 -1.6493  1.1799  2.1223
   52MOL     O123563   7.706   2.518   5.297  0.1947  0.4301  0.5047
   52MOL     C223564   7.600   2.434   5.254 -0.0295 -0.0574  0.9294
   52MOL     C323565   7.615   2.293   5.305 -0.6279 -0.0071 -0.2543
   52MOL     O423566   7.716   2.229   5.228 -0.3063  0.0380 -0.5526
   52MOL     C523567   7.774   2.115   5.272  0.1495 -0.0122  0.4078
   52MOL     O623568   7.754   2.072   5.384  0.0686  0.0667 -0.0016
   52MOL     C723569   7.840   2.034   5.171  0.8682 -0.5931  0.4140
   52MOL     C823570   7.876   1.899   5.196  0.5824  0.2981 -0.4506
   52MOL     C923571   7.918   1.819   5.090 -0.3096  0.5342 -0.1694
   52MOL    C1023572   7.920   1.861   4.956 -0.3431 -0.2395  0.0215
   52MOL    C1123573   7.946   1.766   4.849  0.6100  0.2746  0.1187
   52MOL    O1223574   7.990   1.651   4.861  0.3430 -0.1723 -0.4186
   52MOL    O1323575   7.897   1.816   4.727 -0.1600  0.4583 -0.0082
   52MOL    C1423576   7.890   2.000   4.931  0.1708  0.5544  0.0359
   52MOL    C1523577   7.852   2.083   5.038  0.6396  0.7974  0.0131
   52MOL    H1623578   7.512   2.483   5.295  0.1931  1.7409 -0.6838
   52MOL    H1723579   7.590   2.435   5.145  2.0847 -0.2600  0.7103
   52MOL    H1823580   7.518   2.250   5.280 -1.1975  1.6940 -1.0352
   52MOL    H1923581   7.622   2.274   5.413  0.7351 -2.5914 -0.7683
   52MOL    H2023582   7.850   1.852   5.290 -1.4204  1.5716 -0.3515
   52MOL    H2123583   7.940   1.720   5.126 -0.7711  0.5761  0.2305
   52MOL    H2223584   7.912   2.053   4.839 -0.7544 -1.2924 -1.2955
   52MOL    H2323585   7.837   2.187   5.015  1.6587  0.8250 -0.5062
   52MOL    H2423586   7.791   2.477   5.290  1.4441  2.7461  1.3665
   52MOL    O2523587   7.860   1.703   4.629 -0.3460 -0.3951  0.0843
   52MOL    C2623588   7.720   1.681   4.645 -0.9956 -0.9614 -0.6551
   52MOL    C2723589   7.639   1.798   4.581  0.2901  0.2394 -0.1123
   52MOL    O2823590   7.503   1.756   4.566  0.3043 -0.1226 -0.1927
   52MOL    C2923591   7.445   1.769   4.451  0.4630  0.8132 -0.2687
   52MOL    O3023592   7.491   1.828   4.354  0.6241  0.2503 -0.1437
   52MOL    C3123593   7.310   1.704   4.458  0.3729  0.0025 -0.5934
   52MOL    C3223594   7.238   1.693   4.579  0.7125 -0.3828 -0.3827
   52MOL    C3323595   7.113   1.628   4.588  0.4814 -0.2118 -0.0671
   52MOL    C3423596   7.044   1.589   4.472 -0.3799  0.1703  0.7393
   52MOL    C3523597   6.897   1.555   4.473 -0.2603 -0.5900  0.0943
   52MOL    O3623598   6.825   1.553   4.574 -0.2794  0.2761  1.1426
   52MOL    O3723599   6.856   1.527   4.340  0.5128 -0.4384  0.3365
   52MOL    C3823600   7.110   1.617   4.350  0.2010  0.1216 -0.0817
   52MOL    C3923601   7.247   1.661   4.338  0.4317 -0.0590  0.1933
   52MOL    H4023602   7.707   1.595   4.579 -0.8245  0.8174 -3.0508
   52MOL    H4123603   7.694   1.645   4.745 -0.1073 -1.1265 -0.4755
   52MOL    H4223604   7.677   1.830   4.484 -0.4664  0.9994 -0.1756
   52MOL    H4323605   7.642   1.888   4.642 -1.7763  0.7067 -0.6328
   52MOL    H4423606   7.278   1.738   4.668  1.5373 -1.3454 -0.2529
   52MOL    H4523607   7.067   1.624   4.686  2.4723 -2.1777  0.8197
   52MOL    H4623608   7.065   1.588   4.256 -2.7296 -1.5567  1.8025
   52MOL    H4723609   7.288   1.693   4.243  2.1535  0.4119  1.0653
   52MOL    O4823610   6.711   1.525   4.323 -0.2666  0.6444 -0.3333
   52MOL    C4923611   6.660   1.387   4.338 -0.0900 -0.5196  0.0070
   52MOL    C5023612   6.513   1.398   4.281  0.1772  0.4376  0.0529
   52MOL    O5123613   6.436   1.276   4.291 -0.4299 -0.1671 -0.1713
   52MOL    C5223614   6.409   1.198   4.189 -0.5387  0.0482 -0.0925
   52MOL    O5323615   6.469   1.201   4.082  0.4840 -0.5709  0.3878
   52MOL    C5423616   6.297   1.100   4.221  0.2463 -0.5201 -0.0648
   52MOL    C5523617   6.249   1.010   4.123  0.6268  0.2753 -0.3688
   52MOL    C5623618   6.154   0.908   4.154  0.2882 -0.0889 -0.2894
   52MOL    C5723619   6.080   0.914   4.276  0.5140  0.9954 -0.1057
   52MOL    C5823620   5.972   0.825   4.307 -0.4659 -0.0171  0.1017
   52MOL    O5923621   5.904   0.825   4.409  0.1097 -0.5348  0.1627
   52MOL    O6023622   5.958   0.731   4.216  0.2222  0.1666  0.2936
   52MOL    C6123623   6.129   1.008   4.373  0.8254 -0.7661 -0.2989
   52MOL    C6223624   6.235   1.090   4.349 -0.6713 -0.2634  0.0076
   52MOL    H6323625   6.732   1.328   4.281  2.5769  2.5402  0.0279
   52MOL    H6423626   6.662   1.359   4.443  0.3532  0.3292  0.2298
   52MOL    H6523627   6.503   1.434   4.179 -0.7187  0.4998  0.1617
   52MOL    H6623628   6.464   1.460   4.356 -0.8590  0.3759 -0.5701
   52MOL    H6723629   6.295   1.014   4.025  2.6103 -0.1269  0.5287
   52MOL    H6823630   6.123   0.843   4.074 -2.1307 -1.0364  1.3228
   52MOL    H6923631   6.088   1.007   4.472 -1.4814 -1.0223 -1.2111
   52MOL    H7023632   6.280   1.141   4.433  1.5748 -0.4586 -1.0525
   52MOL    O7123633   5.905   0.602   4.266  0.9116 -0.2320  0.4134
   52MOL    C7223634   6.020   0.524   4.311  0.1141  0.0248 -0.6590
   52MOL    C7323635   6.099   0.488   4.182  0.2026  0.4539 -0.8295
   52MOL    O7423636   6.028   0.392   4.108  0.0137  0.2847  0.0531
   52MOL    C7523637   6.012   0.273   4.152 -1.5845  1.2618 -0.2799
   52MOL    O7623638   6.073   0.219   4.246 -0.3220 -0.5117 -0.1697
   52MOL    C7723639   5.910   0.201   4.071  0.8612 -0.1703  0.6036
   52MOL    C7823640   5.843   0.098   4.140  0.1692 -0.1474 -0.1927
   52MOL    C7923641   5.740   0.023   4.081 -0.2131  0.0971 -0.1586
   52MOL    C8023642   5.699   0.050   3.951  0.6527 -0.3201 -0.4054
   52MOL    C8123643   5.599   8.239   3.886 -0.4749 -0.0260 -0.0417
   52MOL    O8223644   5.580   8.241   3.760 -0.1952 -0.3935 -0.4970
   52MOL    O8323645   5.534   8.160   3.971  0.0289 -0.3100  0.3031
   52MOL    C8423646   5.764   0.159   3.885 -0.3849 -0.5723  0.2091
   52MOL    C8523647   5.869   0.233   3.940  0.1854 -0.2112 -0.1813
   52MOL    H8623648   6.088   0.582   4.373  0.2336 -1.4033  0.5595
   52MOL    H8723649   5.991   0.433   4.364  0.8227 -0.4157 -1.0201
   52MOL    H8823650   6.195   0.453   4.220  1.2779  2.8194 -1.3039
   52MOL    H8923651   6.116   0.573   4.117 -1.0237 -0.1346 -1.9420
   52MOL    H9023652   5.876   0.076   4.241 -1.1177  1.2887  0.5672
   52MOL    H9123653   5.695   8.225   4.146 -0.2397  0.8919  0.7281
   52MOL    H9223654   5.728   0.183   3.786 -0.5774 -1.2684  0.1096
   52MOL    H9323655   5.913   0.318   3.890 -1.7331  0.3114 -1.0043
   52MOL    O9423656   5.419   8.086   3.904 -0.2521  0.1782 -0.3725
   52MOL    C9523657   5.309   8.142   3.967  0.5486  0.3300 -0.2611
   52MOL    C9623658   5.267   0.006   3.916  0.2815 -0.2232 -0.5828
   52MOL    O9723659   5.249   0.098   4.028  0.2925  0.0481  0.0392
   52MOL    C9823660   5.134   0.098   4.090 -0.4337 -0.0353  1.0721
   52MOL    O9923661   5.048   0.009   4.072  0.0442  0.0729  0.4179
   52MOL   C10023662   5.113   0.221   4.183  0.1418  1.0468 -0.1638
   52MOL   C10123663   5.203   0.331   4.182  0.5808  0.4282 -0.0865
   52MOL   C10223664   5.189   0.436   4.274 -0.9286  0.9400 -0.2911
   52MOL   C10323665   5.075   0.450   4.353 -0.2772  0.5111  0.1580
   52MOL   C10423666   5.046   0.575   4.431 -0.4788 -0.0105  0.4953
   52MOL   O10523667   4.945   0.597   4.496  0.0226 -0.3692  0.0984
   52MOL   O10623668   5.146   0.657   4.422  0.2508 -0.0626 -0.3459
   52MOL   C10723669   4.980   0.350   4.339  0.3829  0.0896  0.1170
   52MOL   C10823670   5.000   0.234   4.265 -0.5317  0.4214 -0.3317
   52MOL   H10923671   5.229   8.074   3.939 -1.1662  1.9793  0.5340
   52MOL   H11023672   5.320   8.118   4.073  0.0194  0.9010 -0.0741
   52MOL   H11123673   5.177   8.270   3.855  0.2944 -1.2353 -0.4088
   52MOL   H11223674   5.357   0.025   3.856 -0.2938 -0.4683 -1.5273
   52MOL   H11323675   5.290   0.327   4.118 -0.7708  0.3218 -1.9581
   52MOL   H11423676   5.259   0.518   4.275 -1.3944  1.3378  0.2040
   52MOL   H11523677   4.893   0.349   4.403  0.2724 -1.7793 -0.0465
   52MOL   H11623678   4.925   0.156   4.264 -0.7110  0.5963 -1.8631
   52MOL   O11723679   5.105   0.800   4.464 -0.0949 -0.8183 -0.0140
   52MOL   C11823680   5.182   0.833   4.573 -0.1839  0.3948  0.4758
   52MOL   C11923681   5.144   0.966   4.638  0.3729 -0.2459 -0.6036
   52MOL   O12023682   5.239   1.063   4.607 -0.4148  0.4267 -0.6147
   52MOL   C12123683   5.215   1.194   4.633  0.1413  0.2931 -0.1886
   52MOL   O12223684   5.109   1.226   4.682  0.5331 -0.3739  0.2591
   52MOL   C12323685   5.328   1.286   4.613  0.5264 -0.6564  0.8292
   52MOL   C12423686   5.448   1.244   4.555 -0.9806 -0.2228  0.0828
   52MOL   C12523687   5.559   1.330   4.543 -0.3843 -0.4407  0.8432
   52MOL   C12623688   5.559   1.461   4.590  0.0637  0.1459 -0.5555
   52MOL   C12723689   5.673   1.559   4.595 -1.0034 -0.2694  0.3392
   52MOL   O12823690   5.671   1.672   4.643 -0.0361 -0.1825  0.3690
   52MOL   O12923691   5.782   1.511   4.526 -0.2939  0.2804 -0.2076
   52MOL   C13023692   5.435   1.501   4.647 -0.4094 -0.5517  0.3251
   52MOL   C13123693   5.329   1.414   4.665  0.5495  0.4482 -0.0303
   52MOL   H13223694   5.183   0.750   4.644  1.2584 -1.3446 -1.5248
   52MOL   H13323695   5.285   0.840   4.538 -0.3644 -0.5504 -0.2588
   52MOL   H13423696   5.131   0.952   4.746  1.3936 -0.4585 -0.5004
   52MOL   H13523697   5.045   1.008   4.621  1.5939  2.7480 -0.4822
   52MOL   H13623698   5.467   1.140   4.532  1.5576 -0.7828  4.1477
   52MOL   H13723699   5.652   1.292   4.502 -1.0563 -0.1412 -0.9997
   52MOL   H13823700   5.424   1.601   4.686 -3.1480 -0.6770 -0.0361
   52MOL   H13923701   5.237   1.454   4.706  0.8015 -1.8032  2.8614
   52MOL   O14023702   5.904   1.615   4.532  0.3577 -0.7550  0.6854
   52MOL   C14123703   5.923   1.656   4.398 -0.0712 -0.4682  0.3132
   52MOL   C14223704   6.031   1.765   4.380 -0.3301  0.2827 -0.2785
   52MOL   O14323705   5.970   1.892   4.417 -0.1144  0.2091  0.4116
   52MOL   C14423706   6.034   2.008   4.411 -0.0033  0.3432  0.4869
   52MOL   O14523707   6.142   2.013   4.359 -0.3161 -0.3064 -0.1412
   52MOL   C14623708   5.956   2.122   4.464 -0.1026 -0.5019  0.3928
   52MOL   C14723709   6.006   2.252   4.476  0.4864 -0.1239  0.0880
   52MOL   C14823710   5.928   2.362   4.525  0.0082  0.2000  0.3392
   52MOL   C14923711   5.790   2.339   4.562 -0.1938 -0.1935 -0.2050
   52MOL   C15023712   5.698   2.451   4.580  0.3028  0.2553  0.1638
   52MOL   O15123713   5.576   2.435   4.604 -0.3287 -0.1206 -0.1004
   52MOL   O15223714   5.765   2.563   4.548 -0.1479  0.0083  0.0421
   52MOL   C15323715   5.743   2.206   4.554 -0.4630  0.6313 -0.4968
   52MOL   C15423716   5.820   2.103   4.497 -0.4169 -0.1842  0.3766
   52MOL   H15523717   5.952   1.572   4.336  2.8850  0.0170  0.9309
   52MOL   H15623718   5.828   1.707   4.383 -0.8714 -1.9254  0.3716
   52MOL   H15723719   6.048   1.764   4.272  0.8680 -1.2363 -0.0748
   52MOL   H15823720   6.124   1.739   4.430 -0.5963  0.2769  0.2079
   52MOL   H15923721   6.114   2.256   4.468  0.5268  2.8155  1.3834
   52MOL   H16023722   5.978   2.458   4.526  0.3760  0.0059  0.4924
   52MOL   H16123723   5.639   2.189   4.576 -0.4757  1.3632  0.0413
   52MOL   H16223724   5.770   2.008   4.487 -1.7241  0.5657 -0.3320
   52MOL   O16323725   5.673   2.688   4.531  0.1219 -0.0935 -0.3601
   52MOL   C16423726   5.692   2.772   4.643 -0.2015  0.2412 -0.0894
   52MOL   C16523727   5.621   2.736   4.770  0.4313 -0.1047 -0.4039
   52MOL   O16623728   5.477   2.754   4.772 -0.0078 -0.7031 -0.2925
   52MOL   C16723729   5.424   2.878   4.764 -0.2922 -0.0070 -0.9664
   52MOL   O16823730   5.484   2.982   4.736 -0.4490 -0.5689  0.0989
   52MOL   C16923731   5.280   2.869   4.814  0.0950  0.5816  0.2113
   52MOL   C17023732   5.218   2.743   4.804  0.4812  0.0403 -0.1425
   52MOL   C17123733   5.077   2.730   4.836 -0.1114 -0.0214  0.2860
   52MOL   C17223734   5.005   2.844   4.889 -0.0471 -0.0447 -0.2393
   52MOL   C17323735   4.863   2.838   4.924 -0.0026 -0.0030  0.0071
   52MOL   O17423736   4.805   2.913   5.002 -0.0424 -0.7924 -0.0941
   52MOL   O17523737   4.796   2.741   4.856  0.2169  0.1148  0.2910
   52MOL   C17623738   5.072   2.967   4.899 -0.0984  0.7140 -0.8216
   52MOL   C17723739   5.207   2.980   4.861  0.4221  0.2324 -0.1625
   52MOL   H17823740   5.798   2.778   4.667 -0.4410  1.5596  0.6805
   52MOL   H17923741   5.666   2.873   4.615 -1.4478 -0.2536 -0.7506
   52MOL   H18023742   5.669   2.782   4.856  0.5892 -2.6472  0.8994
   52MOL   H18123743   5.627   2.629   4.791 -0.9994  0.3053  2.3036
   52MOL   H18223744   5.270   2.657   4.767  0.3682  0.7473 -1.9796
   52MOL   H18323745   5.023   2.636   4.837 -0.5320  0.2185  1.3123
   52MOL   H18423746   5.017   3.045   4.949  0.3020 -0.3364  1.3341
   52MOL   H18523747   5.263   3.072   4.865  0.5772  0.1473 -0.3939
   52MOL   O18623748   4.652   2.719   4.909 -0.6984 -0.2052  0.5199
   52MOL   C18723749   4.566   2.816   4.854 -0.1417 -0.2261 -0.0809
   52MOL   C18823750   4.593   2.841   4.701  0.0436  0.3498 -0.2842
   52MOL   O18923751   4.568   2.720   4.638 -0.2236  0.2220 -0.5633
   52MOL   C19023752   4.445   2.683   4.591  0.3945  0.7177 -0.7116
   52MOL   O19123753   4.340   2.741   4.611  0.7793  0.5825  0.0647
   52MOL   C19223754   4.454   2.563   4.509 -0.7186 -0.3130  0.1693
   52MOL   C19323755   4.580   2.502   4.483 -0.1042  0.2135 -0.7790
   52MOL   C19423756   4.588   2.373   4.427  0.2065 -0.6744  0.0767
   52MOL   C19523757   4.465   2.310   4.380 -0.6871  0.3127 -0.7248
   52MOL   C19623758   4.478   2.178   4.317 -0.1064  0.1107 -0.7648
   52MOL   O19723759   4.587   2.136   4.276  0.0210  0.1840 -0.1413
   52MOL   O19823760   4.361   2.120   4.290 -0.7248 -0.0013  0.4629
   52MOL   C19923761   4.343   2.383   4.392 -0.1467 -0.5595 -0.1719
   52MOL   C20023762   4.340   2.508   4.450  0.0314 -0.9686  0.0475
   52MOL   H20123763   4.458   2.802   4.869  0.1176 -0.7041  1.4101
   52MOL   H20223764   4.586   2.912   4.902 -1.4852 -0.5103  1.0561
   52MOL   H20323765   4.692   2.882   4.677  0.2685  1.0246  1.6857
   52MOL   H20423766   4.527   2.921   4.667 -2.3831 -1.5191 -0.0248
   52MOL   H20523767   4.670   2.545   4.524  0.5724 -0.1789 -1.8469
   52MOL   H20623768   4.685   2.328   4.419  1.1414  1.2007  0.6095
   52MOL   H20723769   4.249   2.335   4.370 -0.6846 -0.5698  1.9496
   52MOL   H20823770   4.243   2.555   4.460  1.2820  1.2570  2.2894
   52MOL   O20923771   4.379   1.990   4.205  0.0124 -0.4151 -0.0745
   52MOL   C21023772   4.360   1.878   4.289 -0.0811  0.3689 -0.2385
   52MOL   C21123773   4.484   1.835   4.371 -0.4526  0.4552 -0.1364
   52MOL   O21223774   4.479   1.898   4.497  0.3132 -0.2494 -0.1050
   52MOL   C21323775   4.528   1.840   4.609  0.5127 -0.3536 -0.3639
   52MOL   O21423776   4.589   1.734   4.603  0.2740  0.8136 -0.1644
   52MOL   C21523777   4.496   1.912   4.735 -0.0786  0.4401  0.3680
   52MOL   C21623778   4.399   2.014   4.743 -0.4125 -0.5605 -0.6638
   52MOL   C21723779   4.377   2.075   4.867 -0.1163 -0.1008 -0.3180
   52MOL   C21823780   4.446   2.035   4.985  0.6572 -0.1394 -0.6855
   52MOL   C21923781   4.428   2.108   5.115  0.7773  0.0388  0.4690
   52MOL   O22023782   4.516   2.107   5.196 -1.0863 -0.0171  0.7193
   52MOL   O22123783   4.312   2.171   5.121 -0.2893  0.0113 -0.7882
   52MOL   C22223784   4.548   1.938   4.976  0.0312  0.0397  0.3538
   52MOL   C22323785   4.567   1.874   4.852 -0.0233 -0.4576 -0.2083
   52MOL   H22423786   4.279   1.899   4.358 -0.1874 -1.0644  0.0913
   52MOL   H22523787   4.329   1.788   4.236 -0.7974  1.1666 -1.1995
   52MOL   H22623788   4.581   1.849   4.325 -0.7726 -1.2623 -1.3954
   52MOL   H22723789   4.475   1.730   4.398 -0.0482  0.1165 -1.3386
   52MOL   H22823790   4.337   2.043   4.660  0.5871  0.4683 -1.0701
   52MOL   H22923791   4.291   2.140   4.866 -1.1626 -1.4383  0.3550
   52MOL   H23023792   4.611   1.922   5.063 -2.9179 -0.9020  2.4138
   52MOL   H23123793   4.642   1.797   4.841  1.5992  0.7879  1.6784
   52MOL   O23223794   4.304   2.233   5.256 -0.3977 -0.0851  0.2005
   52MOL   C23323795   4.332   2.376   5.248  0.1804 -0.4320  0.2730
   52MOL   C23423796   4.226   2.457   5.181  0.1454  0.1717  0.3835
   52MOL   O23523797   4.112   2.470   5.265 -0.0990  0.5580 -0.1032
   52MOL   C23623798   3.999   2.515   5.216  0.2257  0.3013  0.1250
   52MOL   O23723799   3.981   2.528   5.089  0.2088  0.0284 -0.0694
   52MOL   C23823800   3.899   2.555   5.322 -0.3455 -0.4031 -0.8077
   52MOL   C23923801   3.932   2.573   5.461  0.1974 -0.4956 -0.1735
   52MOL   C24023802   3.839   2.626   5.551 -0.3099  0.3756 -0.2451
   52MOL   C24123803   3.708   2.668   5.509  0.5350  0.2537  0.8415
   52MOL   C24223804   3.602   2.713   5.605  0.7237  0.0477  0.4744
   52MOL   O24323805   3.482   2.740   5.568 -0.2947  0.0054 -0.2497
   52MOL   O24423806   3.647   2.708   5.736 -0.8391 -0.3273  0.6197
   52MOL   C24523807   3.678   2.644   5.372 -0.5001 -0.3542 -0.4584
   52MOL   C24623808   3.770   2.592   5.281 -0.1218 -0.8972 -0.3225
   52MOL   H24723809   4.351   2.410   5.350  0.1287  1.1110 -0.2186
   52MOL   H24823810   4.427   2.383   5.196 -0.3609  0.3955 -0.6112
   52MOL   H24923811   4.210   2.414   5.082  0.5555  0.4359  0.1996
   52MOL   H25023812   4.260   2.558   5.156 -3.0054  1.0480 -0.5689
   52MOL   H25123813   4.029   2.546   5.499 -0.3780  1.7172  3.0938
   52MOL   H25223814   3.874   2.645   5.651 -0.3872  4.2817 -0.8948
   52MOL   H25323815   3.583   2.657   5.322 -0.3643 -1.3333 -0.9840
   52MOL   H25423816   3.739   2.584   5.178  0.3162  0.3129 -0.5641
   52MOL   O25523817   3.555   2.768   5.834 -0.7354  0.1605 -0.2232
   52MOL   C25623818   3.618   2.860   5.919  0.3408 -0.1251  0.9465
   52MOL   C25723819   3.699   2.774   6.014  0.0133  0.1703 -0.2314
   52MOL   O25823820   3.778   2.856   6.096  0.8493 -0.5495 -0.5317
   52MOL   C25923821   3.898   2.905   6.056 -0.1539  0.1395 -0.0105
   52MOL   O26023822   3.958   2.884   5.949  0.1190  0.5206  0.2810
   52MOL   C26123823   3.968   2.983   6.165  0.0780 -0.3313 -0.0317
   52MOL   C26223824   3.916   2.990   6.292  0.2964  0.6357  0.0893
   52MOL   C26323825   3.975   3.060   6.396 -0.4388 -0.1686 -0.9161
   52MOL   C26423826   4.096   3.131   6.374 -0.6403  0.4193  0.7653
   52MOL   C26523827   4.162   3.209   6.484  0.5008  0.1498 -0.0933
   52MOL   O26623828   4.133   3.198   6.601  0.1660  0.1233 -0.0178
   52MOL   O26723829   4.260   3.289   6.441  0.3924 -0.4864  0.2276
   52MOL   C26823830   4.161   3.117   6.249  0.5168 -1.0677  0.4925
   52MOL   C26923831   4.095   3.039   6.148 -0.1868 -0.4309  0.0447
   52MOL   H27023832   3.686   2.916   5.856  2.1545 -1.7084  1.4353
   52MOL   H27123833   3.536   2.918   5.960 -1.4634 -2.2734  0.5064
   52MOL   H27223834   3.760   2.697   5.967 -0.9318 -0.4557 -0.4381
   52MOL   H27323835   3.631   2.721   6.080  1.2613 -0.9260  0.1917
   52MOL   H27423836   3.819   2.947   6.314  0.0405  0.5431 -1.2102
   52MOL   H27523837   3.930   3.073   6.493  0.0580 -0.7137 -0.6031
   52MOL   H27623838   4.256   3.154   6.214 -1.3658  0.3430 -3.3542
   52MOL   H27723839   4.151   3.025   6.057  0.3451  0.6328  0.1958
   52MOL   O27823840   4.302   3.405   6.529 -0.2865  0.0565  0.2773
   52MOL   C27923841   4.439   3.416   6.514  0.3243  0.1664 -0.4126
   52MOL   C28023842   4.496   3.554   6.494  0.3464 -0.5565 -0.1988
   52MOL   O28123843   4.532   3.608   6.614  0.1310  0.9458 -0.1235
   52MOL   C28223844   4.438   3.672   6.681 -0.2866 -1.0986 -0.1233
   52MOL   O28323845   4.330   3.700   6.642  0.0137  0.1577  0.6021
   52MOL   C28423846   4.500   3.712   6.815  0.6677 -0.3381 -0.4445
   52MOL   C28523847   4.410   3.770   6.911  0.1929  0.0580 -0.0661
   52MOL   C28623848   4.454   3.806   7.037  0.1478 -0.0258 -0.5660
   52MOL   C28723849   4.584   3.797   7.070  1.0949  0.4833  0.6589
   52MOL   C28823850   4.629   3.857   7.203  0.6621  0.0212 -0.2646
   52MOL   O28923851   4.753   3.872   7.233 -0.6082  0.1348 -0.0252
   52MOL   O29023852   4.527   3.894   7.282 -0.6865 -0.0356  0.3320
   52MOL   C29123853   4.676   3.733   6.987  0.0702 -0.9399 -0.0462
   52MOL   C29223854   4.636   3.686   6.855  0.3255 -0.0181 -0.0335
   52MOL   H29323855   4.496   3.386   6.602  1.5813 -0.0325 -1.2719
   52MOL   H29423856   4.478   3.345   6.440  2.3409  2.5025 -1.6456
   52MOL   H29523857   4.434   3.627   6.443 -0.9532 -1.2639  0.3597
   52MOL   H29623858   4.589   3.548   6.436  0.0242 -2.2027 -0.5664
   52MOL   H29723859   4.303   3.778   6.897 -0.1398 -1.0803  1.6229
   52MOL   H29823860   4.380   3.850   7.102 -0.0043 -0.8010 -0.2042
   52MOL   H29923861   4.778   3.713   7.017  1.0223  1.7170 -1.3958
   52MOL   H30023862   4.712   3.655   6.785 -0.1171  0.4550 -0.7325
   52MOL   O30123863   4.569   3.953   7.412  0.1908  0.9127  0.1408
   52MOL   C30223864   4.535   3.849   7.507  0.0905  0.4333  0.0103
   52MOL   C30323865   4.542   3.900   7.654  0.2108  0.6794 -0.3013
   52MOL   O30423866   4.415   3.931   7.705  0.2609 -0.5582 -0.0897
   52MOL   C30523867   4.323   3.847   7.743  0.5851  0.2992 -0.5682
   52MOL   O30623868   4.339   3.728   7.737  0.4527 -0.0399  0.4009
   52MOL   C30723869   4.199   3.905   7.804 -0.5726 -0.4009  0.0230
   52MOL   C30823870   4.164   4.033   7.756  0.0938 -0.3200 -0.0612
   52MOL   C30923871   4.038   4.094   7.790 -0.0900  0.3329 -0.8299
   52MOL   C31023872   3.962   4.033   7.887  0.4678 -0.3834 -1.0224
   52MOL   C31123873   3.847   4.107   7.951 -1.0118  0.1421  0.6419
   52MOL   O31223874   3.778   4.063   8.037  0.2432 -0.2663 -0.8428
   52MOL   O31323875   3.829   4.230   7.891 -0.3443 -0.2641  0.2894
   52MOL   C31423876   3.998   3.907   7.942 -0.1872  0.0294 -0.1839
   52MOL   C31523877   4.108   3.840   7.891 -0.0266  0.5589  0.3749
   52MOL   H31623878   4.438   3.804   7.485  0.3833 -0.7119  1.0227
   52MOL   H31723879   4.608   3.769   7.497 -0.0428  0.4106 -0.8720
   52MOL   H31823880   4.600   3.993   7.653 -1.4721  1.7455 -0.3138
   52MOL   H31923881   4.591   3.839   7.729  0.8767  1.8337  0.2254
   52MOL   H32023882   4.222   4.080   7.678 -0.0167 -1.7255 -1.0016
   52MOL   H32123883   4.012   4.192   7.754 -2.0401  1.2232  2.7645
   52MOL   H32223884   3.938   3.853   8.014  2.4628 -0.8102  1.4825
   52MOL   H32323885   4.117   3.740   7.931 -2.5429 -0.0531 -0.5066
   52MOL   O32423886   3.706   4.309   7.931 -0.1200  0.4144 -0.2700
   52MOL   C32523887   3.625   4.330   7.819  0.2651  0.1160 -0.4073
   52MOL   C32623888   3.584   4.205   7.740  0.0776  0.3252  0.3516
   52MOL   O32723889   3.690   4.157   7.660 -0.0245 -0.0097 -0.3080
   52MOL   C32823890   3.709   4.199   7.535  0.1653  0.3758  0.2990
   52MOL   O32923891   3.660   4.295   7.484  0.0549 -0.5158 -0.3506
   52MOL   C33023892   3.802   4.113   7.460 -0.2244  0.2995 -0.0895
   52MOL   C33123893   3.857   3.995   7.522  0.5037  0.2194  0.1807
   52MOL   C33223894   3.943   3.913   7.448  0.0563  0.3811  0.1279
   52MOL   C33323895   3.980   3.944   7.315 -0.3398  0.8017  0.0067
   52MOL   C33423896   4.085   3.861   7.247 -0.5775  0.2887 -0.3584
   52MOL   O33523897   4.087   3.848   7.128  1.1219  0.9090 -0.1709
   52MOL   O33623898   4.169   3.801   7.337 -0.1742 -0.3190  0.3550
   52MOL   C33723899   3.924   4.060   7.259 -0.2779  0.5935  0.1811
   52MOL   C33823900   3.833   4.139   7.332  0.2260 -1.0541 -0.0838
   52MOL   H33923901   3.538   4.390   7.844 -0.1789 -0.6346 -0.1364
   52MOL   H34023902   3.674   4.395   7.747  0.7543  0.2169  0.0094
   52MOL   H34123903   3.498   4.236   7.681  1.4903  1.6711 -1.0370
   52MOL   H34223904   3.548   4.127   7.807 -0.8810  0.2969 -0.2009
   52MOL   H34323905   3.834   3.967   7.623  2.1525 -0.5440  0.3714
   52MOL   H34423906   3.982   3.826   7.498 -0.0674 -0.1956 -0.7554
   52MOL   H34523907   3.943   4.090   7.157 -0.0835  3.1512  0.9472
   52MOL   H34623908   3.784   4.224   7.287 -0.7092 -1.4559  0.1783
   52MOL   O34723909   4.274   3.709   7.280 -0.5663  0.1095  0.3198
   52MOL   C34823910   4.266   3.584   7.349  0.0118  0.1340 -0.4158
   52MOL   C34923911   4.405   3.517   7.329 -0.0768 -0.1911  0.1907
   52MOL   O35023912   4.438   3.472   7.201  0.6293 -0.7284  0.2538
   52MOL   C35123913   4.393   3.351   7.160 -0.2881 -0.1040  0.2289
   52MOL   O35223914   4.317   3.282   7.227 -0.4139 -0.3875  0.4658
   52MOL   C35323915   4.464   3.306   7.040  0.0602 -0.0218  0.5172
   52MOL   C35423916   4.589   3.358   7.008 -0.4759  1.1187  0.0102
   52MOL   C35523917   4.656   3.310   6.889 -0.0724 -0.2877 -0.5964
   52MOL   C35623918   4.587   3.215   6.803  0.3209 -0.5576 -0.3168
   52MOL   C35723919   4.654   3.162   6.685 -0.4080 -0.3266 -0.5836
   52MOL   O35823920   4.593   3.160   6.578  0.5666  0.1337 -0.3108
   52MOL   O35923921   4.783   3.132   6.698  0.2545 -0.2451 -0.5835
   52MOL   C36023922   4.450   3.182   6.831 -0.5055 -0.2785 -0.3915
   52MOL   C36123923   4.395   3.227   6.953  0.1914  0.1178  0.0232
   52MOL   H36223924   4.254   3.613   7.453  0.4089  0.0590 -0.3467
   52MOL   H36323925   4.180   3.518   7.337 -0.9321  1.4311 -0.8742
   52MOL   H36423926   4.417   3.430   7.394  1.3992  1.0866  1.6546
   52MOL   H36523927   4.489   3.575   7.367  1.5106 -2.0675 -0.3459
   52MOL   H36623928   4.642   3.432   7.066  2.1318 -1.2306  0.7562
   52MOL   H36723929   4.756   3.343   6.865  0.2459 -0.8366 -0.0465
   52MOL   H36823930   4.394   3.124   6.759 -0.5596 -0.9293  0.1683
   52MOL   H36923931   4.300   3.182   6.977  0.6620 -1.2149 -0.5941
   52MOL   O37023932   4.842   3.079   6.573 -0.3568 -0.1081  0.0352
   52MOL   C37123933   4.913   3.188   6.522 -0.0696  0.6781 -0.0492
   52MOL   C37223934   4.937   3.165   6.372  0.5746 -0.7030  0.3120
   52MOL   O37323935   4.829   3.198   6.286  0.2610  0.6071  0.4261
   52MOL   C37423936   4.778   3.318   6.279 -0.4619 -0.5596  0.1376
   52MOL   O37523937   4.823   3.416   6.333  0.4203 -0.6397  0.1979
   52MOL   C37623938   4.656   3.331   6.199 -0.3377  0.3833 -0.8146
   52MOL   C37723939   4.580   3.217   6.163 -0.2328  0.7079 -0.0967
   52MOL   C37823940   4.462   3.235   6.088  0.1307 -0.2124  0.7471
   52MOL   C37923941   4.408   3.363   6.057 -0.4793 -0.3107 -0.0472
   52MOL   C38023942   4.277   3.373   5.983  0.2059 -0.0551 -0.5216
   52MOL   O38123943   4.199   3.469   5.994  0.1891 -0.6221  0.5057
   52MOL   O38223944   4.259   3.268   5.913 -0.3512 -0.1565 -0.1976
   52MOL   C38323945   4.482   3.479   6.095  0.3477  0.3871 -1.0485
   52MOL   C38423946   4.605   3.460   6.161 -0.7090  0.3515 -0.1980
   52MOL   H38523947   4.890   3.292   6.547 -2.1188 -0.1413  1.6049
   52MOL   H38623948   5.010   3.173   6.569 -0.2339 -2.2726 -0.5924
   52MOL   H38723949   4.936   3.056   6.367 -0.2136 -0.7485  1.2665
   52MOL   H38823950   5.029   3.204   6.328  0.3445  0.7164  1.0587
   52MOL   H38923951   4.620   3.122   6.194  0.4950  1.8917  2.8806
   52MOL   H39023952   4.419   3.144   6.048 -0.0598  0.1333  0.1566
   52MOL   H39123953   4.440   3.576   6.074 -1.1626  0.0456  0.3312
   52MOL   H39223954   4.657   3.550   6.192 -2.3678  0.7523  1.5399
   52MOL   O39323955   4.154   3.291   5.806  0.0096 -0.5291  0.2488
   52MOL   C39423956   4.061   3.191   5.811 -0.1325  0.2367  0.8105
   52MOL   C39523957   3.930   3.258   5.857 -0.5073 -0.4065  0.8567
   52MOL   O39623958   3.921   3.306   5.988 -0.3863 -0.0605 -0.0240
   52MOL   C39723959   3.907   3.438   6.012 -0.2505  0.4085  0.0947
   52MOL   O39823960   3.877   3.526   5.930  0.1436 -0.2770  0.7084
   52MOL   C39923961   3.934   3.467   6.155  0.1062 -0.7591  0.8605
   52MOL   C40023962   3.899   3.384   6.260  0.3025  0.4072  0.2094
   52MOL   C40123963   3.926   3.422   6.393 -0.0817 -0.6240  0.2735
   52MOL   C40223964   3.996   3.543   6.422 -0.4788 -0.3109 -0.2933
   52MOL   C40323965   4.003   3.582   6.559  0.4725 -0.0019  0.9073
   52MOL   O40423966   4.007   3.502   6.652 -0.3108  0.0665 -0.2328
   52MOL   O40523967   4.002   3.724   6.584 -0.1577  0.4089 -0.2952
   52MOL   C40623968   4.029   3.625   6.311 -0.4538  0.1851  0.3686
   52MOL   C40723969   4.000   3.592   6.180  1.0274  0.0869 -0.4202
   52MOL   H40823970   4.052   3.145   5.712 -0.7284  0.6548  0.6687
   52MOL   H40923971   4.101   3.112   5.875  3.9264  1.6236  0.0666
   52MOL   H41023972   3.846   3.188   5.850 -0.7972 -0.1390  1.6078
   52MOL   H41123973   3.909   3.339   5.788 -1.2561 -0.9998  0.3754
   52MOL   H41223974   3.845   3.294   6.237  0.7264  0.4081 -0.8161
   52MOL   H41323975   3.889   3.359   6.473  0.8996  1.4887  2.4861
   52MOL   H41423976   4.083   3.716   6.330  2.3804 -1.5433  0.8519
   52MOL   H41523977   4.025   3.660   6.100 -0.5933  1.6969  0.4071
   52MOL   O41623978   4.016   3.759   6.729  0.2624  0.1603  0.0774
   52MOL   C41723979   3.898   3.828   6.770 -0.1599 -0.4252 -0.2431
   52MOL   C41823980   3.883   3.972   6.708  0.1147 -0.1853  0.7369
   52MOL   O41923981   4.009   4.037   6.718  0.4486  0.5681 -0.2627
   52MOL   C42023982   4.050   4.108   6.823  0.0850 -0.5738  0.3892
   52MOL   O42123983   3.964   4.158   6.898  0.3737 -0.3209 -0.3122
   52MOL   C42223984   4.194   4.116   6.840 -0.9826  0.0717 -0.5878
   52MOL   C42323985   4.249   4.180   6.956  0.8597  0.3935  0.2624
   52MOL   C42423986   4.389   4.173   6.980 -0.2604  0.4477 -0.4095
   52MOL   C42523987   4.477   4.111   6.891 -0.6433 -0.0313 -0.5510
   52MOL   C42623988   4.624   4.123   6.908 -0.3477 -0.7608  0.0979
   52MOL   O42723989   4.671   4.169   7.009  0.6418  0.4782  0.1453
   52MOL   O42823990   4.704   4.089   6.801  0.3146 -0.5113 -0.2234
   52MOL   C42923991   4.422   4.061   6.767 -0.1823 -0.2242  0.5288
   52MOL   C43023992   4.281   4.053   6.742 -0.3704  0.3198 -0.0013
   52MOL   H43123993   3.813   3.768   6.736 -0.7280  1.0136 -1.4589
   52MOL   H43223994   3.887   3.834   6.878  0.9907  0.6906 -0.1766
   52MOL   H43323995   3.809   4.039   6.752 -0.1158 -0.1636  0.3267
   52MOL   H43423996   3.851   3.959   6.604  2.3470 -4.1541  0.4490
   52MOL   H43523997   4.182   4.236   7.020  0.4917  0.8052 -0.4751
   52MOL   H43623998   4.421   4.240   7.059 -0.3388  0.1344 -0.1120
   52MOL   H43723999   4.484   4.011   6.694  0.3012  0.3756  0.5242
   52MOL   H43824000   4.241   4.011   6.651 -0.6426  0.5762  0.0021
   52MOL   O43924001   4.849   4.098   6.827 -0.1188  0.0873  0.6888
   52MOL   C44024002   4.899   3.966   6.833 -0.0146 -0.0460  0.7118
   52MOL   C44124003   4.904   3.905   6.690  0.1010  0.1931 -0.6737
   52MOL   O44224004   4.962   3.776   6.691  1.1495  0.1632 -0.6412
   52MOL   C44324005   5.070   3.754   6.612  0.6357  0.7400 -0.5962
   52MOL   O44424006   5.116   3.833   6.527 -0.0512 -0.3044 -0.2607
   52MOL   C44524007   5.123   3.614   6.629 -0.2140 -0.3989 -0.6247
   52MOL   C44624008   5.202   3.564   6.523 -0.3930  0.2513 -0.5456
   52MOL   C44724009   5.264   3.434   6.532  0.4838 -0.9122  0.1951
   52MOL   C44824010   5.234   3.359   6.648 -0.0969  0.2319 -0.5311
   52MOL   C44924011   5.304   3.223   6.674 -0.3786 -0.4610  0.6840
   52MOL   O45024012   5.407   3.190   6.614 -0.1446 -0.3900 -0.5529
   52MOL   O45124013   5.238   3.146   6.764 -0.2672 -0.1007 -0.0620
   52MOL   C45224014   5.141   3.400   6.748 -0.2697 -0.3814 -0.7535
   52MOL   C45324015   5.086   3.530   6.738  0.6389 -0.7142  0.4376
   52MOL   H45424016   5.002   3.974   6.868  0.0771  0.4571  0.3346
   52MOL   H45524017   4.852   3.909   6.913  0.0429 -0.7457  0.2530
   52MOL   H45624018   4.968   3.973   6.634  1.6433 -0.6516  0.0228
   52MOL   H45724019   4.809   3.908   6.637 -0.5141 -0.3427  0.3826
   52MOL   H45824020   5.210   3.619   6.430 -0.4638 -1.3027 -1.4921
   52MOL   H45924021   5.338   3.410   6.458 -2.4970  3.2148 -4.4457
   52MOL   H46024022   5.124   3.340   6.836  1.7050  0.9478  0.5815
   52MOL   H46124023   5.021   3.574   6.813 -0.1946  1.4780 -1.5213
   52MOL   H46224024   5.296   3.073   6.778 -1.2074 -1.4093 -2.7746
   53MOL     O124025   7.646   2.847   6.552  0.5532  0.8405 -0.1921
   53MOL     C224026   7.605   2.923   6.661  0.5757  0.4461  0.9677
   53MOL     C324027   7.523   3.043   6.611  0.0773  0.0447  0.0127
   53MOL     O424028   7.615   3.138   6.572 -0.4125 -0.5416 -0.3742
   53MOL     C524029   7.573   3.255   6.533 -0.6611 -0.0319  0.1904
   53MOL     O624030   7.460   3.303   6.562 -0.4653 -0.1974  0.1105
   53MOL     C724031   7.666   3.337   6.451 -0.3907  0.2674 -0.0970
   53MOL     C824032   7.807   3.320   6.460  0.6073 -0.5417 -0.6152
   53MOL     C924033   7.894   3.415   6.407  0.3109 -0.3133 -0.1144
   53MOL    C1024034   7.847   3.532   6.337 -0.9194  0.2953 -0.0858
   53MOL    C1124035   7.936   3.640   6.291  0.3400 -0.3124 -0.2335
   53MOL    O1224036   7.898   3.716   6.201  0.3710  0.0094 -0.4343
   53MOL    O1324037   8.057   3.634   6.350 -0.2809 -0.3603  0.3615
   53MOL    C1424038   7.713   3.547   6.322  0.3140 -0.0533 -0.4702
   53MOL    C1524039   7.627   3.454   6.387  0.4061 -0.0157  0.0496
   53MOL    H1624040   7.549   2.860   6.730 -0.5226 -1.1241 -1.2860
   53MOL    H1724041   7.695   2.950   6.716  2.3563  0.6698 -1.9602
   53MOL    H1824042   7.472   3.070   6.703  0.6115 -2.2572  1.0413
   53MOL    H1924043   7.451   3.019   6.533  0.1117  0.4437 -0.1384
   53MOL    H2024044   7.851   3.243   6.521  3.4908  1.6383  0.1801
   53MOL    H2124045   8.000   3.404   6.425  0.2197 -2.3192 -0.6836
   53MOL    H2224046   7.664   3.637   6.287  0.0839  0.7373  1.7965
   53MOL    H2324047   7.521   3.474   6.385  0.6078  1.2057  1.2474
   53MOL    H2424048   7.579   2.822   6.491  0.0209  1.3420  0.1879
   53MOL    O2524049   8.147   3.745   6.305 -0.5002 -0.7712 -0.2584
   53MOL    C2624050   8.224   3.692   6.199  0.0052 -0.8603  0.1150
   53MOL    C2724051   0.055   3.765   6.128  0.6316  0.2815 -0.7182
   53MOL    O2824052   0.064   3.731   5.994 -0.1573  0.0405  0.6341
   53MOL    C2924053   0.126   3.617   5.957  0.3548  0.7957  0.2961
   53MOL    O3024054   0.160   3.527   6.039 -0.1054  0.1093 -0.4625
   53MOL    C3124055   0.157   3.605   5.819 -0.3940  0.7320  0.0774
   53MOL    C3224056   0.130   3.715   5.727 -0.7651 -0.4013  0.4362
   53MOL    C3324057   0.181   3.700   5.591 -0.5834  0.9451 -0.5356
   53MOL    C3424058   0.253   3.582   5.548  0.0473 -0.0033  0.6856
   53MOL    C3524059   0.315   3.575   5.412 -0.0641  0.3866  0.0736
   53MOL    O3624060   0.363   3.472   5.355  0.3609  0.3269  0.1524
   53MOL    O3724061   0.315   3.685   5.348 -0.0873  0.2520  0.0266
   53MOL    C3824062   0.268   3.477   5.641 -0.0099  0.8359  0.4260
   53MOL    C3924063   0.228   3.489   5.774 -0.1746 -1.2201 -0.1562
   53MOL    H4024064   8.275   3.606   6.244  1.0808 -0.0538  0.4437
   53MOL    H4124065   8.147   3.659   6.129 -0.4777 -2.0147  1.1569
   53MOL    H4224066   0.152   3.755   6.177  0.2325  1.5198  0.3602
   53MOL    H4324067   0.045   3.874   6.128 -1.3549  0.1194 -0.1004
   53MOL    H4424068   0.075   3.804   5.756 -0.3848  0.1525 -0.5261
   53MOL    H4524069   0.148   3.772   5.517 -3.5898  0.9291  0.7216
   53MOL    H4624070   0.314   3.386   5.604  3.3780  2.0315  1.4905
   53MOL    H4724071   0.245   3.408   5.843  1.4993 -1.4260 -0.7909
   53MOL    O4824072   0.383   3.692   5.217  0.3890  0.4761 -0.2702
   53MOL    C4924073   0.502   3.774   5.234 -0.7714 -0.7442 -0.0761
   53MOL    C5024074   0.476   3.928   5.248 -0.3020 -0.1626  1.0359
   53MOL    O5124075   0.441   3.964   5.381  0.2832 -0.0055  0.6939
   53MOL    C5224076   0.530   3.956   5.481 -0.2109 -0.1865  0.3582
   53MOL    O5324077   0.657   3.951   5.462  0.0509 -0.1705  0.0483
   53MOL    C5424078   0.463   3.962   5.613 -0.0976 -0.2217  0.6440
   53MOL    C5524079   0.522   3.893   5.726 -0.3713 -0.1158 -0.2064
   53MOL    C5624080   0.457   3.912   5.850 -0.4640 -0.3373 -0.1359
   53MOL    C5724081   0.347   3.994   5.873 -0.0951  0.1542 -0.2781
   53MOL    C5824082   0.289   4.000   6.013 -0.7857 -1.0424 -0.1154
   53MOL    O5924083   0.314   3.924   6.108  0.1589 -0.3441 -0.1495
   53MOL    O6024084   0.215   4.109   6.030  0.7291 -0.1290  0.1209
   53MOL    C6124085   0.288   4.064   5.758 -0.0523  0.1350 -0.3698
   53MOL    C6224086   0.349   4.049   5.633 -0.3024  0.3592  0.2518
   53MOL    H6324087   0.553   3.734   5.321  1.5191 -0.1883 -1.1253
   53MOL    H6424088   0.564   3.763   5.145 -0.3754  1.1737 -0.0685
   53MOL    H6524089   0.404   3.960   5.173 -1.9676 -1.7979  1.8691
   53MOL    H6624090   0.562   3.987   5.217  0.4148 -2.1541 -0.8840
   53MOL    H6724091   0.612   3.835   5.726 -0.5617 -0.5316 -4.0004
   53MOL    H6824092   0.494   3.867   5.941 -0.8408  0.9431  0.6794
   53MOL    H6924093   0.200   4.125   5.767  0.3046  0.4913  0.7992
   53MOL    H7024094   0.305   4.103   5.550  3.7011  1.2030 -1.4746
   53MOL    O7124095   0.180   4.130   6.181 -0.0911  0.3756 -0.3014
   53MOL    C7224096   0.248   4.255   6.216 -0.6612  0.1185  0.2056
   53MOL    C7324097   0.149   4.361   6.269 -0.5458  0.3912  0.1625
   53MOL    O7424098   0.147   4.376   6.411 -0.2919 -0.0305 -0.6228
   53MOL    C7524099   0.237   4.468   6.460  0.3880 -0.6960 -0.5457
   53MOL    O7624100   0.309   4.542   6.398 -0.3538 -0.3689  0.0736
   53MOL    C7724101   0.233   4.468   6.606  0.8066 -0.3737 -0.0894
   53MOL    C7824102   0.141   4.383   6.674 -1.0309 -0.0020 -0.2266
   53MOL    C7924103   0.131   4.386   6.813 -0.2252  0.4427  0.0077
   53MOL    C8024104   0.189   4.490   6.885 -0.1190  0.0733 -0.0359
   53MOL    C8124105   0.157   4.497   7.027 -0.3325 -0.2522  0.0387
   53MOL    O8224106   0.090   4.408   7.084 -0.2451  0.1365  0.1136
   53MOL    O8324107   0.227   4.591   7.092 -0.0626  0.2550  0.0959
   53MOL    C8424108   0.277   4.580   6.824  0.3515 -0.6039  0.3106
   53MOL    C8524109   0.300   4.565   6.686 -0.4436  0.2003 -0.4474
   53MOL    H8624110   0.336   4.243   6.279 -0.2928 -1.7853 -0.6424
   53MOL    H8724111   0.273   4.299   6.119 -0.1514  1.4067  0.9004
   53MOL    H8824112   0.051   4.328   6.236  0.5662 -1.7369 -1.1195
   53MOL    H8924113   0.167   4.462   6.231  0.2414  0.2853  0.2369
   53MOL    H9024114   0.074   4.314   6.625 -2.2234 -0.3159  1.7893
   53MOL    H9124115   0.061   4.315   6.856 -1.3631  0.8114 -1.2008
   53MOL    H9224116   0.321   4.659   6.883  1.9717  0.6675 -2.5043
   53MOL    H9324117   0.363   4.629   6.625 -0.7287  0.6228 -0.3030
   53MOL    O9424118   0.206   4.589   7.235 -0.5895  0.4937 -0.5125
   53MOL    C9524119   0.327   4.567   7.301  0.2230  0.9679  0.7871
   53MOL    C9624120   0.386   4.424   7.301 -0.2426 -0.8174 -0.0912
   53MOL    O9724121   0.439   4.398   7.177  0.1341  0.2010 -0.0521
   53MOL    C9824122   0.565   4.347   7.172 -1.0064 -0.0254  0.1404
   53MOL    O9924123   0.629   4.329   7.272  0.4659 -0.1284 -0.3296
   53MOL   C10024124   0.618   4.326   7.030 -0.0090 -0.8088 -0.1330
   53MOL   C10124125   0.545   4.381   6.919 -0.2589 -0.7095  0.0800
   53MOL   C10224126   0.586   4.365   6.786 -0.1900  0.7292 -0.0792
   53MOL   C10324127   0.700   4.291   6.763 -0.2954 -0.8074  0.5049
   53MOL   C10424128   0.752   4.267   6.623 -0.2816 -0.2757 -0.3421
   53MOL   O10524129   0.857   4.206   6.601  0.4592 -0.1320 -0.8553
   53MOL   O10624130   0.673   4.314   6.521  0.3616  0.0634  0.0358
   53MOL   C10724131   0.772   4.239   6.871  0.1141 -0.0198 -0.5106
   53MOL   C10824132   0.732   4.256   7.002 -0.1867  0.5609  0.1432
   53MOL   H10924133   0.401   4.634   7.257  1.4162 -1.2315 -0.6004
   53MOL   H11024134   0.327   4.619   7.397  0.5684  1.4026  0.5516
   53MOL   H11124135   0.319   4.347   7.339 -0.1103 -0.5565  0.6867
   53MOL   H11224136   0.470   4.422   7.371 -1.7410 -1.7299  1.7333
   53MOL   H11324137   0.476   4.462   6.940 -1.4393 -1.6081 -0.2812
   53MOL   H11424138   0.531   4.413   6.707 -0.9216 -0.8774 -0.5434
   53MOL   H11524139   0.861   4.181   6.849  1.1685  1.1040  0.7430
   53MOL   H11624140   0.782   4.211   7.087  0.7737 -1.3569 -1.4094
   53MOL   O11724141   0.724   4.285   6.382 -0.3755  0.0625  0.4487
   53MOL   C11824142   0.708   4.152   6.344 -0.4475 -0.2913  0.0427
   53MOL   C11924143   0.638   4.141   6.205 -0.2463  0.1056 -0.7390
   53MOL   O12024144   0.720   4.141   6.091  0.3799 -0.2395 -0.2713
   53MOL   C12124145   0.739   4.026   6.014 -0.3877 -0.4938 -0.5349
   53MOL   O12224146   0.715   3.914   6.059  0.3453 -0.2306 -0.4174
   53MOL   C12324147   0.812   4.058   5.887  0.3797  0.0697  0.2256
   53MOL   C12424148   0.861   3.951   5.806  0.3353 -0.2639 -0.2285
   53MOL   C12524149   0.918   3.983   5.678 -0.4260  0.0736 -0.1665
   53MOL   C12624150   0.932   4.109   5.628 -0.4349 -0.2318  0.3323
   53MOL   C12724151   1.020   4.129   5.505 -0.0557 -0.6489 -0.0122
   53MOL   O12824152   1.061   4.242   5.476  0.0682  0.3396  0.1541
   53MOL   O12924153   1.055   4.021   5.435 -0.5522  0.3073 -0.1791
   53MOL   C13024154   0.883   4.216   5.710 -0.8113  0.2236  0.7775
   53MOL   C13124155   0.827   4.188   5.834 -0.4855  0.2493 -0.1336
   53MOL   H13224156   0.806   4.105   6.356 -0.2082 -0.2802 -1.7521
   53MOL   H13324157   0.652   4.098   6.420  0.2853 -1.0373  0.0596
   53MOL   H13424158   0.553   4.207   6.190  0.8251  1.1575 -2.2758
   53MOL   H13524159   0.584   4.046   6.211 -0.2832  0.1537 -0.3324
   53MOL   H13624160   0.852   3.848   5.836  0.3542  0.1584  1.2642
   53MOL   H13724161   0.946   3.898   5.617 -1.0990  2.3061 -3.7558
   53MOL   H13824162   0.893   4.315   5.668  0.6602 -1.1385 -2.2324
   53MOL   H13924163   0.785   4.271   5.889  0.5074  1.2906 -0.9288
   53MOL   O14024164   1.157   4.045   5.327 -0.4363 -0.2475  0.5037
   53MOL   C14124165   1.097   4.006   5.206  0.2826  0.5444 -0.1752
   53MOL   C14224166   1.201   3.968   5.100 -0.4254 -0.5962 -0.3686
   53MOL   O14324167   1.142   3.958   4.971  0.2101 -0.2338  0.0715
   53MOL   C14424168   1.187   3.880   4.876 -0.9578 -0.7267 -0.3140
   53MOL   O14524169   1.292   3.816   4.880  0.3413  0.7084 -0.1808
   53MOL   C14624170   1.098   3.871   4.754  0.8615  0.1456  0.4001
   53MOL   C14724171   1.144   3.792   4.641 -0.4694  0.1234 -0.0330
   53MOL   C14824172   1.072   3.796   4.524  0.6131 -0.5232  1.0939
   53MOL   C14924173   0.947   3.854   4.512  0.0285 -0.4932 -0.3154
   53MOL   C15024174   0.876   3.849   4.382 -0.8199  0.5957  0.1602
   53MOL   O15124175   0.930   3.785   4.291  0.0641  0.4930 -0.3647
   53MOL   O15224176   0.764   3.930   4.378 -0.4790 -0.3430  0.0758
   53MOL   C15324177   0.905   3.931   4.627 -0.0934  0.0118 -0.3395
   53MOL   C15424178   0.982   3.948   4.741 -0.5093 -0.1519 -0.3001
   53MOL   H15524179   1.039   3.915   5.223 -0.2203  1.0189  0.7151
   53MOL   H15624180   1.024   4.075   5.164 -0.9011  0.5237  1.8070
   53MOL   H15724181   1.246   3.871   5.122  0.9879 -0.2827 -1.8225
   53MOL   H15824182   1.285   4.036   5.087 -0.3355 -0.5609  0.3513
   53MOL   H15924183   1.236   3.738   4.634 -0.6557 -0.1449 -0.4788
   53MOL   H16024184   1.120   3.748   4.440 -0.2254  1.2746 -0.4424
   53MOL   H16124185   0.809   3.980   4.631 -0.1233  0.1354 -2.0254
   53MOL   H16224186   0.944   4.013   4.819 -0.5540 -0.2607 -0.2303
   53MOL   O16324187   0.698   3.936   4.247 -0.1969 -0.2373 -0.2565
   53MOL   C16424188   0.720   4.064   4.186 -0.1702  0.9040  0.6970
   53MOL   C16524189   0.659   4.175   4.266  0.0521  0.0854  0.6126
   53MOL   O16624190   0.663   4.299   4.199 -0.3244 -0.1718 -0.4100
   53MOL   C16724191   0.574   4.337   4.102  0.5926 -0.0574 -0.4856
   53MOL   O16824192   0.462   4.295   4.092 -0.4103 -0.4240 -0.5985
   53MOL   C16924193   0.620   4.455   4.027 -0.1705  0.4103 -0.7956
   53MOL   C17024194   0.752   4.500   4.040  0.2961 -0.3780 -0.7396
   53MOL   C17124195   0.798   4.612   3.967 -0.2929 -0.0997 -0.7291
   53MOL   C17224196   0.709   4.676   3.877  0.4296 -0.1903  0.2510
   53MOL   C17324197   0.755   4.800   3.806 -0.3685  0.0709 -0.1730
   53MOL   O17424198   0.853   4.867   3.825 -0.3807  0.4211  0.2219
   53MOL   O17524199   0.669   4.836   3.712  0.9014 -0.7509  0.0521
   53MOL   C17624200   0.579   4.622   3.862 -1.1730  0.7231 -0.1035
   53MOL   C17724201   0.529   4.516   3.939  0.3764  0.4200  0.1766
   53MOL   H17824202   0.828   4.069   4.177 -0.1690 -1.3618 -0.7953
   53MOL   H17924203   0.671   4.051   4.090  1.2924 -2.6369  0.3392
   53MOL   H18024204   0.712   4.184   4.361  1.4194  0.6139 -0.1883
   53MOL   H18124205   0.553   4.159   4.286 -0.4627  1.3146 -0.9502
   53MOL   H18224206   0.819   4.436   4.096 -0.0602 -1.2069 -1.2475
   53MOL   H18324207   0.902   4.639   3.974 -0.3347  0.3591 -1.7623
   53MOL   H18424208   0.513   4.667   3.789 -0.9013 -0.3057 -0.9952
   53MOL   H18524209   0.426   4.491   3.918  0.9689 -1.1283 -0.9157
   53MOL   O18624210   0.695   4.973   3.656 -0.1947 -0.0571 -0.8499
   53MOL   C18724211   0.764   4.952   3.531 -0.0844 -0.2422 -0.0583
   53MOL   C18824212   0.904   5.007   3.542 -0.0838  0.3297 -1.0406
   53MOL   O18924213   0.968   5.020   3.419 -0.0414  0.1958  0.3386
   53MOL   C19024214   1.099   5.037   3.429  0.4354 -0.1080  0.5947
   53MOL   O19124215   1.156   5.083   3.528  0.2661 -0.5453  0.2290
   53MOL   C19224216   1.170   5.013   3.300  0.0180  0.1032  0.8559
   53MOL   C19324217   1.301   5.065   3.279 -0.6463  0.0605  0.6018
   53MOL   C19424218   1.366   5.038   3.156 -1.1115  0.4606 -0.4670
   53MOL   C19524219   1.308   4.947   3.064 -0.4031 -0.6234  0.0863
   53MOL   C19624220   1.380   4.899   2.941  1.1373 -0.1876 -0.4322
   53MOL   O19724221   1.324   4.844   2.846  0.5547  0.2155 -0.6765
   53MOL   O19824222   1.513   4.925   2.944 -0.0555 -0.0503 -0.5154
   53MOL   C19924223   1.174   4.909   3.082  0.4091  0.9998 -0.5247
   53MOL   C20024224   1.111   4.929   3.208  0.2000 -1.0876  0.0572
   53MOL   H20124225   0.769   4.853   3.485 -0.4853 -0.3559  0.1409
   53MOL   H20224226   0.712   4.994   3.444 -0.2181  0.8090  0.5256
   53MOL   H20324227   0.959   4.946   3.615  0.4537  0.7885 -1.0539
   53MOL   H20424228   0.901   5.098   3.603  0.5679 -0.2632 -0.1017
   53MOL   H20524229   1.354   5.128   3.349  0.7827 -0.4909  0.0489
   53MOL   H20624230   1.464   5.080   3.135  0.3248 -0.7018  3.4383
   53MOL   H20724231   1.126   4.853   3.003 -2.2992 -1.3415  2.6703
   53MOL   H20824232   1.010   4.895   3.227  0.2015 -1.4861 -0.6197
   53MOL   O20924233   1.577   4.860   2.831  0.1120 -0.0483  0.1893
   53MOL   C21024234   1.660   4.763   2.896 -0.2859 -1.1967 -0.3232
   53MOL   C21124235   1.709   4.656   2.800  0.7908  0.2145  0.0173
   53MOL   O21224236   1.660   4.531   2.841 -0.1932 -0.3279  0.3291
   53MOL   C21324237   1.535   4.489   2.808  1.0101  0.6161  0.5060
   53MOL   O21424238   1.452   4.557   2.753 -0.0301  0.0883  0.3891
   53MOL   C21524239   1.509   4.351   2.841  0.4321  0.2375  0.2944
   53MOL   C21624240   1.612   4.267   2.870  0.0102 -0.2417  0.5894
   53MOL   C21724241   1.592   4.128   2.895 -0.1088  0.1248  0.0829
   53MOL   C21824242   1.464   4.077   2.883  0.3396  0.3673 -0.3582
   53MOL   C21924243   1.424   3.940   2.911 -0.2150  0.0483  0.0878
   53MOL   O22024244   1.308   3.893   2.904 -0.5965  1.0554  0.2329
   53MOL   O22124245   1.531   3.866   2.947  0.3453  0.4610  0.2792
   53MOL   C22224246   1.355   4.165   2.847  0.2151 -0.0973  0.5743
   53MOL   C22324247   1.376   4.298   2.823 -0.0065  0.5423 -0.6681
   53MOL   H22424248   1.747   4.825   2.917 -0.5299 -0.5087 -1.2997
   53MOL   H22524249   1.614   4.721   2.985 -2.4584  5.1113  1.8230
   53MOL   H22624250   1.818   4.652   2.794  0.9353  2.9867  0.2705
   53MOL   H22724251   1.684   4.664   2.694  2.4003  0.0955 -0.3797
   53MOL   H22824252   1.717   4.293   2.875 -0.2033  0.6454  0.6090
   53MOL   H22924253   1.674   4.059   2.914 -2.0346 -2.1384  0.4771
   53MOL   H23024254   1.253   4.131   2.844  0.6620 -1.4051 -0.2362
   53MOL   H23124255   1.292   4.359   2.796 -0.2339  0.3952 -0.2883
   53MOL   O23224256   1.505   3.721   2.931 -0.0871  0.6164  0.0205
   53MOL   C23324257   1.462   3.665   3.054  0.3461  0.0256  0.1169
   53MOL   C23424258   1.376   3.546   3.018  0.7881  0.3055 -0.1468
   53MOL   O23524259   1.247   3.607   2.982 -0.3169  0.0769 -0.5711
   53MOL   C23624260   1.158   3.517   2.937 -0.1590 -0.0485  0.1634
   53MOL   O23724261   1.178   3.393   2.938 -0.3173 -0.1900 -0.2815
   53MOL   C23824262   1.044   3.574   2.868 -0.0761  0.2337  0.5220
   53MOL   C23924263   1.002   3.708   2.893  0.4811 -0.5634  0.4836
   53MOL   C24024264   0.886   3.765   2.836 -0.0340  0.3822 -0.2541
   53MOL   C24124265   0.806   3.680   2.761  0.8059  0.4836 -0.3166
   53MOL   C24224266   0.665   3.725   2.717  0.3865  0.0417 -0.1846
   53MOL   O24324267   0.612   3.832   2.741  0.1316 -0.0151  0.0213
   53MOL   O24424268   0.603   3.626   2.651 -0.5760 -0.1876  0.3653
   53MOL   C24524269   0.847   3.544   2.739  0.1970  0.3189  0.1233
   53MOL   C24624270   0.957   3.489   2.804  0.2805  0.2016 -0.1265
   53MOL   H24724271   1.545   3.638   3.120 -0.8890 -0.6585  1.3978
   53MOL   H24824272   1.407   3.737   3.113  0.2696 -0.9665  1.2682
   53MOL   H24924273   1.367   3.478   3.103 -1.8987 -1.5318 -1.8126
   53MOL   H25024274   1.411   3.474   2.944 -0.8293 -0.2905 -0.3500
   53MOL   H25124275   1.076   3.753   2.957  1.2292 -1.9461  0.5840
   53MOL   H25224276   0.859   3.869   2.847 -0.2613  0.3401 -0.4005
   53MOL   H25324277   0.784   3.480   2.678 -0.5464  0.8702  0.2966
   53MOL   H25424278   0.976   3.384   2.788 -0.1451  0.3118 -1.4502
   53MOL   O25524279   0.449   3.642   2.644 -0.4230 -0.0059 -0.5670
   53MOL   C25624280   0.427   3.670   2.502  0.3206 -0.0219  0.5842
   53MOL   C25724281   0.271   3.675   2.507 -0.2190  0.2897  0.0763
   53MOL   O25824282   0.206   3.677   2.380  0.1588  0.8210 -0.4062
   53MOL   C25924283   0.200   3.567   2.301  0.2732 -0.6242  0.3246
   53MOL   O26024284   0.267   3.463   2.313  0.5216 -0.1523  0.4176
   53MOL   C26124285   0.106   3.584   2.178  0.3927  0.1720  0.3504
   53MOL   C26224286   0.099   3.481   2.083 -0.3779 -0.3299  0.4271
   53MOL   C26324287   0.009   3.494   1.973  0.0348  0.1307 -0.4705
   53MOL   C26424288   8.200   3.604   1.960  0.7406 -0.2799  0.2020
   53MOL   C26524289   8.107   3.614   1.851  1.1934  0.1910  0.7298
   53MOL   O26624290   8.116   3.552   1.744 -0.2119  0.3394  0.0153
   53MOL   O26724291   8.001   3.696   1.881  0.3034 -0.3543  0.3310
   53MOL   C26824292   8.210   3.707   2.054 -0.2923 -1.4787 -0.8051
   53MOL   C26924293   0.027   3.699   2.163 -0.5800  0.0845 -0.4772
   53MOL   H27024294   0.472   3.766   2.478  0.1146 -0.3078 -1.0483
   53MOL   H27124295   0.451   3.588   2.434  0.0339 -0.5617  1.1315
   53MOL   H27224296   0.240   3.770   2.550  2.4231  1.4112 -0.3758
   53MOL   H27324297   0.235   3.586   2.558  2.5252 -1.4593 -0.8948
   53MOL   H27424298   0.160   3.392   2.086  1.3800  0.8735  1.3425
   53MOL   H27524299   8.273   3.412   1.903  0.5600  0.6367 -1.1649
   53MOL   H27624300   8.156   3.800   2.044  0.8334 -0.7848 -0.5115
   53MOL   H27724301   0.040   3.775   2.238  0.8067 -0.6170  0.0193
   53MOL   O27824302   7.898   3.708   1.773 -0.3062  0.3478 -0.6869
   53MOL   C27924303   7.794   3.606   1.784 -0.5449  0.8361  0.0911
   53MOL   C28024304   7.714   3.609   1.922  0.2216 -0.0671 -0.1375
   53MOL   O28124305   7.609   3.703   1.913  0.6167 -0.0567  0.1900
   53MOL   C28224306   7.483   3.658   1.881  0.3799 -0.0429 -0.3592
   53MOL   O28324307   7.447   3.542   1.898  0.4088  0.5324  0.4295
   53MOL   C28424308   7.408   3.779   1.832 -0.0421  0.1693 -0.7964
   53MOL   C28524309   7.452   3.913   1.847 -0.1791  0.2573  0.9217
   53MOL   C28624310   7.379   4.021   1.788 -0.7719 -0.6830  0.2173
   53MOL   C28724311   7.263   3.999   1.712  0.1336 -0.5780  0.1747
   53MOL   C28824312   7.189   4.112   1.646  0.5889  0.1549 -0.3805
   53MOL   O28924313   7.113   4.088   1.548  0.0500  0.0849 -0.4006
   53MOL   O29024314   7.225   4.240   1.691 -0.0925 -0.3820 -0.0381
   53MOL   C29124315   7.221   3.869   1.702 -0.4646  0.3218  0.2777
   53MOL   C29224316   7.297   3.758   1.753  0.0012 -0.4407 -0.4406
   53MOL   H29324317   7.720   3.621   1.705  0.7911  2.7553 -0.8316
   53MOL   H29424318   7.833   3.504   1.775 -1.0769  0.6470 -0.1347
   53MOL   H29524319   7.775   3.648   2.004  0.8082 -1.7689  0.2685
   53MOL   H29624320   7.680   3.509   1.949 -1.7651  0.4667 -0.6096
   53MOL   H29724321   7.536   3.940   1.910 -0.1957 -0.0479  1.0756
   53MOL   H29824322   7.414   4.122   1.802  0.9284 -0.8979 -2.1065
   53MOL   H29924323   7.132   3.838   1.650 -0.9895 -0.6523  1.7415
   53MOL   H30024324   7.262   3.656   1.748 -2.8251  0.4877 -0.0365
   53MOL   O30124325   7.193   4.341   1.593  0.2813  0.3555 -0.5352
   53MOL   C30224326   7.083   4.412   1.650  0.7671  0.5007 -0.2169
   53MOL   C30324327   7.050   4.547   1.584  0.1017 -0.0097  0.0187
   53MOL   O30424328   7.149   4.641   1.616 -0.3073  0.5259 -0.2616
   53MOL   C30524329   7.266   4.648   1.543 -0.4152 -0.8908  0.1558
   53MOL   O30624330   7.286   4.576   1.441  0.1503  0.2994  0.1089
   53MOL   C30724331   7.351   4.771   1.582 -0.4628 -0.2743  0.5230
   53MOL   C30824332   7.451   4.817   1.495 -0.5902  0.4867 -0.1598
   53MOL   C30924333   7.527   4.932   1.520  0.0865  0.2295  0.4454
   53MOL   C31024334   7.489   5.009   1.631 -0.8342  0.2373  0.2228
   53MOL   C31124335   7.565   5.140   1.640  0.6665 -0.5032 -0.1923
   53MOL   O31224336   7.666   5.163   1.575 -0.2862  0.3207  0.0599
   53MOL   O31324337   7.510   5.238   1.714 -0.3645  0.2748  0.2247
   53MOL   C31424338   7.403   4.956   1.735 -0.8529 -0.1707  0.0788
   53MOL   C31524339   7.331   4.838   1.705 -0.3551 -0.1287 -0.2243
   53MOL   H31624340   6.998   4.349   1.624  1.4956  0.0177 -1.4783
   53MOL   H31724341   7.102   4.440   1.754 -1.4716  1.2142  0.0199
   53MOL   H31824342   6.958   4.598   1.613 -1.2160 -2.9905  1.3363
   53MOL   H31924343   7.062   4.547   1.476  0.1564  2.4624 -0.0049
   53MOL   H32024344   7.483   4.759   1.410 -0.7900 -2.8680  1.9527
   53MOL   H32124345   7.603   4.961   1.449 -1.1609  1.0409 -0.5741
   53MOL   H32224346   7.403   5.008   1.829 -0.5671  2.7425 -1.4693
   53MOL   H32324347   7.254   4.799   1.770 -1.3017  1.1131 -0.5739
   53MOL   O32424348   7.539   5.375   1.653  0.4690 -0.6815  0.0271
   53MOL   C32524349   7.642   5.441   1.729  0.2539 -0.2431  0.3272
   53MOL   C32624350   7.783   5.398   1.687  0.1681  0.0784  0.0551
   53MOL   O32724351   7.821   5.279   1.752 -0.1863 -0.0868 -0.2021
   53MOL   C32824352   7.847   5.277   1.886  0.4943  0.4980 -0.5296
   53MOL   O32924353   7.846   5.371   1.966 -0.0109 -0.1262  0.3194
   53MOL   C33024354   7.869   5.138   1.934 -0.2488  0.5528 -0.2255
   53MOL   C33124355   7.904   5.116   2.068 -0.5917 -0.3826 -0.0487
   53MOL   C33224356   7.914   4.982   2.114 -0.4765 -0.0202 -0.2603
   53MOL   C33324357   7.899   4.866   2.025 -0.0870 -0.8121 -0.0999
   53MOL   C33424358   7.897   4.725   2.070 -0.2825  0.0083  0.1967
   53MOL   O33524359   7.898   4.630   1.987  0.2097  0.7023  0.1991
   53MOL   O33624360   7.894   4.715   2.204 -0.4918  0.0079  0.3697
   53MOL   C33724361   7.872   4.899   1.892 -0.5568  0.4208  0.4781
   53MOL   C33824362   7.850   5.030   1.849 -0.2119 -0.2882  0.7979
   53MOL   H33924363   7.635   5.548   1.710  4.5907  0.4742  2.0551
   53MOL   H34024364   7.624   5.422   1.835  1.2549  0.6237  0.6683
   53MOL   H34124365   7.859   5.470   1.716  0.0585  0.9705 -1.7675
   53MOL   H34224366   7.798   5.386   1.579  3.3988  0.4344  0.4366
   53MOL   H34324367   7.912   5.205   2.129 -2.0773 -0.8447  0.8581
   53MOL   H34424368   7.922   4.962   2.220  1.6622 -1.5172 -0.6622
   53MOL   H34524369   7.864   4.825   1.814 -1.5049  0.0581  0.9090
   53MOL   H34624370   7.820   5.038   1.745 -1.2446 -2.7520  0.8939
   53MOL   O34724371   7.863   4.575   2.267 -0.4620 -0.4324 -0.0097
   53MOL   C34824372   7.982   4.541   2.336 -0.4527 -0.6356 -0.0023
   53MOL   C34924373   7.990   4.405   2.403 -0.3884 -0.3497  0.4706
   53MOL   O35024374   8.031   4.411   2.538  0.5077 -0.4235 -0.3584
   53MOL   C35124375   8.132   4.334   2.585 -0.1890 -0.3224  0.7231
   53MOL   O35224376   8.197   4.250   2.519 -0.2649 -0.6641  0.0680
   53MOL   C35324377   8.162   4.367   2.726 -0.1111 -0.8115 -0.0380
   53MOL   C35424378   8.265   4.300   2.787 -0.4401  0.6296 -0.3744
   53MOL   C35524379   0.029   4.334   2.919  0.0240  0.4018  0.2106
   53MOL   C35624380   8.244   4.440   2.985 -0.0284  0.2471  0.2690
   53MOL   C35724381   0.018   4.471   3.121 -0.3775  1.1041  0.4023
   53MOL   O35824382   0.113   4.418   3.175 -0.0195  0.0253  0.1597
   53MOL   O35924383   8.218   4.568   3.181 -0.1369  0.7767  0.3898
   53MOL   C36024384   8.138   4.512   2.917 -0.3030  0.3355 -0.1596
   53MOL   C36124385   8.093   4.470   2.792 -0.3439 -0.2482 -0.0155
   53MOL   H36224386   8.074   4.559   2.278 -0.2110 -0.5733  0.3980
   53MOL   H36324387   7.984   4.623   2.407  1.1456  1.5085 -2.4050
   53MOL   H36424388   8.060   4.350   2.339 -0.2756  0.3047  0.0233
   53MOL   H36524389   7.896   4.351   2.410  0.3625 -1.6667  0.4260
   53MOL   H36624390   0.052   4.235   2.728 -0.3448  1.3255 -1.0568
   53MOL   H36724391   0.112   4.280   2.964 -0.3787 -0.0482  0.4205
   53MOL   H36824392   8.090   4.592   2.970 -0.3550  0.3116 -0.1708
   53MOL   H36924393   8.010   4.524   2.748  1.1099 -0.9540 -3.7973
   53MOL   O37024394   8.274   4.629   3.303 -0.8002 -0.1341  0.3905
   53MOL   C37124395   8.222   4.552   3.411 -1.1987  0.2333 -0.0985
   53MOL   C37224396   8.071   4.565   3.422  0.1922  0.7539  0.3663
   53MOL   O37324397   8.025   4.680   3.485 -0.4757 -0.5111 -0.0655
   53MOL   C37424398   8.023   4.696   3.618 -0.3781  0.4077  0.5441
   53MOL   O37524399   8.084   4.613   3.690 -0.6680 -0.2288  0.0319
   53MOL   C37624400   7.948   4.814   3.670 -0.4055  0.0354 -0.2377
   53MOL   C37724401   7.957   4.855   3.807  0.2359  0.0651 -0.4410
   53MOL   C37824402   7.873   4.953   3.863  0.6512  0.8142  0.1059
   53MOL   C37924403   7.792   5.025   3.777 -0.1724 -0.2384  0.3580
   53MOL   C38024404   7.713   5.138   3.838 -0.1416 -0.7239  0.6614
   53MOL   O38124405   7.708   5.166   3.957  0.6057  0.0133  0.0258
   53MOL   O38224406   7.649   5.211   3.741  0.0077 -0.4136 -0.5135
   53MOL   C38324407   7.786   4.992   3.638 -0.5834 -0.3362  0.3451
   53MOL   C38424408   7.865   4.887   3.585  0.0522 -0.5862  0.1272
   53MOL   H38524409   8.248   4.447   3.398  1.9308  0.8025  1.0797
   53MOL   H38624410   8.274   4.579   3.503  2.7353  1.8821 -2.6610
   53MOL   H38724411   8.025   4.480   3.471 -3.5940  1.2594 -2.0816
   53MOL   H38824412   8.018   4.573   3.327  0.7555 -0.8479 -0.0965
   53MOL   H38924413   8.027   4.795   3.863 -1.2100 -3.0585 -1.8570
   53MOL   H39024414   7.874   4.976   3.969  2.0298  1.0018  0.0543
   53MOL   H39124415   7.714   5.041   3.575 -0.0579 -0.8358 -0.6616
   53MOL   H39224416   7.858   4.866   3.479  0.7460 -1.3260  0.2226
   53MOL   O39324417   7.594   5.335   3.803  0.6534  0.3579  0.4391
   53MOL   C39424418   7.691   5.444   3.796  0.7915  0.1898  0.4016
   53MOL   C39524419   7.710   5.515   3.659 -0.2766 -0.0653 -0.2414
   53MOL   O39624420   7.770   5.419   3.568  0.2705 -0.2175 -0.0617
   53MOL   C39724421   7.781   5.456   3.435 -0.5690 -0.0580  0.7617
   53MOL   O39824422   7.760   5.568   3.400  0.1386  0.0229  0.1516
   53MOL   C39924423   7.834   5.344   3.344  0.6830  0.2105 -0.1758
   53MOL   C40024424   7.875   5.219   3.393  0.1909  0.4590  0.4337
   53MOL   C40124425   7.926   5.116   3.308  0.9765 -0.3469  0.0087
   53MOL   C40224426   7.934   5.140   3.176 -0.4361  0.0423 -0.7951
   53MOL   C40324427   7.994   5.029   3.090  0.8341 -0.5437 -0.8483
   53MOL   O40424428   8.019   4.914   3.131 -0.2870 -0.2292  0.3449
   53MOL   O40524429   8.019   5.071   2.965  0.7916  0.2856 -0.0192
   53MOL   C40624430   7.886   5.259   3.124 -0.5075 -0.0561  0.4537
   53MOL   C40724431   7.837   5.361   3.206 -0.4239 -0.5472 -0.5390
   53MOL   H40824432   7.639   5.521   3.854 -1.3171 -0.9992  0.1446
   53MOL   H40924433   7.789   5.424   3.839  1.0295  2.1717  0.8286
   53MOL   H41024434   7.775   5.602   3.671 -0.2609  0.0151 -0.8915
   53MOL   H41124435   7.620   5.565   3.622  0.6156  0.1689 -2.1356
   53MOL   H41224436   7.855   5.195   3.496 -1.4889  0.0433  0.0304
   53MOL   H41324437   7.934   5.015   3.346 -1.5534 -0.5187  0.1228
   53MOL   H41424438   7.905   5.282   3.020  1.5723 -1.1790  0.5483
   53MOL   H41524439   7.820   5.459   3.165  3.4247  0.5386  0.2418
   53MOL   O41624440   8.098   4.972   2.888 -0.3178 -0.2946 -0.2105
   53MOL   C41724441   8.233   5.005   2.869  0.1784  0.1124  0.4856
   53MOL   C41824442   0.051   4.949   2.973 -0.2074 -0.2708  0.9826
   53MOL   O41924443   0.055   5.035   3.092 -0.3056  0.8247  0.2648
   53MOL   C42024444   0.099   4.982   3.213  0.0846  0.0062  0.5817
   53MOL   O42124445   0.145   4.869   3.223 -0.7432  0.5242 -1.2166
   53MOL   C42224446   0.051   5.059   3.326  0.4232 -0.4977  0.0725
   53MOL   C42324447   0.009   5.193   3.301 -0.5770 -0.3595  0.3558
   53MOL   C42424448   8.222   5.261   3.408  0.4822 -0.1572  0.0617
   53MOL   C42524449   8.194   5.187   3.528 -0.2220 -0.4217  0.0399
   53MOL   C42624450   8.122   5.256   3.634  0.4031  0.7277  0.3112
   53MOL   O42724451   8.119   5.212   3.750  0.2343 -0.1693 -0.7728
   53MOL   O42824452   8.063   5.374   3.594 -0.0560  0.2521  0.0432
   53MOL   C42924453   8.234   5.056   3.553 -0.1582  0.3267  0.0847
   53MOL   C43024454   0.031   4.990   3.452  0.0695  0.2075 -0.1821
   53MOL   H43124455   0.005   4.967   2.779 -1.3037 -0.1280 -0.1985
   53MOL   H43224456   8.253   5.112   2.854  1.4510 -0.1439  0.3243
   53MOL   H43324457   0.155   4.951   2.941  0.5773 -1.6506  3.3253
   53MOL   H43424458   0.033   4.844   2.996 -0.4562 -0.2785  0.7500
   53MOL   H43524459   0.035   5.243   3.209 -2.0760  0.1890  0.2087
   53MOL   H43624460   8.194   5.365   3.397  0.9279 -0.0789 -0.3328
   53MOL   H43724461   8.215   4.999   3.642  0.2767 -0.3369 -0.2449
   53MOL   H43824462   0.064   4.887   3.459 -0.8898  0.0119  1.6909
   53MOL   O43924463   8.010   5.458   3.704  0.5110  0.1567 -0.2419
   53MOL   C44024464   8.092   5.577   3.719  0.1993 -0.2120  0.7426
   53MOL   C44124465   8.084   5.650   3.588 -0.2346  0.9009  0.7324
   53MOL   O44224466   8.174   5.599   3.485  0.1214 -0.3371 -0.0705
   53MOL   C44324467   0.020   5.655   3.461 -0.4217  0.0802  0.1983
   53MOL   O44424468   0.068   5.736   3.535  0.1095  0.0584 -0.5141
   53MOL   C44524469   0.081   5.598   3.335  0.0518 -0.8631 -0.4302
   53MOL   C44624470   0.218   5.586   3.317 -0.4274  0.2412 -0.4741
   53MOL   C44724471   0.271   5.523   3.196 -0.9453  0.2054  0.1298
   53MOL   C44824472   0.182   5.472   3.100 -0.0986 -0.2496  0.0299
   53MOL   C44924473   0.220   5.390   2.980  0.3664 -0.1227  0.2191
   53MOL   O45024474   0.155   5.291   2.948 -0.2490 -0.2366  0.7648
   53MOL   O45124475   0.332   5.436   2.912  0.2239  0.3538  0.2940
   53MOL   C45224476   0.046   5.494   3.119  0.0164 -0.6954 -0.1789
   53MOL   C45324477   8.269   5.552   3.233 -0.3513 -0.4984  0.0543
   53MOL   H45424478   8.059   5.648   3.795  1.0517  1.0633 -0.0585
   53MOL   H45524479   8.196   5.549   3.734  0.3997  0.0166 -0.1728
   53MOL   H45624480   8.105   5.756   3.606 -1.3280  1.5406 -1.5253
   53MOL   H45724481   7.984   5.648   3.545  0.3729  0.2815 -0.6946
   53MOL   H45824482   0.278   5.629   3.395 -2.1919  0.7752  0.6218
   53MOL   H45924483   0.379   5.523   3.190 -0.9997 -0.4397 -1.0739
   53MOL   H46024484   8.256   5.457   3.042 -0.1756 -2.9949  1.0585
   53MOL   H46124485   8.164   5.567   3.254 -0.2884  1.6344 -1.0641
   53MOL   H46224486   0.345   5.362   2.854  2.6871 -1.0255  2.4401
   54MOL     O124487   7.172   7.361   0.230  0.1757  0.6518 -0.0986
   54MOL     C224488   7.196   7.299   0.106  0.3272  0.5062 -0.2374
   54MOL     C324489   7.295   7.184   0.116  0.1773 -0.1287 -0.2150
   54MOL     O424490   7.326   7.140   8.261 -0.6395 -0.2622  0.0628
   54MOL     C524491   7.430   7.199   8.196 -0.3856  0.2265 -0.0929
   54MOL     O624492   7.494   7.299   8.233  0.3495 -0.0849 -0.5346
   54MOL     C724493   7.459   7.134   8.064  0.4187 -1.3479 -0.8900
   54MOL     C824494   7.514   7.214   7.955  1.1925 -0.2100 -0.3152
   54MOL     C924495   7.522   7.167   7.822 -0.3572  0.7344  0.0300
   54MOL    C1024496   7.480   7.037   7.797 -0.5042 -0.0825  0.8822
   54MOL    C1124497   7.489   6.984   7.661 -0.1004 -0.1734  0.1770
   54MOL    O1224498   7.432   6.880   7.626 -0.2910  0.8826  0.1673
   54MOL    O1324499   7.578   7.050   7.582 -0.5468 -0.0070  0.1522
   54MOL    C1424500   7.425   6.961   7.904  0.8172 -0.7487  0.1302
   54MOL    C1524501   7.416   7.005   8.041  0.2401 -0.2049 -0.2963
   54MOL    H1624502   7.107   7.260   0.057 -0.7140  2.5606 -0.0734
   54MOL    H1724503   7.240   7.375   0.041  1.8440 -0.6685 -0.6035
   54MOL    H1824504   7.254   7.109   0.185 -2.0909  1.4349  0.1765
   54MOL    H1924505   7.389   7.221   0.157 -0.2865  1.6085 -0.6884
   54MOL    H2024506   7.549   7.315   7.976 -1.9114  0.7738  0.4096
   54MOL    H2124507   7.552   7.238   7.746  1.5705 -2.4397 -2.3210
   54MOL    H2224508   7.378   6.866   7.881  1.7548 -0.6251 -2.4774
   54MOL    H2324509   7.366   6.958   8.123 -0.8954  1.4811  0.0131
   54MOL    H2424510   7.252   7.379   0.277  1.1692 -1.4152 -0.9611
   54MOL    O2524511   7.580   6.990   7.438 -0.3471 -0.0431 -0.1887
   54MOL    C2624512   7.569   7.094   7.338  0.1946  0.0343  0.1691
   54MOL    C2724513   7.431   7.149   7.337 -0.2509  0.0477  0.2448
   54MOL    O2824514   7.339   7.042   7.326 -0.3205 -0.0342 -0.3925
   54MOL    C2924515   7.302   7.006   7.208  0.2345  1.2497  0.4658
   54MOL    O3024516   7.315   7.074   7.102  0.9661 -0.3384 -0.1601
   54MOL    C3124517   7.251   6.867   7.205 -0.4144  1.0255 -0.3786
   54MOL    C3224518   7.276   6.778   7.312 -0.3515 -0.3473 -0.0754
   54MOL    C3324519   7.234   6.646   7.313  0.1881  1.2743  0.1388
   54MOL    C3424520   7.164   6.589   7.204  0.8589 -0.7464  0.2033
   54MOL    C3524521   7.117   6.446   7.189 -0.3986  0.8006  0.5711
   54MOL    O3624522   7.066   6.408   7.086 -0.1372  0.0317  0.1559
   54MOL    O3724523   7.130   6.363   7.296 -0.3261 -0.3562  0.4357
   54MOL    C3824524   7.132   6.686   7.102 -0.6144 -0.1946  0.4661
   54MOL    C3924525   7.175   6.821   7.098 -0.1022  0.2511 -0.4204
   54MOL    H4024526   7.633   7.182   7.350  0.4112 -0.2826  1.4689
   54MOL    H4124527   7.601   7.062   7.239  0.0426 -1.2353  0.5298
   54MOL    H4224528   7.414   7.228   7.263  0.7957  0.3830  0.3639
   54MOL    H4324529   7.400   7.202   7.427  1.0412  0.4110  0.4818
   54MOL    H4424530   7.332   6.824   7.392 -0.0387 -1.0204  0.0967
   54MOL    H4524531   7.261   6.575   7.390 -1.9260 -0.9782 -1.1160
   54MOL    H4624532   7.075   6.662   7.013  0.0963  0.6601 -0.2247
   54MOL    H4724533   7.154   6.890   7.017  0.1655 -1.1690 -1.7199
   54MOL    O4824534   7.119   6.217   7.268 -0.0884 -1.0021  0.6258
   54MOL    C4924535   7.240   6.157   7.307  0.6931 -0.3582 -0.2651
   54MOL    C5024536   7.246   6.008   7.299 -0.1220 -0.0391  0.4841
   54MOL    O5124537   7.360   5.966   7.370  0.0687  0.0077  0.7138
   54MOL    C5224538   7.477   5.952   7.305  0.0272  0.2014 -0.1695
   54MOL    O5324539   7.503   5.981   7.188 -0.0705  0.5982  0.0676
   54MOL    C5424540   7.580   5.875   7.383 -0.3652 -0.3825  0.2963
   54MOL    C5524541   7.699   5.850   7.311  0.0330  0.1388 -0.4103
   54MOL    C5624542   7.798   5.782   7.381  0.0575  0.7000 -0.0279
   54MOL    C5724543   7.779   5.723   7.509  0.5063  0.2506  0.3410
   54MOL    C5824544   7.887   5.649   7.571 -0.3909  0.7779  0.3546
   54MOL    O5924545   7.981   5.598   7.513 -0.4595 -0.1026  0.4074
   54MOL    O6024546   7.868   5.637   7.696  0.0543 -0.1587  0.7754
   54MOL    C6124547   7.653   5.729   7.569 -0.1525  0.5556 -0.1216
   54MOL    C6224548   7.550   5.805   7.503 -0.2210  0.5750  0.2509
   54MOL    H6324549   7.322   6.193   7.245  1.8691 -0.7694  1.0023
   54MOL    H6424550   7.264   6.201   7.405 -1.7527 -0.5677  0.4516
   54MOL    H6524551   7.251   5.972   7.196 -1.5330  2.2635 -0.4385
   54MOL    H6624552   7.156   5.973   7.351 -1.5836  2.1653 -0.4812
   54MOL    H6724553   7.724   5.898   7.217 -0.1101  0.7447 -0.1415
   54MOL    H6824554   7.896   5.788   7.336  1.2325  2.0644  2.5704
   54MOL    H6924555   7.630   5.687   7.665  0.2943  1.1998  0.2716
   54MOL    H7024556   7.459   5.830   7.556  0.3197 -0.1800  1.5564
   54MOL    O7124557   7.993   5.598   7.774  0.1337  0.1013 -0.2151
   54MOL    C7224558   7.986   5.460   7.810  0.1193 -0.3225  0.1115
   54MOL    C7324559   7.885   5.441   7.923 -0.1940  0.6439  0.2578
   54MOL    O7424560   7.764   5.410   7.867 -0.0360  0.0597  0.0510
   54MOL    C7524561   7.726   5.286   7.847 -0.6694 -0.3800  0.3883
   54MOL    O7624562   7.801   5.190   7.852  0.6164 -0.1302 -0.4960
   54MOL    C7724563   7.581   5.278   7.806  0.7932 -0.3767 -0.5074
   54MOL    C7824564   7.507   5.397   7.761 -0.1525  0.8659 -0.6940
   54MOL    C7924565   7.374   5.387   7.716  0.4088  0.5301  0.0942
   54MOL    C8024566   7.307   5.262   7.711  0.0315 -0.3129 -0.7163
   54MOL    C8124567   7.160   5.253   7.677  0.5490  0.2978  0.4472
   54MOL    O8224568   7.096   5.148   7.697  0.0862 -0.5669 -0.1974
   54MOL    O8324569   7.104   5.375   7.644 -0.1526  0.7842  0.2530
   54MOL    C8424570   7.375   5.152   7.766 -0.1589  0.1395 -0.0499
   54MOL    C8524571   7.512   5.154   7.808  0.0527 -0.0568  0.3592
   54MOL    H8624572   7.967   5.393   7.726  0.1161 -0.2883  0.0843
   54MOL    H8724573   8.088   5.440   7.844  0.6960  1.6961 -0.3407
   54MOL    H8824574   7.897   5.530   7.984  0.8760 -0.1481  1.2132
   54MOL    H8924575   7.906   5.358   7.990 -1.6133  0.8848  1.0077
   54MOL    H9024576   7.553   5.495   7.757 -1.5186  1.5501  0.1383
   54MOL    H9124577   7.324   5.479   7.688 -0.6633  0.0766  0.4824
   54MOL    H9224578   7.315   5.065   7.791  2.1684 -0.8474  2.3385
   54MOL    H9324579   7.558   5.061   7.838 -0.5712 -0.8362 -1.0532
   54MOL    O9424580   6.954   5.364   7.632  0.1043 -0.5207 -0.4567
   54MOL    C9524581   6.906   5.429   7.748  0.2276  0.6125  0.6187
   54MOL    C9624582   6.756   5.438   7.753  0.3284 -0.1714  0.6385
   54MOL    O9724583   6.709   5.557   7.695 -0.0080 -0.7431  0.0845
   54MOL    C9824584   6.692   5.569   7.557  0.0271 -0.3361  0.1153
   54MOL    O9924585   6.715   5.474   7.483  0.7937  0.0236  0.0789
   54MOL   C10024586   6.634   5.693   7.514 -0.0195 -0.0377 -0.4063
   54MOL   C10124587   6.580   5.790   7.608  0.8104  0.8457  0.3400
   54MOL   C10224588   6.511   5.903   7.558 -0.4174 -0.2561  0.3386
   54MOL   C10324589   6.490   5.922   7.420  0.0448  0.2163  0.3929
   54MOL   C10424590   6.417   6.044   7.371 -0.3394  0.5276 -0.2716
   54MOL   O10524591   6.369   6.129   7.446 -0.3682  0.2024  0.3631
   54MOL   O10624592   6.401   6.051   7.238 -0.0265  0.0838 -0.0184
   54MOL   C10724593   6.552   5.830   7.330 -0.0293 -0.0700 -0.3085
   54MOL   C10824594   6.630   5.722   7.377  0.0353 -0.1667  0.5419
   54MOL   H10924595   6.947   5.378   7.835 -1.8314 -2.3487 -0.0523
   54MOL   H11024596   6.953   5.527   7.752  0.8123  0.3723 -0.2816
   54MOL   H11124597   6.732   5.448   7.859  1.8173 -0.7928  1.0477
   54MOL   H11224598   6.708   5.348   7.716 -2.7551  1.5914  0.2389
   54MOL   H11324599   6.576   5.777   7.715 -2.2002  0.9498  0.2881
   54MOL   H11424600   6.472   5.969   7.634  0.9170 -0.1843  0.9795
   54MOL   H11524601   6.537   5.845   7.224  0.2323 -2.5401 -0.7257
   54MOL   H11624602   6.662   5.650   7.303 -1.4595 -0.4952  0.1837
   54MOL   O11724603   6.316   6.163   7.197 -1.4962  0.0412 -0.3129
   54MOL   C11824604   6.401   6.260   7.144  0.0313  0.1141 -0.1352
   54MOL   C11924605   6.315   6.379   7.120  0.5843  0.2140 -0.8766
   54MOL   O12024606   6.266   6.393   6.987  0.5008  0.1612  1.1831
   54MOL   C12124607   6.149   6.343   6.944  0.4552  0.0243 -0.1996
   54MOL   O12224608   6.092   6.254   7.004  0.0271  0.2469  0.0358
   54MOL   C12324609   6.087   6.401   6.827  0.2883  0.1840 -0.0344
   54MOL   C12424610   6.155   6.499   6.755  0.0369  0.1992  0.2719
   54MOL   C12524611   6.107   6.545   6.634  0.3732  0.1322 -0.3149
   54MOL   C12624612   5.982   6.509   6.589  0.5794 -0.4962  0.4703
   54MOL   C12724613   5.922   6.573   6.471 -0.4120  0.2069 -0.3275
   54MOL   O12824614   5.952   6.685   6.432 -0.5672 -0.2662  0.7912
   54MOL   O12924615   5.838   6.493   6.406  0.6409  0.4251  0.4338
   54MOL   C13024616   5.918   6.403   6.657 -0.1085 -0.6883  0.0014
   54MOL   C13124617   5.972   6.342   6.767 -0.2271 -0.2265 -0.2447
   54MOL   H13224618   6.477   6.279   7.220  1.3506  2.2058 -1.9005
   54MOL   H13324619   6.454   6.225   7.055 -2.6863 -2.7869 -0.6719
   54MOL   H13424620   6.377   6.465   7.145  0.5365  0.2359 -0.8321
   54MOL   H13524621   6.224   6.382   7.181  0.4002  0.5462 -1.1611
   54MOL   H13624622   6.248   6.540   6.791  0.5397 -0.5859 -0.1129
   54MOL   H13724623   6.157   6.620   6.574 -0.6461  2.1446  1.2503
   54MOL   H13824624   5.823   6.376   6.614 -0.1042 -1.1096  0.2572
   54MOL   H13924625   5.922   6.262   6.820  0.7479 -0.2887  0.5962
   54MOL   O14024626   5.816   6.546   6.266  0.1683 -0.1190 -0.3725
   54MOL   C14124627   5.684   6.591   6.250  0.1388  0.2937 -0.6758
   54MOL   C14224628   5.681   6.662   6.115 -0.5583  0.3230 -0.5752
   54MOL   O14324629   5.751   6.780   6.114  0.5068  0.1086  0.2073
   54MOL   C14424630   5.711   6.875   6.032 -0.1382  0.7639  0.0806
   54MOL   O14524631   5.602   6.878   5.969  0.0940 -0.0557  0.2988
   54MOL   C14624632   5.819   6.977   6.018 -0.2803  0.5052 -0.1488
   54MOL   C14724633   5.803   7.068   5.914  0.6422 -0.2571  0.1581
   54MOL   C14824634   5.909   7.163   5.879  0.1672  0.0292 -0.0525
   54MOL   C14924635   6.031   7.161   5.952  0.1787 -0.0641 -0.3246
   54MOL   C15024636   6.149   7.234   5.899 -0.6389 -0.6007 -0.0685
   54MOL   O15124637   6.258   7.227   5.955  0.2937 -0.0875 -0.5318
   54MOL   O15224638   6.132   7.309   5.790  0.3116 -0.3804  0.0160
   54MOL   C15324639   6.037   7.080   6.068 -0.0605  0.0895  0.3144
   54MOL   C15424640   5.934   6.986   6.103 -0.2025 -0.5240  0.0031
   54MOL   H15524641   5.621   6.502   6.243  2.8317 -2.0854  3.0794
   54MOL   H15624642   5.639   6.654   6.327 -1.4045 -0.5621 -0.8534
   54MOL   H15724643   5.580   6.684   6.081 -1.0393 -1.5741 -0.4454
   54MOL   H15824644   5.727   6.605   6.034  1.1925  0.9871 -0.0624
   54MOL   H15924645   5.719   7.065   5.847  1.5138 -0.8756 -0.9120
   54MOL   H16024646   5.892   7.227   5.794  1.0521 -1.4169 -1.3433
   54MOL   H16124647   6.129   7.074   6.124  0.8009 -0.6722 -1.1384
   54MOL   H16224648   5.948   6.933   6.196  2.3608 -3.0370 -1.7396
   54MOL   O16324649   6.256   7.351   5.720  0.1640  0.0819 -0.4306
   54MOL   C16424650   6.264   7.491   5.709  0.7147  0.2860 -0.5710
   54MOL   C16524651   6.135   7.546   5.642  0.5212  0.0753  0.3035
   54MOL   O16624652   6.022   7.570   5.733  0.1767 -0.1705  0.1504
   54MOL   C16724653   6.018   7.680   5.811 -0.0454 -0.2055 -0.2709
   54MOL   O16824654   6.089   7.782   5.801  0.1453 -0.0776 -0.2786
   54MOL   C16924655   5.905   7.675   5.913  0.4236  0.1997  0.0534
   54MOL   C17024656   5.861   7.554   5.959 -0.1388 -0.4355  0.1007
   54MOL   C17124657   5.752   7.552   6.046 -0.0714 -0.1627  1.1089
   54MOL   C17224658   5.690   7.666   6.091  0.3909 -0.3155  0.1438
   54MOL   C17324659   5.590   7.650   6.210  0.5089 -0.5383 -0.3846
   54MOL   O17424660   5.549   7.544   6.251  0.2713  0.9033  0.4438
   54MOL   O17524661   5.554   7.775   6.260 -0.7164 -0.8039 -0.0415
   54MOL   C17624662   5.726   7.790   6.034 -0.4488  1.0430 -0.0120
   54MOL   C17724663   5.836   7.793   5.946  0.2852  0.0217 -0.0502
   54MOL   H17824664   6.276   7.534   5.809  0.0126 -0.6375 -0.0832
   54MOL   H17924665   6.331   7.518   5.627 -1.1138 -0.9112 -2.5081
   54MOL   H18024666   6.094   7.471   5.573 -2.7499  1.3185  0.8063
   54MOL   H18124667   6.144   7.638   5.585  0.0717  0.7196  1.2508
   54MOL   H18224668   5.925   7.468   5.945  0.6813  0.4159 -1.5406
   54MOL   H18324669   5.728   7.452   6.079  0.1075 -1.4157 -2.3766
   54MOL   H18424670   5.679   7.884   6.059  0.9521  1.4351  1.2708
   54MOL   H18524671   5.871   7.883   5.898  0.5707 -0.5575 -0.9703
   54MOL   O18624672   5.472   7.774   6.394  0.4145  0.7229 -0.1364
   54MOL   C18724673   5.557   7.788   6.506 -0.2449 -0.0498  0.7698
   54MOL   C18824674   5.476   7.789   6.636  0.1087  0.1508  0.4040
   54MOL   O18924675   5.422   7.664   6.656 -0.2353  0.4699 -0.3079
   54MOL   C19024676   5.446   7.585   6.756 -0.2349 -0.6328  0.0242
   54MOL   O19124677   5.528   7.617   6.841 -0.0093  0.2532  0.1024
   54MOL   C19224678   5.380   7.450   6.734  0.0189  0.1480 -0.1681
   54MOL   C19324679   5.333   7.408   6.609 -0.0018 -0.6395  0.3060
   54MOL   C19424680   5.305   7.271   6.582  0.2624 -0.3015 -0.2246
   54MOL   C19524681   5.305   7.170   6.682  0.3746  0.1680 -0.4958
   54MOL   C19624682   5.275   7.029   6.649 -0.0058 -0.1920 -0.4463
   54MOL   O19724683   5.237   6.996   6.534  0.4703 -1.0610 -0.2525
   54MOL   O19824684   5.298   6.947   6.755 -0.3659 -0.2288  0.3853
   54MOL   C19924685   5.347   7.212   6.809  0.6630  0.1056  0.9540
   54MOL   C20024686   5.383   7.350   6.838 -0.7910 -0.0080  0.5230
   54MOL   H20124687   5.617   7.697   6.505 -1.3402 -0.7747 -1.0064
   54MOL   H20224688   5.615   7.880   6.496 -1.3766  0.7171  1.0800
   54MOL   H20324689   5.399   7.866   6.645  2.7442  3.0314 -0.6210
   54MOL   H20424690   5.547   7.808   6.717 -0.5029 -1.7892  1.4367
   54MOL   H20524691   5.326   7.484   6.532  0.4690 -0.5712  0.3277
   54MOL   H20624692   5.281   7.239   6.482 -2.5820 -0.2887  0.4216
   54MOL   H20724693   5.348   7.146   6.894 -1.0005 -0.4002  0.5995
   54MOL   H20824694   5.418   7.391   6.932 -1.0882  0.2980  0.5005
   54MOL   O20924695   5.304   6.803   6.723  0.3680 -0.3966 -0.7798
   54MOL   C21024696   5.181   6.750   6.778 -0.0425 -0.4911  0.6176
   54MOL   C21124697   5.216   6.603   6.828 -0.2919 -0.1232  0.0252
   54MOL   O21224698   5.292   6.617   6.949 -0.1930 -0.0315 -0.2937
   54MOL   C21324699   5.300   6.529   7.052 -0.2142  0.5418  0.3554
   54MOL   O21424700   5.273   6.408   7.047 -0.0693 -0.5663  0.3035
   54MOL   C21524701   5.364   6.593   7.171  0.2982  0.1617 -0.6601
   54MOL   C21624702   5.375   6.517   7.293 -0.0694  0.5988 -0.4685
   54MOL   C21724703   5.430   6.570   7.410 -0.5151 -0.1220 -0.7432
   54MOL   C21824704   5.485   6.703   7.405 -0.0988  0.6945  0.2213
   54MOL   C21924705   5.553   6.758   7.526  0.0277  0.3645 -0.3208
   54MOL   O22024706   5.609   6.869   7.525  0.6512  0.6221  0.3956
   54MOL   O22124707   5.552   6.674   7.633 -0.0729 -0.0096  0.4696
   54MOL   C22224708   5.487   6.779   7.282  0.1331  0.0696 -0.2490
   54MOL   C22324709   5.425   6.722   7.172  0.1733 -0.5127 -0.3632
   54MOL   H22424710   5.141   6.810   6.859  0.7419  0.3956  0.3547
   54MOL   H22524711   5.103   6.742   6.701 -0.7517 -1.3596  1.4149
   54MOL   H22624712   5.268   6.536   6.759 -1.1305 -1.3836  0.6118
   54MOL   H22724713   5.128   6.545   6.855 -1.4636  0.8124 -1.6895
   54MOL   H22824714   5.335   6.419   7.310 -0.6604  1.2428  2.1109
   54MOL   H22924715   5.424   6.508   7.498  1.6053 -1.2032 -1.3297
   54MOL   H23024716   5.548   6.867   7.264  1.2165 -0.5166  0.4819
   54MOL   H23124717   5.422   6.787   7.085 -1.4295  2.1921  1.6331
   54MOL   O23224718   5.671   6.696   7.722  0.7963 -0.3428 -0.1252
   54MOL   C23324719   5.645   6.794   7.820  0.1336  0.0066  0.7260
   54MOL   C23424720   5.770   6.797   7.913 -0.0373  0.0735  0.2718
   54MOL   O23524721   5.750   6.864   8.039 -0.7848 -0.0265  0.2184
   54MOL   C23624722   5.688   6.796   8.140 -0.1338 -0.2528  0.1219
   54MOL   O23724723   5.642   6.684   8.123 -0.0203 -0.0849  0.5744
   54MOL   C23824724   5.663   6.887   8.260 -0.5447  0.0234 -0.5660
   54MOL   C23924725   5.565   6.844   0.086 -0.6203 -0.4073 -0.5162
   54MOL   C24024726   5.544   6.921   0.198 -0.6349  0.1864  0.5561
   54MOL   C24124727   5.612   7.045   0.216  0.1973  0.4957  0.4597
   54MOL   C24224728   5.592   7.123   0.337 -0.2678 -0.4071 -0.3463
   54MOL   O24324729   5.667   7.207   0.381 -0.5914 -0.1494  0.5515
   54MOL   O24424730   5.480   7.095   0.395 -0.1602 -0.1657 -0.3019
   54MOL   C24524731   5.709   7.081   0.123 -0.6302  0.2640 -0.0940
   54MOL   C24624732   5.739   7.002   0.009 -0.5545 -0.0252 -0.4089
   54MOL   H24724733   5.620   6.892   7.781  3.5985  1.2436  1.4486
   54MOL   H24824734   5.554   6.766   7.874 -0.3228 -3.0218 -1.5098
   54MOL   H24924735   5.854   6.839   7.858 -1.6503  1.9675 -0.7903
   54MOL   H25024736   5.806   6.696   7.932 -2.1568 -1.1033 -1.7329
   54MOL   H25124737   5.507   6.753   0.079 -0.3945 -0.9102  3.3269
   54MOL   H25224738   5.462   6.895   0.263  0.4383 -0.5024  1.6486
   54MOL   H25324739   5.748   7.180   0.140 -1.4761  0.3476  1.4123
   54MOL   H25424740   5.809   7.030   8.207 -0.4005  1.5968  0.2840
   54MOL   O25524741   5.456   7.177   0.514 -0.2996 -0.3696  0.0099
   54MOL   C25624742   5.461   7.100   0.632  0.8498  0.0602  0.0797
   54MOL   C25724743   5.391   7.164   0.750 -0.3687 -0.3295  0.0647
   54MOL   O25824744   5.255   7.176   0.721 -0.1047  0.5518  0.7256
   54MOL   C25924745   5.192   7.295   0.709 -0.0387 -0.1717  0.2442
   54MOL   O26024746   5.245   7.407   0.701 -0.2409  0.3230  0.3014
   54MOL   C26124747   5.050   7.273   0.677  0.5739 -0.4125  0.1653
   54MOL   C26224748   4.982   7.367   0.596 -0.0152 -0.5300 -0.2103
   54MOL   C26324749   4.847   7.349   0.569  0.7618 -0.5143  0.2136
   54MOL   C26424750   4.783   7.237   0.616  0.3043 -0.3056 -0.2906
   54MOL   C26524751   4.636   7.241   0.600 -0.3122 -0.2331  0.1266
   54MOL   O26624752   4.577   7.310   0.517 -0.6238  0.3391  0.3914
   54MOL   O26724753   4.576   7.150   0.680  0.5155 -0.3608  0.0988
   54MOL   C26824754   4.852   7.132   0.683  0.1518 -0.2526  0.6660
   54MOL   C26924755   4.988   7.149   0.708  0.2759  0.6789 -0.2150
   54MOL   H27024756   5.416   7.002   0.614  2.1091 -0.1039 -2.2579
   54MOL   H27124757   5.565   7.083   0.657  1.4617  0.7764 -1.8746
   54MOL   H27224758   5.431   7.264   0.767 -0.3925 -0.3876  0.4500
   54MOL   H27324759   5.412   7.119   0.846 -0.5846 -0.7884 -0.1010
   54MOL   H27424760   5.029   7.452   0.548 -1.9381 -0.1225 -1.4304
   54MOL   H27524761   4.803   7.437   0.523 -0.5828 -0.7834  0.9751
   54MOL   H27624762   4.806   7.041   0.719  0.6536 -1.2887 -1.2337
   54MOL   H27724763   5.043   7.075   0.765 -0.0520 -0.0234 -0.7957
   54MOL   O27824764   4.428   7.152   0.665  0.0788  0.1184  0.0142
   54MOL   C27924765   4.384   7.052   0.573  0.2342  0.9048 -0.5516
   54MOL   C28024766   4.234   7.051   0.582  0.0193  0.0845  0.2183
   54MOL   O28124767   4.181   7.101   0.462  0.1496  0.4071 -0.1493
   54MOL   C28224768   4.133   7.222   0.449  1.0047 -0.1903  0.6413
   54MOL   O28324769   4.119   7.301   0.543 -0.0422 -0.5066  0.0435
   54MOL   C28424770   4.095   7.261   0.303 -0.2507 -0.2046 -0.8716
   54MOL   C28524771   4.023   7.382   0.286  0.8521  0.7768 -0.3706
   54MOL   C28624772   3.981   7.413   0.154  0.1983  0.3649 -0.0036
   54MOL   C28724773   4.006   7.337   0.042  0.3018  0.3759 -0.1088
   54MOL   C28824774   3.964   7.381   8.181  0.1894  0.2750  0.5226
   54MOL   O28924775   3.895   7.480   8.157 -0.0627  0.7924  0.8769
   54MOL   O29024776   3.986   7.291   8.087  0.4342  0.2354  0.0113
   54MOL   C29124777   4.077   7.221   0.061 -0.3311 -0.1888 -0.6311
   54MOL   C29224778   4.120   7.181   0.189 -0.6287 -0.7112 -0.0428
   54MOL   H29324779   4.418   7.085   0.475  2.0813  0.9843  0.1080
   54MOL   H29424780   4.423   6.956   0.605 -1.1812  0.6990  0.6627
   54MOL   H29524781   4.179   7.109   0.657 -0.1070  0.6056 -0.2770
   54MOL   H29624782   4.203   6.946   0.589 -0.9649  0.3125 -0.7330
   54MOL   H29724783   4.016   7.447   0.372 -1.1256  1.9644 -1.3956
   54MOL   H29824784   3.923   7.504   0.139 -1.5702 -0.8440 -0.6584
   54MOL   H29924785   4.101   7.160   8.250 -1.4391 -0.8834 -0.4606
   54MOL   H30024786   4.179   7.095   0.217  2.2020  1.3939  0.7935
   54MOL   O30124787   3.899   7.305   7.968 -0.2798  0.8638 -0.1858
   54MOL   C30224788   3.781   7.225   7.991 -0.1895  0.4383 -0.9742
   54MOL   C30324789   3.677   7.306   8.062  0.0101 -0.1268  0.3929
   54MOL   O30424790   3.542   7.273   8.018 -0.2708 -0.2434 -1.0924
   54MOL   C30524791   3.435   7.338   8.078  0.0643  0.1042  0.9093
   54MOL   O30624792   3.439   7.415   8.170 -0.6672  0.0633 -0.4382
   54MOL   C30724793   3.308   7.297   8.015 -0.0532  0.1362  0.4554
   54MOL   C30824794   3.196   7.379   8.019  0.4443  0.4531 -0.2689
   54MOL   C30924795   3.076   7.335   7.965  1.0723 -0.2463 -0.2344
   54MOL   C31024796   3.059   7.216   7.896  0.1769  0.3546 -0.0991
   54MOL   C31124797   2.939   7.179   7.828  0.0225  0.0321 -0.2333
   54MOL   O31224798   2.925   7.067   7.783 -0.0034  0.0837  0.4940
   54MOL   O31324799   2.851   7.280   7.822  0.4283 -0.2958 -0.3004
   54MOL   C31424800   3.178   7.141   7.884 -0.2173 -0.8994 -0.2954
   54MOL   C31524801   3.303   7.180   7.941 -0.1944  0.2744 -0.1769
   54MOL   H31624802   3.757   7.200   7.888  1.5834  1.8045 -1.7533
   54MOL   H31724803   3.798   7.130   8.041  3.6174  1.8527  0.6454
   54MOL   H31824804   3.693   7.413   8.048 -1.2523  0.4893  3.1536
   54MOL   H31924805   3.693   7.288   8.169  0.5847 -1.9049  0.0174
   54MOL   H32024806   3.211   7.472   8.072 -0.9436  1.8138 -2.1894
   54MOL   H32124807   2.995   7.406   7.975  1.7112  0.4398  0.1078
   54MOL   H32224808   3.165   7.048   7.831 -1.1582 -2.4469  2.5332
   54MOL   H32324809   3.389   7.118   7.918 -0.3720  0.9488 -2.8788
   54MOL   O32424810   2.716   7.241   7.767  0.4357  0.0261 -0.0610
   54MOL   C32524811   2.723   7.206   7.629  0.5271 -0.1347  0.4354
   54MOL   C32624812   2.589   7.141   7.587  0.1938  0.1745  0.0847
   54MOL   O32724813   2.563   7.149   7.448 -0.3372 -0.1198  0.4772
   54MOL   C32824814   2.446   7.198   7.407 -0.1566 -0.6611 -0.3119
   54MOL   O32924815   2.352   7.222   7.479  0.4625 -0.6988  0.0169
   54MOL   C33024816   2.452   7.226   7.258  0.3364  0.0474  0.6435
   54MOL   C33124817   2.577   7.246   7.194  0.1771 -0.3580  0.0323
   54MOL   C33224818   2.577   7.298   7.061  0.4506 -0.3717 -0.5004
   54MOL   C33324819   2.458   7.324   6.985  0.1584 -0.3179  0.1501
   54MOL   C33424820   2.463   7.366   6.839 -0.2312  0.2731  1.1268
   54MOL   O33524821   2.567   7.391   6.776 -0.1027  0.3207  0.2986
   54MOL   O33624822   2.339   7.374   6.787  0.5917 -0.3176  0.2823
   54MOL   C33724823   2.339   7.304   7.051 -0.0789  0.0226  0.2796
   54MOL   C33824824   2.334   7.251   7.187 -0.8635  0.1983 -0.2520
   54MOL   H33924825   2.738   7.296   7.569  0.2785 -1.3844 -1.5589
   54MOL   H34024826   2.795   7.133   7.591 -0.5413  0.7777 -3.5940
   54MOL   H34124827   2.505   7.176   7.647 -0.4372 -0.5558 -0.3571
   54MOL   H34224828   2.607   7.036   7.612  0.5708 -0.3224 -2.1206
   54MOL   H34324829   2.675   7.234   7.236 -0.1816 -1.0271  0.7013
   54MOL   H34424830   2.672   7.297   7.009  0.5771 -0.3407 -0.2711
   54MOL   H34524831   2.244   7.335   7.011  0.0465 -0.7489 -0.6359
   54MOL   H34624832   2.238   7.235   7.234 -1.1164 -0.5700 -1.0161
   54MOL   O34724833   2.317   7.438   6.655  0.2399  0.0031 -0.6652
   54MOL   C34824834   2.231   7.547   6.671  0.5442 -0.2803 -0.2949
   54MOL   C34924835   2.213   7.614   6.539  0.3636  0.5772 -0.3511
   54MOL   O35024836   2.098   7.697   6.527  0.2228  0.0195 -0.4831
   54MOL   C35124837   1.994   7.656   6.446 -0.0843 -0.3829 -0.4510
   54MOL   O35224838   1.998   7.571   6.356  0.3122  0.2129 -0.1394
   54MOL   C35324839   1.873   7.738   6.472  0.0708 -0.6213 -0.0843
   54MOL   C35424840   1.867   7.881   6.453 -1.4099  0.7938 -0.4586
   54MOL   C35524841   1.753   7.951   6.497  0.8209 -0.2443 -0.0580
   54MOL   C35624842   1.644   7.882   6.562  0.5122  0.5811 -0.4316
   54MOL   C35724843   1.535   7.962   6.612  0.5758 -0.2661  0.1787
   54MOL   O35824844   1.534   8.081   6.628  0.1854 -0.4639 -0.4706
   54MOL   O35924845   1.430   7.885   6.639  0.1057  0.2812  0.2584
   54MOL   C36024846   1.652   7.742   6.574 -0.2009 -0.5332  0.6113
   54MOL   C36124847   1.761   7.673   6.528 -0.2624  0.6798  0.4177
   54MOL   H36224848   2.136   7.513   6.713  1.8550 -2.7063  0.8872
   54MOL   H36324849   2.267   7.624   6.739 -1.0250  0.7696 -0.6378
   54MOL   H36424850   2.222   7.540   6.460  0.1031 -1.7955  1.7657
   54MOL   H36524851   2.300   7.680   6.532  0.5165  0.4190  0.0294
   54MOL   H36624852   1.946   7.939   6.406 -0.0600 -0.4485  0.2196
   54MOL   H36724853   1.750   8.058   6.485 -1.5281 -0.2092  0.5019
   54MOL   H36824854   1.570   7.687   6.617 -0.9981 -0.4000 -0.6967
   54MOL   H36924855   1.762   7.566   6.542 -0.0444  0.6396  0.1133
   54MOL   O37024856   1.317   7.951   6.709  0.0611 -0.3371 -0.3669
   54MOL   C37124857   1.324   7.943   6.845  0.1405  0.5724 -0.0496
   54MOL   C37224858   1.313   7.808   6.905  0.3662  0.2124  0.0121
   54MOL   O37324859   1.441   7.755   6.919 -0.8606 -0.1419  0.0721
   54MOL   C37424860   1.486   7.735   7.038 -0.6913  0.0796  0.4343
   54MOL   O37524861   1.430   7.739   7.146  0.0638 -0.0942 -0.3889
   54MOL   C37624862   1.639   7.728   7.039  0.1196  0.8894 -0.3126
   54MOL   C37724863   1.716   7.756   7.154 -0.5465  0.4733 -0.0261
   54MOL   C37824864   1.857   7.744   7.169 -0.3109  0.0663  0.1689
   54MOL   C37924865   1.922   7.695   7.053  0.2497 -0.0238  0.2950
   54MOL   C38024866   2.071   7.663   7.051  0.5796 -0.3031 -0.1591
   54MOL   O38124867   2.119   7.579   6.979  0.1440  0.1763  0.0157
   54MOL   O38224868   2.142   7.741   7.133 -0.1888  0.0376  0.0078
   54MOL   C38324869   1.847   7.666   6.939  1.0574  0.5198  0.7918
   54MOL   C38424870   1.709   7.681   6.927 -0.2683  0.2133  0.5516
   54MOL   H38524871   1.414   7.988   6.888 -0.5189  0.2018  1.7914
   54MOL   H38624872   1.246   8.009   6.883  0.5219  0.4878  0.9122
   54MOL   H38724873   1.259   7.742   6.837  1.7716 -0.6657 -0.2751
   54MOL   H38824874   1.257   7.801   6.997  1.0120  2.9958  0.6594
   54MOL   H38924875   1.656   7.777   7.241  2.4200 -1.0641  2.5265
   54MOL   H39024876   1.908   7.770   7.260  0.0308  3.6010 -0.9364
   54MOL   H39124877   1.900   7.628   6.854 -1.1581 -2.3488  0.6065
   54MOL   H39224878   1.660   7.643   6.838  0.0572 -0.9894  0.8694
   54MOL   O39324879   2.295   7.706   7.135 -0.0649 -0.1671  0.2725
   54MOL   C39424880   2.327   7.625   7.247  0.3195  0.2380 -0.4818
   54MOL   C39524881   2.472   7.577   7.243  0.7775  0.3638  0.3160
   54MOL   O39624882   2.557   7.684   7.286  0.5171 -0.6653 -0.0193
   54MOL   C39724883   2.575   7.716   7.414 -0.7300  0.4091 -0.6146
   54MOL   O39824884   2.520   7.650   7.504  0.3710 -0.2281  0.3621
   54MOL   C39924885   2.672   7.826   7.442  0.4290  0.1840  0.4301
   54MOL   C40024886   2.757   7.882   7.343  0.2365 -0.0668 -0.8661
   54MOL   C40124887   2.848   7.984   7.384  0.4385 -0.2502 -0.0050
   54MOL   C40224888   2.875   8.012   7.521  0.4257  0.6369  0.6701
   54MOL   C40324889   2.976   8.118   7.548  1.1438  0.1110  0.2196
   54MOL   O40424890   3.045   8.173   7.464 -0.1591 -0.4008  0.6776
   54MOL   O40524891   2.964   8.159   7.676 -0.9914  0.4307 -0.2310
   54MOL   C40624892   2.793   7.942   7.615  0.6228 -0.5624  0.0219
   54MOL   C40724893   2.689   7.851   7.574 -0.3898  0.3654  0.1941
   54MOL   H40824894   2.311   7.679   7.340  0.1347 -1.3065  0.4026
   54MOL   H40924895   2.261   7.538   7.249  2.1090 -1.1251  0.6090
   54MOL   H41024896   2.510   7.551   7.144  0.3559 -0.7946  0.4560
   54MOL   H41124897   2.482   7.490   7.308 -2.5024  0.7986  1.5274
   54MOL   H41224898   2.753   7.847   7.241 -1.5525 -1.1705 -0.4407
   54MOL   H41324899   2.921   8.028   7.317  1.5634 -2.2524 -0.1152
   54MOL   H41424900   2.798   7.959   7.721  0.7125 -1.0831  0.1042
   54MOL   H41524901   2.625   7.803   7.647 -0.8809 -2.0115 -1.7617
   54MOL   O41624902   3.019   0.022   7.691 -0.2464  0.2213  0.3090
   54MOL   C41724903   2.908   0.113   7.702  0.3718 -0.3759  0.1180
   54MOL   C41824904   2.820   0.086   7.833  0.3506  0.3544  0.3273
   54MOL   O41924905   2.735   8.247   7.821  0.2102  0.2866  0.1216
   54MOL   C42024906   2.617   8.246   7.750  0.3240 -0.4305  0.8855
   54MOL   O42124907   2.574   0.065   7.680 -0.8246 -0.9550 -0.1128
   54MOL   C42224908   2.546   8.117   7.767 -0.1038  0.1745  0.2979
   54MOL   C42324909   2.557   8.054   7.892  0.0091 -0.4784  0.2039
   54MOL   C42424910   2.484   7.934   7.917  0.2666  0.0011 -0.5618
   54MOL   C42524911   2.399   7.882   7.818 -0.0729 -0.1617 -0.6425
   54MOL   C42624912   2.315   7.768   7.851 -0.2746  0.1673  0.1470
   54MOL   O42724913   2.286   7.733   7.967 -0.3901  0.2618 -0.0210
   54MOL   O42824914   2.289   7.697   7.742 -0.1232  0.1313 -0.8277
   54MOL   C42924915   2.388   7.946   7.692 -0.1836 -0.1090 -0.2382
   54MOL   C43024916   2.467   8.059   7.665  0.0433  0.4094  0.4132
   54MOL   H43124917   2.950   0.213   7.719 -2.5244  1.1760 -1.5168
   54MOL   H43224918   2.860   0.114   7.604 -0.2433  1.0576  0.4255
   54MOL   H43324919   2.763   0.165   7.881 -0.9855 -0.7151  0.5238
   54MOL   H43424920   2.899   0.068   7.906  0.5042  1.3125  0.4056
   54MOL   H43524921   2.614   8.088   7.977 -0.3143 -1.5868  0.8801
   54MOL   H43624922   2.476   7.893   8.016 -0.1082  1.2013 -0.0804
   54MOL   H43724923   2.329   7.903   7.612 -1.8386  2.0952 -0.2373
   54MOL   H43824924   2.449   8.109   7.571 -2.7303  0.5228  0.9625
   54MOL   O43924925   2.215   7.559   7.765 -0.1684  0.0574 -0.2878
   54MOL   C44024926   2.305   7.457   7.723 -0.0261 -0.9162  0.6382
   54MOL   C44124927   2.448   7.467   7.788 -0.1299 -0.3196 -0.3026
   54MOL   O44224928   2.441   7.444   7.931 -0.5796  0.0765 -0.0770
   54MOL   C44324929   2.444   7.323   7.982 -0.0976 -0.1295 -0.3968
   54MOL   O44424930   2.450   7.219   7.914 -0.0472 -0.1410 -0.1980
   54MOL   C44524931   2.418   7.322   8.130  0.2377  0.5894 -0.6710
   54MOL   C44624932   2.421   7.446   8.202  0.3181  0.0488  0.4151
   54MOL   C44724933   2.395   7.444   0.066  0.5476 -0.3944 -0.8140
   54MOL   C44824934   2.373   7.319   0.135 -0.4003  0.0102  0.0019
   54MOL   C44924935   2.359   7.305   0.282 -0.2717  0.1339  0.0797
   54MOL   O45024936   2.347   7.198   0.343  0.4417 -0.2973 -0.1340
   54MOL   O45124937   2.358   7.431   0.341 -0.2918  0.2514  0.0313
   54MOL   C45224938   2.375   7.201   0.065 -0.2432  0.3081  0.2998
   54MOL   C45324939   2.401   7.199   8.203 -0.3381 -0.4201 -0.7674
   54MOL   H45424940   2.260   7.359   7.736 -0.4763 -0.9267 -0.8688
   54MOL   H45524941   2.327   7.472   7.617  3.7059 -0.1104  1.4380
   54MOL   H45624942   2.492   7.565   7.770  1.2906 -0.6750  1.1232
   54MOL   H45724943   2.512   7.393   7.739 -0.5801 -0.4699 -0.6631
   54MOL   H45824944   2.435   7.537   8.145  2.1536 -1.6777 -2.0125
   54MOL   H45924945   2.402   7.539   0.116 -0.6578  0.1489 -1.6431
   54MOL   H46024946   2.344   7.111   0.116 -0.6820  0.1472 -0.2368
   54MOL   H46124947   2.398   7.108   8.145 -2.2815 -0.0443 -1.2935
   54MOL   H46224948   2.319   7.420   0.427 -2.3127 -0.0198 -0.8737
   55MOL     O124949   1.946   4.791   0.155 -0.0361 -0.4978  1.1867
   55MOL     C224950   2.078   4.754   0.116  0.2871 -0.0769  0.1519
   55MOL     C324951   2.191   4.827   0.183 -0.3635  0.5273 -0.1304
   55MOL     O424952   2.227   4.952   0.127 -0.1004 -0.0425 -0.3049
   55MOL     C524953   2.287   4.963   0.008  0.1250 -0.5037  0.1041
   55MOL     O624954   2.326   4.872   8.209  0.0118 -0.1912  0.5439
   55MOL     C724955   2.294   5.104   8.239  0.2228 -0.3742 -0.2076
   55MOL     C824956   2.368   5.135   8.118  0.6904 -0.5348  0.9471
   55MOL     C924957   2.361   5.268   8.059 -0.6489  0.2029 -0.1704
   55MOL    C1024958   2.293   5.365   8.129 -0.4749 -0.0620 -0.7520
   55MOL    C1124959   2.290   5.502   8.074 -0.1412 -0.3754 -0.3119
   55MOL    O1224960   2.346   5.538   7.969  0.1521 -0.3676  0.1071
   55MOL    O1324961   2.238   5.594   8.157  0.1687 -0.3005 -0.2879
   55MOL    C1424962   2.228   5.338   8.253 -0.0747  0.2433 -0.1153
   55MOL    C1524963   2.234   5.207   0.039  0.0694  0.7222  0.7701
   55MOL    H1624964   2.086   4.649   0.144  0.7016 -1.3112 -4.2157
   55MOL    H1724965   2.092   4.763   0.008 -0.0522  1.0189  0.1905
   55MOL    H1824966   2.273   4.756   0.178 -0.9184 -0.3662  2.6732
   55MOL    H1924967   2.154   4.838   0.285 -1.6740 -0.1298 -0.5300
   55MOL    H2024968   2.433   5.058   8.079  1.6274 -0.5658  2.5651
   55MOL    H2124969   2.423   5.296   7.975  0.3077  1.6607  0.9849
   55MOL    H2224970   2.182   5.422   0.027 -0.6888 -0.1180 -0.0636
   55MOL    H2324971   2.185   5.193   0.134 -2.1896  0.9634 -0.3092
   55MOL    H2424972   1.887   4.726   0.122 -0.4883  0.2608  0.4865
   55MOL    O2524973   2.227   5.742   8.108 -0.2551  0.1588  0.5944
   55MOL    C2624974   2.334   5.814   8.152  0.1959  0.4217 -0.4872
   55MOL    C2724975   2.313   5.967   8.143  0.1996  0.1496  0.0466
   55MOL    O2824976   2.437   6.027   8.149 -0.2117  0.6152  0.3083
   55MOL    C2924977   2.448   6.164   8.123 -0.4887  0.8163  0.8579
   55MOL    O3024978   2.352   6.237   8.089 -0.4259  0.0763 -0.0059
   55MOL    C3124979   2.587   6.215   8.137  0.6755 -0.6294 -0.1839
   55MOL    C3224980   2.692   6.129   8.182  0.4355  0.1351  0.1896
   55MOL    C3324981   2.819   6.187   8.197 -0.3955  0.2397 -0.5453
   55MOL    C3424982   2.848   6.320   8.162 -1.0575 -0.1337 -0.1775
   55MOL    C3524983   2.990   6.368   8.168 -0.7262  0.2036 -0.0054
   55MOL    O3624984   3.089   6.296   8.168 -0.3353  0.4596  0.4628
   55MOL    O3724985   2.998   6.500   8.192 -0.0196  0.3376 -0.5272
   55MOL    C3824986   2.750   6.411   8.115 -0.5009 -0.5967 -0.6969
   55MOL    C3924987   2.620   6.352   8.095  0.0520  0.0976 -0.4570
   55MOL    H4024988   2.363   5.797   8.256 -0.4741  3.5383  0.2816
   55MOL    H4124989   2.414   5.791   8.082  0.1790 -1.5956  0.1177
   55MOL    H4224990   2.241   6.000   8.218  0.2905  2.7637 -0.9764
   55MOL    H4324991   2.265   5.992   8.049 -1.0119 -2.5091 -0.0678
   55MOL    H4424992   2.690   6.023   8.202  1.1699 -0.2998 -1.8801
   55MOL    H4524993   2.892   6.119   8.237 -1.3937 -0.2823  0.4383
   55MOL    H4624994   2.769   6.514   8.090  0.9937 -0.8240 -0.5436
   55MOL    H4724995   2.545   6.418   8.053  0.9495  0.0395 -2.2170
   55MOL    O4824996   3.125   6.545   8.239  0.4739 -0.1502 -0.6610
   55MOL    C4924997   3.117   6.580   0.101  0.0900 -0.0882 -0.1556
   55MOL    C5024998   3.239   6.664   0.146  0.9063  0.1030  0.0798
   55MOL    O5124999   3.222   6.798   0.167 -0.1727  0.7451  0.1506
   55MOL    C5225000   3.204   6.889   0.070 -0.0413  0.7862 -0.3630
   55MOL    O5325001   3.199   6.858   8.226 -0.0051  0.1705 -0.0376
   55MOL    C5425002   3.189   7.030   0.127  0.7944  0.4305  0.0425
   55MOL    C5525003   3.189   7.057   0.269  0.2092  0.2215  0.4477
   55MOL    C5625004   3.167   7.186   0.317  0.1437  0.2477 -0.3222
   55MOL    C5725005   3.134   7.295   0.232 -0.2234 -0.0882  0.3424
   55MOL    C5825006   3.107   7.431   0.285 -0.9749  0.3095  0.5857
   55MOL    O5925007   3.096   7.459   0.405 -0.3710  0.7477 -0.6883
   55MOL    O6025008   3.094   7.530   0.189 -0.1779 -0.5637 -0.1664
   55MOL    C6125009   3.128   7.264   0.094  0.2399 -1.0120 -0.1220
   55MOL    C6225010   3.155   7.134   0.040  0.1691 -0.1593 -0.0908
   55MOL    H6325011   3.026   6.636   0.123  0.2935 -0.7066  2.5116
   55MOL    H6425012   3.118   6.481   0.147  1.0616  0.5478  1.2454
   55MOL    H6525013   3.329   6.652   0.085  0.6095  0.7548 -0.5027
   55MOL    H6625014   3.278   6.629   0.241  0.3395  0.9734  0.6331
   55MOL    H6725015   3.207   6.979   0.342 -0.9668 -0.4701  0.0188
   55MOL    H6825016   3.160   7.197   0.424 -2.2824  0.0595 -0.4406
   55MOL    H6925017   3.099   7.347   0.030 -0.8445 -2.3332 -1.3809
   55MOL    H7025018   3.155   7.118   8.209 -0.8696  0.8204 -0.2480
   55MOL    O7125019   3.058   7.659   0.251 -0.4269 -0.4627  0.3368
   55MOL    C7225020   3.182   7.735   0.263 -0.1162  0.5788  0.3570
   55MOL    C7325021   3.137   7.880   0.235 -0.1719 -0.0778 -0.4397
   55MOL    O7425022   3.044   7.932   0.328 -0.0630 -0.3924 -0.5198
   55MOL    C7525023   2.960   8.030   0.291  1.0232  0.0764 -0.5685
   55MOL    O7625024   2.949   8.084   0.182  0.7175 -0.4144 -0.5862
   55MOL    C7725025   2.863   8.068   0.399 -0.7478  0.5082  0.0856
   55MOL    C7825026   2.787   8.186   0.384 -0.1662  0.3690  0.5011
   55MOL    C7925027   2.679   8.211   0.471  0.6217  0.0475  0.4357
   55MOL    C8025028   2.652   8.133   0.579 -0.4995 -0.1118  0.1557
   55MOL    C8125029   2.537   8.157   0.674 -0.0417 -0.2391  0.9513
   55MOL    O8225030   2.486   8.072   0.750 -0.2215  0.1147 -0.0680
   55MOL    O8325031   2.490   0.005   0.666 -0.4887  0.1275  0.4667
   55MOL    C8425032   2.734   8.021   0.600  0.0762  1.2508 -1.0737
   55MOL    C8525033   2.833   7.982   0.508  0.0996  0.6692  0.4619
   55MOL    H8625034   3.237   7.724   0.357  0.3028 -0.6511 -0.0259
   55MOL    H8725035   3.247   7.705   0.181 -0.5382 -0.1341  0.2851
   55MOL    H8825036   3.093   7.872   0.135  1.6485  1.8181 -1.4120
   55MOL    H8925037   3.228   7.939   0.241 -1.0038  1.3662 -1.5776
   55MOL    H9025038   2.801   8.259   0.306  0.0639 -0.1011  0.1015
   55MOL    H9125039   2.620   0.026   0.469 -1.9358 -1.5606  0.9657
   55MOL    H9225040   2.711   7.952   0.679 -1.3924  3.3142  0.3662
   55MOL    H9325041   2.888   7.889   0.518 -0.9387  0.1673  1.5984
   55MOL    O9425042   2.403   0.042   0.780  1.1209  0.1674 -0.4974
   55MOL    C9525043   2.484   0.117   0.874  0.0440  0.4829  0.0407
   55MOL    C9625044   2.402   0.225   0.944 -0.4964 -0.5340 -0.0935
   55MOL    O9725045   2.269   0.193   0.993 -0.7605 -0.0491  0.2388
   55MOL    C9825046   2.170   0.285   0.999 -0.4253 -0.4305  0.5685
   55MOL    O9925047   2.180   0.410   0.997  0.5520 -0.4685  0.0534
   55MOL   C10025048   2.032   0.227   1.018 -0.4314  0.6757 -0.0931
   55MOL   C10125049   2.022   0.092   1.036  0.2969 -0.0105 -0.1708
   55MOL   C10225050   1.898   0.032   1.047  0.8104  0.2493  0.4246
   55MOL   C10325051   1.775   0.106   1.046  0.1122  0.7350  0.3221
   55MOL   C10425052   1.651   0.030   1.044 -0.4140  0.1144  0.6141
   55MOL   O10525053   1.644   8.182   1.043  0.0215  0.6155  0.0020
   55MOL   O10625054   1.547   0.114   1.032 -0.7850 -0.1864  0.8199
   55MOL   C10725055   1.785   0.242   1.039 -0.0596 -0.3603 -0.3855
   55MOL   C10825056   1.913   0.304   1.028  0.1628 -0.2160 -0.0766
   55MOL   H10925057   2.522   0.055   0.955  0.2407  0.2966 -0.1950
   55MOL   H11025058   2.573   0.158   0.826  2.0606  0.3392  3.4956
   55MOL   H11125059   2.383   0.308   0.877  2.1633 -1.0536 -1.5975
   55MOL   H11225060   2.455   0.258   1.033  0.5016  0.2211 -0.9591
   55MOL   H11325061   2.106   0.025   1.047  1.0602  0.8762 -0.5500
   55MOL   H11425062   1.886   8.200   1.045 -1.3655  0.4762 -0.3084
   55MOL   H11525063   1.693   0.298   1.035  0.1803  0.1652  1.1001
   55MOL   H11625064   1.918   0.410   1.008 -2.0371  0.0306  0.6226
   55MOL   O11725065   1.409   0.052   1.041 -0.7227  0.9843 -0.0877
   55MOL   C11825066   1.385   0.013   0.902 -0.1286 -0.6802 -1.0653
   55MOL   C11925067   1.235   8.253   0.900  0.3665 -0.5519  0.5309
   55MOL   O12025068   1.163   0.104   0.885  0.0347 -0.4712 -0.2320
   55MOL   C12125069   1.033   0.102   0.847  0.4901  0.7834 -0.0903
   55MOL   O12225070   0.983   8.269   0.819  0.1167 -0.4083 -0.1684
   55MOL   C12325071   0.952   0.228   0.838  0.5951  0.1609 -0.2309
   55MOL   C12425072   0.814   0.223   0.828 -0.4704  0.1505  0.2705
   55MOL   C12525073   0.749   0.348   0.825  0.0532 -0.0190 -0.1421
   55MOL   C12625074   0.825   0.469   0.808 -0.1157  0.3577  0.2574
   55MOL   C12725075   0.751   0.595   0.781 -0.4844 -0.2253 -0.6856
   55MOL   O12825076   0.627   0.608   0.765 -0.3777 -0.1317 -0.1436
   55MOL   O12925077   0.838   0.693   0.751  0.0893 -0.3070  0.0606
   55MOL   C13025078   0.963   0.472   0.823  1.0649  0.3121 -0.1028
   55MOL   C13125079   1.027   0.345   0.833 -0.1476 -1.0638 -0.0639
   55MOL   H13225080   1.400   0.103   0.842  0.3805  1.4653  2.0987
   55MOL   H13325081   1.449   8.207   0.870  3.0072  0.3318  2.2802
   55MOL   H13425082   1.204   8.201   0.991  1.5699 -0.8617  0.7769
   55MOL   H13525083   1.219   8.177   0.823  2.1386 -2.3605  1.8773
   55MOL   H13625084   0.762   0.129   0.839 -0.2333 -0.4077 -2.8282
   55MOL   H13725085   0.641   0.358   0.819 -0.2244 -1.8583  1.4271
   55MOL   H13825086   1.016   0.566   0.826 -1.0633  1.5081  0.5571
   55MOL   H13925087   1.135   0.345   0.831 -0.1557 -1.1088 -0.5910
   55MOL   O14025088   0.776   0.813   0.677  0.2917  0.2474 -0.5734
   55MOL   C14125089   0.791   0.788   0.540  0.1059  0.4159  0.0593
   55MOL   C14225090   0.739   0.914   0.463  0.2403  0.2981  0.4746
   55MOL   O14325091   0.830   1.015   0.450  0.5187  0.0054  0.0512
   55MOL   C14425092   0.935   1.011   0.367  0.4417 -0.5362  0.2534
   55MOL   O14525093   0.948   0.906   0.296  0.3657  0.3018  0.4227
   55MOL   C14625094   1.022   1.129   0.363 -0.3226  0.0038  0.1038
   55MOL   C14725095   1.120   1.135   0.261  0.2933  1.1804 -0.0474
   55MOL   C14825096   1.212   1.236   0.267 -0.2977 -0.0322 -0.2679
   55MOL   C14925097   1.220   1.333   0.373  0.5442  0.3632 -0.5585
   55MOL   C15025098   1.328   1.438   0.374 -0.5531  0.1836  0.4547
   55MOL   O15125099   1.406   1.452   0.280 -0.5048 -0.0021  0.1015
   55MOL   O15225100   1.334   1.514   0.487  0.1948  0.3357  0.1962
   55MOL   C15325101   1.125   1.326   0.479  0.3163 -0.2629  0.3121
   55MOL   C15425102   1.027   1.227   0.467  0.1559  0.2456 -0.2610
   55MOL   H15525103   0.887   0.755   0.500 -1.3296 -1.3023 -2.0552
   55MOL   H15625104   0.710   0.718   0.518  1.1058 -0.8249  0.2752
   55MOL   H15725105   0.642   0.938   0.506  0.4739  1.2941  0.4473
   55MOL   H15825106   0.712   0.895   0.359 -0.1688 -0.4526  0.7128
   55MOL   H15925107   1.118   1.074   0.172 -1.7727  0.3090  0.5908
   55MOL   H16025108   1.291   1.248   0.194 -3.1586 -0.3837 -3.5261
   55MOL   H16125109   1.121   1.399   0.559  2.1280 -0.9348  1.0649
   55MOL   H16225110   0.961   1.211   0.551  1.9890  0.5608  1.2944
   55MOL   O16325111   1.458   1.601   0.511  0.1010 -0.1298 -0.0942
   55MOL   C16425112   1.442   1.726   0.458  0.0305 -0.5107 -0.2445
   55MOL   C16525113   1.325   1.797   0.519 -0.1372 -0.1806 -0.1637
   55MOL   O16625114   1.355   1.869   0.632  0.0918  0.0046 -0.5457
   55MOL   C16725115   1.370   2.006   0.627 -0.0876 -0.0877  0.3410
   55MOL   O16825116   1.341   2.084   0.531 -0.0248 -0.8725 -0.2065
   55MOL   C16925117   1.440   2.055   0.751 -1.0557 -0.3267 -0.5576
   55MOL   C17025118   1.478   2.192   0.757 -0.4398 -0.1855  0.8667
   55MOL   C17125119   1.562   2.239   0.862 -0.2905 -0.1125  1.2008
   55MOL   C17225120   1.608   2.151   0.963 -0.5367  0.1106  0.1434
   55MOL   C17325121   1.693   2.216   1.073 -0.1468 -0.6382  0.3626
   55MOL   O17425122   1.722   2.338   1.081 -0.0153 -0.6220  0.8292
   55MOL   O17525123   1.752   2.117   1.147 -0.4348 -0.2562 -0.2929
   55MOL   C17625124   1.556   2.015   0.962  0.1048 -0.3011  0.4794
   55MOL   C17725125   1.471   1.966   0.857 -0.3757 -0.4170 -0.7657
   55MOL   H17825126   1.535   1.781   0.468  0.5411 -1.6460  1.4266
   55MOL   H17925127   1.418   1.715   0.352 -0.9396 -0.2254 -0.0605
   55MOL   H18025128   1.241   1.731   0.539  0.9026 -2.2814 -2.3079
   55MOL   H18125129   1.299   1.859   0.434  1.5630  1.2957  0.3649
   55MOL   H18225130   1.445   2.258   0.678  1.7628  0.7189  0.6726
   55MOL   H18325131   1.600   2.340   0.856  0.5608 -0.5351 -0.9356
   55MOL   H18425132   1.596   1.947   1.036 -0.4024  0.4488  1.4338
   55MOL   H18525133   1.448   1.861   0.850 -1.2421 -0.4420  2.0828
   55MOL   O18625134   1.813   2.155   1.281  0.0292 -0.3268  0.5705
   55MOL   C18725135   1.941   2.223   1.266 -0.1631  0.2920 -0.6441
   55MOL   C18825136   1.984   2.266   1.415 -0.3311  0.3001  0.5941
   55MOL   O18925137   2.043   2.162   1.490 -0.4999  0.5812 -0.2157
   55MOL   C19025138   1.969   2.056   1.525  0.4291  0.3587  0.4604
   55MOL   O19125139   1.845   2.055   1.522 -0.3669 -0.1415 -0.2034
   55MOL   C19225140   2.042   1.940   1.581 -0.4253 -0.1135 -0.2460
   55MOL   C19325141   2.181   1.933   1.579  0.0460  0.0162  0.8045
   55MOL   C19425142   2.246   1.822   1.636 -0.3576 -0.1932 -0.1517
   55MOL   C19525143   2.183   1.735   1.723 -0.4080 -1.3127  0.4238
   55MOL   C19625144   2.264   1.655   1.816 -0.0278 -0.1656 -0.0572
   55MOL   O19725145   2.385   1.645   1.807  0.1836  0.6988 -0.3045
   55MOL   O19825146   2.200   1.604   1.919  0.0111  0.9112  0.0146
   55MOL   C19925147   2.038   1.734   1.713  0.0874  0.4563  0.8976
   55MOL   C20025148   1.969   1.835   1.646 -0.1805 -0.4623  0.3149
   55MOL   H20125149   2.018   2.167   1.212 -0.2515  0.0642 -0.5343
   55MOL   H20225150   1.921   2.315   1.212 -0.9506  0.9916  0.8269
   55MOL   H20325151   1.898   2.293   1.476  0.2449 -1.5930  2.2908
   55MOL   H20425152   2.036   2.360   1.403 -1.5608  0.7867 -1.2190
   55MOL   H20525153   2.247   2.012   1.544  0.2215 -0.2112  0.6229
   55MOL   H20625154   2.353   1.814   1.621 -0.6294 -0.8477 -1.8958
   55MOL   H20725155   1.990   1.662   1.778  0.3847 -0.2498  0.3559
   55MOL   H20825156   1.864   1.839   1.671 -0.0071 -0.3541  1.0396
   55MOL   O20925157   2.284   1.525   2.020 -0.0810 -0.6476  0.2768
   55MOL   C21025158   2.274   1.594   2.144 -0.2962 -0.2335 -0.1526
   55MOL   C21125159   2.350   1.727   2.149  0.0210  0.3894  0.1873
   55MOL   O21225160   2.261   1.831   2.108 -0.0696 -0.2566 -0.1394
   55MOL   C21325161   2.298   1.928   2.018 -0.1899 -0.2381  1.2024
   55MOL   O21425162   2.412   1.938   1.962 -0.3802  0.3624  0.5527
   55MOL   C21525163   2.186   2.012   1.966  0.1921 -0.0644 -0.0917
   55MOL   C21625164   2.053   1.977   1.988  0.2885 -0.5631 -0.8565
   55MOL   C21725165   1.945   2.051   1.936 -0.9946  0.1398  0.2649
   55MOL   C21825166   1.975   2.173   1.872  0.3917 -0.4045  0.3580
   55MOL   C21925167   1.867   2.258   1.820 -0.4297  0.5345  0.0376
   55MOL   O22025168   1.883   2.367   1.764  0.3480  0.7831  0.1387
   55MOL   O22125169   1.742   2.202   1.838 -0.1645 -0.5939  0.3852
   55MOL   C22225170   2.104   2.213   1.852 -0.3209 -0.1143  0.1025
   55MOL   C22325171   2.213   2.138   1.901  0.6512  0.8303  0.3724
   55MOL   H22425172   2.180   1.593   2.199 -0.8316 -1.3155 -1.0659
   55MOL   H22525173   2.335   1.529   2.206  0.2234  1.3643  1.0618
   55MOL   H22625174   2.446   1.724   2.098  0.5841 -2.1039  1.3320
   55MOL   H22725175   2.380   1.739   2.253 -0.4821  1.4035  0.2159
   55MOL   H22825176   2.030   1.889   2.047  0.0475  0.6254  0.8514
   55MOL   H22925177   1.844   2.018   1.953 -1.1251 -0.3135 -1.3454
   55MOL   H23025178   2.127   2.297   1.788  0.7612 -1.0530 -0.7471
   55MOL   H23125179   2.318   2.156   1.888  1.0723 -0.8567  1.3446
   55MOL   O23225180   1.630   2.299   1.817  0.6237 -0.0017 -0.4643
   55MOL   C23325181   1.574   2.262   1.687  0.2513 -0.2315  0.7787
   55MOL   C23425182   1.479   2.379   1.647  0.5745  0.1020 -0.0183
   55MOL   O23525183   1.344   2.345   1.691  0.1409  0.1477  0.6376
   55MOL   C23625184   1.250   2.303   1.600 -0.9903 -0.0378 -0.7929
   55MOL   O23725185   1.270   2.302   1.477  0.4627 -0.2940  0.0306
   55MOL   C23825186   1.112   2.273   1.654  0.0671 -0.2692 -0.0677
   55MOL   C23925187   1.021   2.206   1.569 -0.0988  0.5019 -0.0534
   55MOL   C24025188   0.890   2.176   1.611 -0.5652  0.6632 -0.1349
   55MOL   C24125189   0.846   2.200   1.741  0.5864  0.1377 -0.6255
   55MOL   C24225190   0.707   2.177   1.784 -0.5404 -0.2092  0.2761
   55MOL   O24325191   0.615   2.140   1.709 -0.0020 -0.0103  0.4079
   55MOL   O24425192   0.692   2.177   1.922 -0.2780  0.0390  0.3528
   55MOL   C24525193   0.941   2.260   1.828  0.1399  0.1394 -0.0991
   55MOL   C24625194   1.069   2.301   1.786 -0.3104 -0.5919  0.3119
   55MOL   H24725195   1.652   2.256   1.611 -1.6528 -0.3008 -1.2149
   55MOL   H24825196   1.539   2.159   1.687  0.1180 -0.2016 -0.8430
   55MOL   H24925197   1.485   2.390   1.539  1.8032 -0.4112 -0.0051
   55MOL   H25025198   1.515   2.477   1.677  1.2564  0.3367 -1.5655
   55MOL   H25125199   1.049   2.177   1.469  2.9222 -2.2757  1.4588
   55MOL   H25225200   0.827   2.131   1.536 -0.8376  1.2226 -0.2414
   55MOL   H25325201   0.912   2.278   1.931  1.2617  2.3439 -0.1247
   55MOL   H25425202   1.136   2.353   1.853 -2.1142  0.3006  1.4852
   55MOL   O25525203   0.539   2.179   1.960 -0.4044  0.0661 -0.1894
   55MOL   C25625204   0.500   2.049   2.005 -0.0527 -0.3788  0.0465
   55MOL   C25725205   0.369   2.012   1.941  0.3001 -0.3300  0.4328
   55MOL   O25825206   0.259   2.076   2.001  0.4941 -0.3853  0.2157
   55MOL   C25925207   0.207   2.028   2.125 -0.1397  0.2327  0.6158
   55MOL   O26025208   0.268   1.949   2.196 -0.0796 -0.1093 -0.3604
   55MOL   C26125209   0.085   2.089   2.159 -0.4057 -0.4704  0.2987
   55MOL   C26225210   0.003   2.168   2.072 -0.4122  0.4357 -0.1087
   55MOL   C26325211   8.161   2.226   2.112  0.0637 -0.6622  0.0159
   55MOL   C26425212   8.131   2.220   2.252  0.0675  0.1679 -0.1981
   55MOL   C26525213   8.024   2.304   2.309  0.2608 -0.6677  0.2946
   55MOL   O26625214   7.948   2.374   2.241  0.0725  0.3605  0.8043
   55MOL   O26725215   8.014   2.299   2.444 -0.5566  0.5739 -0.3086
   55MOL   C26825216   8.205   2.133   2.338 -0.9520  0.2602  0.3778
   55MOL   C26925217   0.042   2.063   2.289  0.2351  0.3608  0.0559
   55MOL   H27025218   0.565   1.968   1.971  0.7290  0.4789 -0.5337
   55MOL   H27125219   0.491   2.053   2.113  0.6019  0.2754  0.0800
   55MOL   H27225220   0.348   1.906   1.955 -2.9123  0.4336  1.8382
   55MOL   H27325221   0.376   2.026   1.833  0.0925 -0.1892  0.4393
   55MOL   H27425222   0.034   2.184   1.970 -0.3596  2.3916  0.1940
   55MOL   H27525223   8.093   2.282   2.049  0.2376 -0.0892  0.3368
   55MOL   H27625224   8.178   2.107   2.439  0.3746 -0.3004  0.5923
   55MOL   H27725225   0.093   1.993   2.353 -0.3514  0.7849  0.9956
   55MOL   O27825226   7.903   2.380   2.503  0.1369 -0.3077  0.1369
   55MOL   C27925227   7.950   2.502   2.562  0.2974  0.4296  0.3581
   55MOL   C28025228   7.838   2.606   2.548 -0.1605  0.2545  0.0473
   55MOL   O28125229   7.789   2.651   2.677  0.0324 -0.0196  0.6489
   55MOL   C28225230   7.703   2.759   2.674 -0.7229  0.2761 -0.6893
   55MOL   O28325231   7.648   2.802   2.577  0.6325  0.4026 -0.3187
   55MOL   C28425232   7.681   2.813   2.803  1.1205 -0.0053 -0.3208
   55MOL   C28525233   7.758   2.783   2.912  0.1847 -0.0698 -0.0431
   55MOL   C28625234   7.732   2.827   3.041  0.5934 -0.3962 -0.0215
   55MOL   C28725235   7.624   2.914   3.061  0.2430 -0.0425  1.1017
   55MOL   C28825236   7.592   2.968   3.200 -0.5196  0.7142  0.1383
   55MOL   O28925237   7.486   3.026   3.221  0.4461  0.3935  0.1367
   55MOL   O29025238   7.692   2.945   3.286 -0.1213 -0.1525 -0.4883
   55MOL   C29125239   7.562   2.965   2.946  0.5385  0.7338 -0.0180
   55MOL   C29225240   7.582   2.912   2.819  0.1079 -0.0011 -0.2374
   55MOL   H29325241   7.981   2.502   2.666  0.8316 -2.0881  0.2329
   55MOL   H29425242   8.042   2.535   2.514  0.7838 -0.0894  0.9282
   55MOL   H29525243   7.761   2.582   2.475 -0.5867 -2.5092  1.3163
   55MOL   H29625244   7.899   2.682   2.500  1.3057 -1.6713 -1.1933
   55MOL   H29725245   7.834   2.706   2.905  1.6328  1.2398  0.7176
   55MOL   H29825246   7.790   2.792   3.125  2.0610  0.6419 -0.5840
   55MOL   H29925247   7.482   3.036   2.965 -3.1196 -2.8085 -1.5632
   55MOL   H30025248   7.526   2.942   2.732 -0.3759 -1.5374 -0.4736
   55MOL   O30125249   7.674   3.020   3.419 -0.3140  0.5486  0.0966
   55MOL   C30225250   7.613   2.935   3.520 -0.2882  0.5201 -0.1082
   55MOL   C30325251   7.588   3.030   3.638 -0.0074  0.0300  0.6357
   55MOL   O30425252   7.460   3.088   3.618 -0.3232 -0.2588 -0.0641
   55MOL   C30525253   7.427   3.169   3.712  0.4141 -0.0912 -0.0988
   55MOL   O30625254   7.498   3.214   3.800 -0.2340 -0.4318 -0.4895
   55MOL   C30725255   7.285   3.221   3.691  0.0026  0.2898 -0.3773
   55MOL   C30825256   7.202   3.162   3.589  0.5954  0.4349 -0.4302
   55MOL   C30925257   7.074   3.212   3.559  0.4584 -0.2464 -0.0357
   55MOL   C31025258   7.024   3.324   3.635  0.2148 -0.6694 -0.1085
   55MOL   C31125259   6.887   3.384   3.612  0.0859  0.6955 -0.0830
   55MOL   O31225260   6.793   3.319   3.557  0.3544 -0.1827  0.3401
   55MOL   O31325261   6.875   3.506   3.647  0.0047 -0.3918 -0.3167
   55MOL   C31425262   7.111   3.390   3.719  0.1353  0.4780 -0.1020
   55MOL   C31525263   7.239   3.341   3.748 -0.4479 -0.9714 -0.2415
   55MOL   H31625264   7.529   2.884   3.473 -0.9807  1.2866  0.2887
   55MOL   H31725265   7.684   2.858   3.552 -0.6447 -0.5808 -1.9055
   55MOL   H31825266   7.670   3.097   3.661  0.0183  0.4763 -0.7345
   55MOL   H31925267   7.563   2.973   3.728  0.2447  0.3420  0.9043
   55MOL   H32025268   7.232   3.072   3.538  1.4497 -0.6162  1.8771
   55MOL   H32125269   7.011   3.164   3.486 -2.3893 -1.1244  2.8908
   55MOL   H32225270   7.081   3.476   3.777  2.7285  1.2253  0.2128
   55MOL   H32325271   7.302   3.402   3.811  0.1998  0.6453 -2.3925
   55MOL   O32425272   6.727   3.559   3.649 -0.0336  0.4138  0.1229
   55MOL   C32525273   6.682   3.605   3.773 -1.1172 -0.2215 -0.2309
   55MOL   C32625274   6.533   3.613   3.766  0.1900 -0.1605 -0.2326
   55MOL   O32725275   6.469   3.488   3.750 -0.0498  0.4694 -0.3265
   55MOL   C32825276   6.351   3.482   3.691  0.2580  0.2119  1.1582
   55MOL   O32925277   6.285   3.579   3.657 -0.0414  0.1462  0.2580
   55MOL   C33025278   6.311   3.340   3.668  0.5800  0.1353  0.6172
   55MOL   C33125279   6.402   3.234   3.649  0.3457 -0.3712  0.0566
   55MOL   C33225280   6.360   3.101   3.650  0.9829 -0.4449 -0.4583
   55MOL   C33325281   6.228   3.068   3.665 -0.7140 -0.3221 -0.1502
   55MOL   C33425282   6.170   2.932   3.661 -0.4561 -0.4431 -0.2428
   55MOL   O33525283   6.057   2.903   3.701  0.0286  0.6828  0.5202
   55MOL   O33625284   6.260   2.839   3.622  0.4497  0.3545 -0.2310
   55MOL   C33725285   6.139   3.176   3.675 -0.5530  0.3305  0.3127
   55MOL   C33825286   6.173   3.308   3.678 -0.5520 -0.1942 -0.7619
   55MOL   H33925287   6.702   3.531   3.851 -1.2914 -0.3370 -0.2940
   55MOL   H34025288   6.724   3.697   3.812 -2.0045 -0.1194  0.5172
   55MOL   H34125289   6.513   3.676   3.679 -0.9064 -1.0531 -0.6517
   55MOL   H34225290   6.497   3.660   3.857 -0.3312 -2.6452  0.8703
   55MOL   H34325291   6.509   3.244   3.653  0.1951  0.7051  2.6091
   55MOL   H34425292   6.435   3.022   3.645  0.7218 -0.7627  0.4989
   55MOL   H34525293   6.037   3.145   3.692 -0.4623  0.3324  0.8740
   55MOL   H34625294   6.093   3.379   3.691 -1.5738 -1.5327  0.3981
   55MOL   O34725295   6.198   2.704   3.607 -0.3470 -0.2635 -0.0155
   55MOL   C34825296   6.198   2.671   3.472 -0.1565 -0.1446 -0.1306
   55MOL   C34925297   6.340   2.635   3.423  0.0459 -0.3493  0.1550
   55MOL   O35025298   6.385   2.681   3.297 -0.5349  0.3569 -0.0811
   55MOL   C35125299   6.393   2.593   3.198  0.3913 -0.4363  0.1377
   55MOL   O35225300   6.357   2.474   3.206 -0.3554 -0.3062 -0.1011
   55MOL   C35325301   6.445   2.645   3.068 -0.0964  0.1816  0.2544
   55MOL   C35425302   6.460   2.554   2.959  0.1499  0.3172 -0.4705
   55MOL   C35525303   6.526   2.594   2.837 -0.4569 -0.2175 -0.0314
   55MOL   C35625304   6.570   2.727   2.825 -0.5087  0.7847  0.6053
   55MOL   C35725305   6.641   2.770   2.699  0.4241 -0.2312 -0.4909
   55MOL   O35825306   6.691   2.683   2.625 -0.1171 -0.2458 -0.1010
   55MOL   O35925307   6.660   2.904   2.680 -0.5146  0.3795  0.1138
   55MOL   C36025308   6.527   2.822   2.918 -0.7567  0.3324  0.3426
   55MOL   C36125309   6.469   2.779   3.040  0.5023  0.4248  0.2400
   55MOL   H36225310   6.125   2.592   3.453  0.0230 -0.5797  0.9717
   55MOL   H36325311   6.143   2.749   3.418  1.2145  1.0306  0.1440
   55MOL   H36425312   6.360   2.528   3.433  2.4660 -0.0434 -0.9634
   55MOL   H36525313   6.407   2.679   3.496 -2.7575  0.9953  2.0231
   55MOL   H36625314   6.437   2.450   2.971 -1.3065  0.5537 -1.0827
   55MOL   H36725315   6.535   2.519   2.759 -0.0995  0.7755 -0.9525
   55MOL   H36825316   6.556   2.924   2.898 -0.1429  0.2342  0.7543
   55MOL   H36925317   6.449   2.856   3.113 -0.9304  0.8946 -0.6323
   55MOL   O37025318   6.775   2.928   2.595 -0.0626  0.0619  0.3258
   55MOL   C37125319   6.870   3.004   2.663 -0.3871 -0.7542  0.4251
   55MOL   C37225320   6.834   3.151   2.684 -0.3685  0.1551  0.1482
   55MOL   O37325321   6.720   3.173   2.763 -0.2541  0.9304 -0.4815
   55MOL   C37425322   6.731   3.216   2.890  0.1044  0.3837 -0.2763
   55MOL   O37525323   6.839   3.245   2.939  0.2675 -0.1706 -0.0015
   55MOL   C37625324   6.611   3.191   2.972 -0.6039 -0.1667 -0.1262
   55MOL   C37725325   6.484   3.167   2.921 -0.6300  1.0490  0.0016
   55MOL   C37825326   6.381   3.127   3.000 -0.2585 -0.1001  0.3282
   55MOL   C37925327   6.381   3.124   3.136 -0.1030  0.3567  0.6223
   55MOL   C38025328   6.258   3.074   3.206  0.3698 -0.7671 -0.1050
   55MOL   O38125329   6.251   3.019   3.317 -0.1787  0.4253  0.0109
   55MOL   O38225330   6.147   3.104   3.134 -0.1926 -0.0002  0.6772
   55MOL   C38325331   6.505   3.149   3.198 -0.0496 -0.1463 -0.9163
   55MOL   C38425332   6.621   3.178   3.118  0.5208  0.4953  0.3238
   55MOL   H38525333   6.895   2.951   2.755  1.0878 -0.4512  0.2191
   55MOL   H38625334   6.953   3.003   2.592  0.5289 -0.1778  1.4738
   55MOL   H38725335   6.817   3.184   2.581 -1.2531 -1.9550 -0.4165
   55MOL   H38825336   6.915   3.213   2.723  0.8608 -1.0577 -0.4528
   55MOL   H38925337   6.463   3.172   2.815 -1.4228  1.2827  0.1628
   55MOL   H39025338   6.286   3.107   2.951 -0.6922 -0.0663  1.1452
   55MOL   H39125339   6.518   3.137   3.305 -0.2411 -2.6115 -1.1286
   55MOL   H39225340   6.713   3.201   3.169 -0.4427  1.3341  1.7031
   55MOL   O39325341   6.010   3.083   3.191 -0.0507 -0.2158  0.6423
   55MOL   C39425342   5.953   3.211   3.219 -0.6621 -0.4920 -0.3087
   55MOL   C39525343   5.807   3.196   3.263  0.7390  0.0840 -0.0579
   55MOL   O39625344   5.788   3.177   3.405 -0.5066  0.4081  0.1954
   55MOL   C39725345   5.810   3.281   3.497  0.0374 -1.1803  0.3020
   55MOL   O39825346   5.828   3.395   3.453 -0.6198  0.9145 -0.1062
   55MOL   C39925347   5.787   3.244   3.637 -0.7114  0.5168  0.3176
   55MOL   C40025348   5.824   3.338   3.735  0.0652 -0.7246  0.1510
   55MOL   C40125349   5.815   3.315   3.872 -0.4777 -0.5292 -0.5555
   55MOL   C40225350   5.758   3.191   3.916 -0.2698  0.6043 -0.7234
   55MOL   C40325351   5.767   3.167   4.060  0.1014 -0.5567  0.4691
   55MOL   O40425352   5.844   3.232   4.126  0.3257 -0.1255 -0.2815
   55MOL   O40525353   5.700   3.068   4.107  0.3300  0.1013 -0.0439
   55MOL   C40625354   5.721   3.095   3.815  0.4992  0.4732  0.2838
   55MOL   C40725355   5.735   3.122   3.682 -0.1604  0.1495  0.3372
   55MOL   H40825356   6.013   3.252   3.301 -0.5630 -1.7443  0.2543
   55MOL   H40925357   5.954   3.261   3.122  0.2478  2.4560  1.1471
   55MOL   H41025358   5.766   3.107   3.216 -1.3304  0.7914  0.3251
   55MOL   H41125359   5.745   3.277   3.224 -0.0038  0.6297  2.1221
   55MOL   H41225360   5.844   3.436   3.694 -2.5396  0.7108  2.1535
   55MOL   H41325361   5.845   3.393   3.940  0.7103 -0.8464 -0.7029
   55MOL   H41425362   5.704   2.994   3.849 -0.8464  1.4256  2.5638
   55MOL   H41525363   5.700   3.043   3.617 -0.3607  1.1795 -0.8211
   55MOL   O41625364   5.754   3.019   4.240  0.1083  0.3475  0.1976
   55MOL   C41725365   5.822   2.893   4.211  0.3114 -0.6570  0.6640
   55MOL   C41825366   5.903   2.840   4.329 -0.3369 -0.3236 -0.0803
   55MOL   O41925367   5.994   2.735   4.293  0.4110  0.3778 -0.2205
   55MOL   C42025368   5.958   2.609   4.260  0.5918 -0.3416 -0.5582
   55MOL   O42125369   5.843   2.564   4.262  0.0444 -0.2670 -0.2151
   55MOL   C42225370   6.070   2.518   4.233 -0.2216 -0.6614 -0.5839
   55MOL   C42325371   6.049   2.383   4.197  0.6266  0.1165 -0.5205
   55MOL   C42425372   6.159   2.297   4.161  0.0608  0.3663  0.0064
   55MOL   C42525373   6.290   2.352   4.174 -0.4039 -0.0479  0.3578
   55MOL   C42625374   6.408   2.270   4.140  0.3663 -0.2846 -0.7876
   55MOL   O42725375   6.526   2.306   4.152 -0.5314  0.3035 -0.3392
   55MOL   O42825376   6.370   2.149   4.094 -0.7514 -0.0977  0.1424
   55MOL   C42925377   6.306   2.485   4.207  0.8494 -0.8520  0.0831
   55MOL   C43025378   6.199   2.568   4.241 -0.0089 -0.2673 -0.7364
   55MOL   H43125379   5.741   2.826   4.181 -2.2457  2.2656  0.7882
   55MOL   H43225380   5.894   2.900   4.129 -0.0596 -1.9480  0.2073
   55MOL   H43325381   5.827   2.799   4.395  0.7653 -0.3743  1.1881
   55MOL   H43425382   5.954   2.912   4.392  1.1413 -0.3588 -1.1951
   55MOL   H43525383   5.950   2.340   4.199  1.4295 -1.7519  1.3155
   55MOL   H43625384   6.132   2.199   4.124 -0.7809  0.4496  0.4032
   55MOL   H43725385   6.403   2.530   4.197 -0.2016  0.7364 -3.9119
   55MOL   H43825386   6.221   2.673   4.254  3.6896 -0.8005 -2.1569
   55MOL   O43925387   6.477   2.052   4.087 -0.2390  0.2855  0.2855
   55MOL   C44025388   6.483   1.978   4.212 -0.1999  0.5030  0.3505
   55MOL   C44125389   6.574   1.859   4.206  0.1667  0.5058  0.4034
   55MOL   O44225390   6.706   1.896   4.200 -0.1814  0.4341 -0.6313
   55MOL   C44325391   6.785   1.890   4.310 -0.4544  0.2447 -0.7546
   55MOL   O44425392   6.747   1.843   4.416 -0.5706 -0.0835  0.1938
   55MOL   C44525393   6.919   1.947   4.291 -0.2952 -0.2921  0.1850
   55MOL   C44625394   7.013   1.951   4.396 -0.0629  0.4272  0.0267
   55MOL   C44725395   7.146   1.999   4.384 -0.1230 -0.4792  0.1240
   55MOL   C44825396   7.187   2.055   4.262  0.2115  0.2620 -0.3013
   55MOL   C44925397   7.324   2.106   4.242  0.2062  0.4700 -0.0903
   55MOL   O45025398   7.369   2.123   4.131  0.3345 -1.0548  0.3577
   55MOL   O45125399   7.394   2.122   4.357 -0.4906  0.6364  0.0425
   55MOL   C45225400   7.092   2.050   4.156  0.7314 -0.6382 -0.8773
   55MOL   C45325401   6.959   2.005   4.170 -0.1734  0.0764 -1.0756
   55MOL   H45425402   6.496   2.053   4.290  1.9799  1.7473 -1.1698
   55MOL   H45525403   6.382   1.941   4.229 -0.4923  0.8703 -0.5752
   55MOL   H45625404   6.551   1.803   4.115  1.2185 -0.5139  0.7632
   55MOL   H45725405   6.551   1.788   4.286 -1.3911 -0.7265 -1.0965
   55MOL   H45825406   6.980   1.911   4.491  0.2792  0.3292  0.1039
   55MOL   H45925407   7.208   2.001   4.473 -0.4131  0.3732  0.3072
   55MOL   H46025408   7.114   2.092   4.059  1.0072  0.9662 -0.1380
   55MOL   H46125409   6.892   2.009   4.086 -1.4981  1.4407  0.0005
   55MOL   H46225410   7.469   2.172   4.326  1.6678 -1.7863  1.1399
   56MOL     O125411   2.955   5.991   7.734  0.2850  0.6446  0.1496
   56MOL     C225412   3.037   6.032   7.843  0.4602 -0.2674  0.3016
   56MOL     C325413   3.094   5.912   7.924 -0.7110 -0.1299 -0.4711
   56MOL     O425414   3.183   5.837   7.845  0.2338  0.2756  0.5216
   56MOL     C525415   3.209   5.713   7.881 -0.0181 -0.7148  0.3461
   56MOL     O625416   3.157   5.655   7.979  0.5729 -0.0316  0.1687
   56MOL     C725417   3.315   5.652   7.804  0.7401 -0.4297 -0.1558
   56MOL     C825418   3.400   5.723   7.713 -0.6111 -1.2767  0.5316
   56MOL     C925419   3.488   5.657   7.630  1.1080  0.2913  0.2932
   56MOL    C1025420   3.494   5.517   7.630 -0.6283 -0.1878  0.5243
   56MOL    C1125421   3.569   5.436   7.534  0.0121 -0.7827  0.0402
   56MOL    O1225422   3.660   5.485   7.463  0.1212 -0.2996  0.7485
   56MOL    O1325423   3.525   5.308   7.504 -0.5660 -0.5337  0.2279
   56MOL    C1425424   3.421   5.448   7.728  0.2954 -0.2155  0.5969
   56MOL    C1525425   3.331   5.516   7.811  0.4961 -0.6053 -0.2589
   56MOL    H1625426   3.115   6.100   7.808 -0.4953 -0.0352 -1.4400
   56MOL    H1725427   2.979   6.099   7.907  1.5543  1.3647 -0.3898
   56MOL    H1825428   3.012   5.855   7.968  0.2884 -2.3600 -1.3998
   56MOL    H1925429   3.139   5.953   8.015  0.6693  0.0218 -1.2097
   56MOL    H2025430   3.406   5.831   7.709 -0.5898 -1.3047 -0.4766
   56MOL    H2125431   3.564   5.701   7.567 -0.5781  1.7828 -0.7731
   56MOL    H2225432   3.399   5.342   7.727  0.1409 -0.1794  0.1738
   56MOL    H2325433   3.279   5.454   7.883  1.1815 -1.7287 -0.7125
   56MOL    H2425434   2.975   5.899   7.724 -1.1326  0.3382  0.0719
   56MOL    O2525435   3.601   5.251   7.380 -0.5189 -0.8828 -0.0597
   56MOL    C2625436   3.719   5.189   7.424 -0.5675 -0.2057 -0.0955
   56MOL    C2725437   3.687   5.065   7.512  0.2998  0.4857 -0.1774
   56MOL    O2825438   3.675   5.080   7.655 -0.5269 -0.1589  0.6715
   56MOL    C2925439   3.790   5.091   7.731  0.0023 -0.0279 -0.3507
   56MOL    O3025440   3.897   5.123   7.684  0.4667 -0.1571 -0.7958
   56MOL    C3125441   3.770   5.054   7.875  0.5174  0.0146  0.4558
   56MOL    C3225442   3.638   5.044   7.926 -0.5726 -0.0765  0.1015
   56MOL    C3325443   3.618   5.005   8.061 -1.0951 -0.3968  0.3764
   56MOL    C3425444   3.723   4.967   8.142 -0.2989 -0.0957  0.0490
   56MOL    C3525445   3.691   4.932   0.007  0.1010 -0.1072  0.6542
   56MOL    O3625446   3.577   4.944   0.049  0.4211 -0.3353 -0.3180
   56MOL    O3725447   3.794   4.876   0.077 -0.0513  0.1981 -0.3723
   56MOL    C3825448   3.855   4.969   8.088 -0.0177  0.0451  0.6021
   56MOL    C3925449   3.878   5.016   7.956  0.2765  0.1729  0.3982
   56MOL    H4025450   3.754   5.146   7.330  0.9943  3.4338 -1.2736
   56MOL    H4125451   3.796   5.255   7.464 -0.4773  1.4721 -2.8755
   56MOL    H4225452   3.769   4.994   7.499  0.6045  0.4647  1.6921
   56MOL    H4325453   3.593   5.033   7.467  0.2622  0.1266  0.1621
   56MOL    H4425454   3.548   5.064   7.870 -1.2646 -1.6147  0.6224
   56MOL    H4525455   3.516   5.000   8.096 -1.5960  0.8773 -0.8137
   56MOL    H4625456   3.936   4.931   8.148  1.2039  0.1964 -0.9192
   56MOL    H4725457   3.977   5.007   7.914  1.3805 -0.6296  3.0982
   56MOL    O4825458   3.763   4.833   0.212  0.7529 -0.7939  0.3104
   56MOL    C4925459   3.785   4.939   0.304  0.1608 -0.3304 -0.3115
   56MOL    C5025460   3.724   4.897   0.431  0.5264  0.1269 -0.0036
   56MOL    O5125461   3.582   4.897   0.404 -0.6052 -0.0185  0.0146
   56MOL    C5225462   3.500   4.923   0.494 -0.6306  0.3969  0.0123
   56MOL    O5325463   3.538   4.952   0.609  0.5055  0.4464  0.0868
   56MOL    C5425464   3.358   4.912   0.448 -0.6537 -0.6808 -0.1925
   56MOL    C5525465   3.322   4.890   0.318  1.0279 -0.3481  0.4751
   56MOL    C5625466   3.187   4.881   0.279  0.3779  0.4114  0.1553
   56MOL    C5725467   3.084   4.909   0.369 -0.2886 -0.0007 -0.0202
   56MOL    C5825468   2.940   4.902   0.326  0.1367  0.3604  0.3735
   56MOL    O5925469   2.900   4.840   0.221  0.3161 -0.0968 -0.2750
   56MOL    O6025470   2.852   4.969   0.399  0.0157  0.1520  0.0498
   56MOL    C6125471   3.119   4.935   0.501 -0.2197 -0.6371 -0.3306
   56MOL    C6225472   3.254   4.923   0.542 -0.3720 -0.1956  0.8374
   56MOL    H6325473   3.893   4.951   0.319 -0.2529  2.2813  0.7806
   56MOL    H6425474   3.751   5.036   0.268  2.1303 -0.0729 -1.5863
   56MOL    H6525475   3.761   4.954   0.517  0.5793 -1.3065  0.9559
   56MOL    H6625476   3.752   4.792   0.447 -0.4576  0.0880  1.6008
   56MOL    H6725477   3.390   4.878   0.236  0.0640  0.1224 -0.4035
   56MOL    H6825478   3.159   4.851   0.179  0.5741  0.9282 -0.0564
   56MOL    H6925479   3.045   4.938   0.580  0.0351  0.2843 -0.1189
   56MOL    H7025480   3.281   4.931   0.647  0.9159  0.8167  0.4378
   56MOL    O7125481   2.707   4.924   0.371  0.9019 -0.1439  0.0543
   56MOL    C7225482   2.650   4.850   0.475 -0.1576 -0.1042 -0.2548
   56MOL    C7325483   2.502   4.821   0.460  0.3627  0.5034  0.1718
   56MOL    O7425484   2.491   4.717   0.359 -0.0566  0.3304 -0.3352
   56MOL    C7525485   2.390   4.624   0.363 -0.7877 -0.7505 -0.1052
   56MOL    O7625486   2.288   4.637   0.425  0.0318 -0.0870 -0.8507
   56MOL    C7725487   2.434   4.501   0.299  0.4442  0.5519  0.6525
   56MOL    C7825488   2.345   4.389   0.299 -0.3941 -0.2847  0.4963
   56MOL    C7925489   2.380   4.278   0.218 -0.0462 -0.3065 -0.0540
   56MOL    C8025490   2.503   4.268   0.144  0.6376 -0.1276 -0.5257
   56MOL    C8125491   2.542   4.148   0.066 -0.5950  0.4425 -0.2968
   56MOL    O8225492   2.471   4.045   0.051 -0.1078  0.1748  0.4234
   56MOL    O8325493   2.667   4.162   0.012 -0.5526  0.0716  0.6143
   56MOL    C8425494   2.585   4.381   0.144 -0.4383 -0.9176 -0.0376
   56MOL    C8525495   2.556   4.491   0.228  0.4147  0.3506  0.2867
   56MOL    H8625496   2.715   4.763   0.483  1.6017  1.3625  2.1854
   56MOL    H8725497   2.669   4.908   0.566  2.4931  3.4048 -2.8675
   56MOL    H8825498   2.467   4.910   0.407  0.5587  0.3856 -0.1566
   56MOL    H8925499   2.450   4.796   0.552 -0.3326  0.5542 -0.2010
   56MOL    H9025500   2.248   4.394   0.346 -0.3931 -2.4500  0.8111
   56MOL    H9125501   2.306   4.199   0.224  1.9959 -2.3381 -1.2020
   56MOL    H9225502   2.679   4.387   0.090 -0.0693  1.2317  0.7828
   56MOL    H9325503   2.618   4.580   0.227  1.5132 -0.3930 -2.2813
   56MOL    O9425504   2.718   4.044   8.206  0.5929  0.4259  0.1521
   56MOL    C9525505   2.800   3.962   0.013 -0.0408 -0.0157  0.2717
   56MOL    C9625506   2.883   3.861   8.213  0.0442 -0.5925  0.2514
   56MOL    O9725507   3.001   3.841   0.009  0.6607 -0.2079  0.5539
   56MOL    C9825508   3.016   3.729   0.080  0.2649  0.4935  0.3344
   56MOL    O9925509   2.922   3.655   0.107 -0.2008  0.0550 -0.8386
   56MOL   C10025510   3.157   3.710   0.129  1.0440 -0.7122 -0.0599
   56MOL   C10125511   3.199   3.604   0.212  0.7969 -0.9802 -0.5533
   56MOL   C10225512   3.331   3.583   0.241  0.7960 -0.2549  0.5361
   56MOL   C10325513   3.434   3.666   0.193 -0.3813  0.0935  0.5223
   56MOL   C10425514   3.579   3.633   0.230  0.3371  0.5977  0.0438
   56MOL   O10525515   3.605   3.538   0.299 -0.4629 -0.3344 -0.5234
   56MOL   O10625516   3.676   3.718   0.182  0.4440  0.7584 -0.1127
   56MOL   C10725517   3.393   3.770   0.109 -0.3041 -0.0408 -0.5570
   56MOL   C10825518   3.261   3.799   0.083  0.2274  0.6753  0.3104
   56MOL   H10925519   2.866   4.037   0.059  0.9050 -0.7725  0.1619
   56MOL   H11025520   2.739   3.916   0.091 -0.0888  1.7681  1.3227
   56MOL   H11125521   2.918   3.906   8.120 -0.8243 -1.6220 -0.5928
   56MOL   H11225522   2.824   3.770   8.198 -1.5082 -0.3225  4.0156
   56MOL   H11325523   3.121   3.534   0.239  0.7852 -0.8384 -0.2189
   56MOL   H11425524   3.353   3.504   0.310 -2.2059  1.1207  3.1857
   56MOL   H11525525   3.463   3.838   0.062  1.4024 -2.8653 -2.2568
   56MOL   H11625526   3.240   3.883   0.019 -0.7258  0.1900 -0.0300
   56MOL   O11725527   3.815   3.673   0.224 -0.7127 -0.3937 -0.3280
   56MOL   C11825528   3.871   3.562   0.142  0.1054 -0.1162 -0.4986
   56MOL   C11925529   3.911   3.607   0.000  0.1135  0.1955  0.8626
   56MOL   O12025530   3.803   3.671   8.208  0.2337 -0.6730 -0.2287
   56MOL   C12125531   3.706   3.595   8.150 -0.4207  0.0457  0.2219
   56MOL   O12225532   3.724   3.475   8.141  0.2938 -0.2191 -0.0057
   56MOL   C12325533   3.597   3.667   8.094  0.8034 -0.6929  0.2187
   56MOL   C12425534   3.585   3.805   8.103 -0.7805 -0.3001 -0.1782
   56MOL   C12525535   3.468   3.875   8.061  0.1799  0.2868  0.1800
   56MOL   C12625536   3.356   3.798   8.008 -0.0876  0.3869  0.0349
   56MOL   C12725537   3.227   3.867   7.973 -0.7280 -0.0097  0.1881
   56MOL   O12825538   3.220   3.985   7.991  0.7628  0.2431 -0.0643
   56MOL   O12925539   3.143   3.793   7.913 -0.3015  0.4944 -0.1626
   56MOL   C13025540   3.373   3.659   8.003 -0.5090 -0.0250 -0.1712
   56MOL   C13125541   3.496   3.595   8.032 -0.5818  0.2163  0.7835
   56MOL   H13225542   3.962   3.527   0.191 -0.1823  0.6718  0.6179
   56MOL   H13325543   3.798   3.482   0.138 -1.1944  1.1382 -3.2823
   56MOL   H13425544   3.947   3.516   8.228  0.2011  0.3382  0.6513
   56MOL   H13525545   3.998   3.673   0.002  2.9161 -3.3333  0.3701
   56MOL   H13625546   3.661   3.868   8.146 -0.4856 -1.6902  1.3697
   56MOL   H13725547   3.469   3.983   8.069  1.6068  0.3331 -0.4727
   56MOL   H13825548   3.293   3.594   7.971 -0.2787 -0.4164  0.0314
   56MOL   H13925549   3.498   3.487   8.022  0.6525  0.4132 -1.3684
   56MOL   O14025550   3.003   3.854   7.905 -0.3495  0.1268 -0.4946
   56MOL   C14125551   2.990   3.900   7.774  0.1658 -0.3233 -0.1873
   56MOL   C14225552   2.847   3.947   7.740  1.0593 -0.1790  0.2801
   56MOL   O14325553   2.828   3.969   7.606  0.1914 -0.0936  0.4919
   56MOL   C14425554   2.788   3.877   7.522 -0.0157  0.6712 -0.5403
   56MOL   O14525555   2.781   3.758   7.551  0.0876  0.3726 -0.3476
   56MOL   C14625556   2.758   3.929   7.383 -0.2024 -0.3229 -0.2904
   56MOL   C14725557   2.727   3.837   7.277  0.2212 -0.4314  0.1715
   56MOL   C14825558   2.715   3.886   7.143 -0.5536 -0.3919 -0.5043
   56MOL   C14925559   2.722   4.023   7.114 -0.2791  0.2645  0.1038
   56MOL   C15025560   2.716   4.076   6.979 -0.0418 -0.3215 -0.3346
   56MOL   O15125561   2.704   4.199   6.954 -0.8456  0.2357 -0.0304
   56MOL   O15225562   2.747   3.983   6.890 -0.1299 -0.2494 -0.6841
   56MOL   C15325563   2.727   4.115   7.222  0.0736 -0.1471 -0.0738
   56MOL   C15425564   2.761   4.067   7.354 -0.3661  0.3089  0.2767
   56MOL   H15525565   3.059   3.982   7.753  0.6973 -0.5645  0.6187
   56MOL   H15625566   3.013   3.821   7.703  1.3419 -0.9340  0.8605
   56MOL   H15725567   2.829   4.038   7.798 -1.8426 -0.2806 -0.3524
   56MOL   H15825568   2.771   3.873   7.763 -2.0450  3.2574  1.6377
   56MOL   H15925569   2.732   3.730   7.292  0.8642 -0.6053 -1.1992
   56MOL   H16025570   2.724   3.814   7.063  1.6945 -1.4291  0.6254
   56MOL   H16125571   2.715   4.222   7.211 -0.4097 -0.1947 -0.0033
   56MOL   H16225572   2.794   4.144   7.422  0.0599 -0.0895  0.5200
   56MOL   O16325573   2.774   4.041   6.757 -0.2178 -0.3478  0.4774
   56MOL   C16425574   2.914   4.041   6.730 -0.2512  0.0091  1.2882
   56MOL   C16525575   2.947   4.081   6.577  0.6697  0.8643 -0.3970
   56MOL   O16625576   3.082   4.099   6.554 -0.0264 -0.8786  0.1413
   56MOL   C16725577   3.124   4.228   6.566 -0.4501 -0.1197  0.1889
   56MOL   O16825578   3.058   4.328   6.598  0.2306  0.4237 -0.1283
   56MOL   C16925579   3.266   4.233   6.518 -0.1762  0.6430 -0.1893
   56MOL   C17025580   3.310   4.344   6.448 -0.5814  0.5571 -0.0390
   56MOL   C17125581   3.444   4.345   6.402  0.9125 -0.4433  0.5784
   56MOL   C17225582   3.531   4.234   6.426  0.7845  0.7302  1.2888
   56MOL   C17325583   3.662   4.225   6.356 -0.0143 -0.4662 -0.4791
   56MOL   O17425584   3.694   4.306   6.270  0.2719 -0.4877  0.0815
   56MOL   O17525585   3.746   4.134   6.410  0.1825 -0.9965 -0.5252
   56MOL   C17625586   3.489   4.126   6.507  0.0603 -0.2979 -0.1135
   56MOL   C17725587   3.352   4.125   6.551 -0.3668 -0.1247 -0.1312
   56MOL   H17825588   2.953   4.116   6.799  0.5038 -0.6900  1.6446
   56MOL   H17925589   2.941   3.938   6.754 -1.5986 -0.7217 -0.2849
   56MOL   H18025590   2.890   4.167   6.543  1.8886  2.8944  2.5608
   56MOL   H18125591   2.919   3.997   6.513  1.3006  1.2889 -1.2412
   56MOL   H18225592   3.241   4.423   6.421 -0.1161  0.8331 -0.4058
   56MOL   H18325593   3.470   4.432   6.344 -2.0445 -0.6638 -1.1538
   56MOL   H18425594   3.556   4.045   6.531  1.0399  0.8443  1.0363
   56MOL   H18525595   3.309   4.043   6.607 -1.0674  2.8382  3.8608
   56MOL   O18625596   3.892   4.178   6.432  0.2179  0.4317  0.3418
   56MOL   C18725597   3.970   4.128   6.317  0.6068 -0.6447 -0.1427
   56MOL   C18825598   4.001   3.981   6.353  0.1500  0.4253  0.2994
   56MOL   O18925599   4.144   3.959   6.345  1.1619  0.0731  0.5220
   56MOL   C19025600   4.211   3.936   6.234  0.9237 -0.6305 -0.2904
   56MOL   O19125601   4.153   3.947   6.124 -0.1424  0.2521  0.7607
   56MOL   C19225602   4.358   3.907   6.253 -0.7196  0.5932  0.5705
   56MOL   C19325603   4.410   3.911   6.385  0.3370  0.2020 -0.3213
   56MOL   C19425604   4.546   3.883   6.410  0.4347 -0.2197 -0.6524
   56MOL   C19525605   4.626   3.844   6.306 -0.1417 -0.1901 -0.5250
   56MOL   C19625606   4.769   3.805   6.341  0.5502 -0.1073 -0.5325
   56MOL   O19725607   4.803   3.761   6.451  0.2930 -0.1208 -0.4975
   56MOL   O19825608   4.855   3.806   6.236 -0.1981  0.0324  0.2713
   56MOL   C19925609   4.572   3.832   6.173  0.3177 -0.6379  0.1105
   56MOL   C20025610   4.439   3.860   6.155 -0.1073  0.1516  1.0990
   56MOL   H20125611   3.923   4.135   6.219 -0.4099 -0.5949  0.3368
   56MOL   H20225612   4.060   4.188   6.320 -0.5955  1.1496  0.8284
   56MOL   H20325613   3.937   3.916   6.295  1.2712 -0.8934  0.5151
   56MOL   H20425614   3.961   3.980   6.455  0.9995  1.0520  0.6513
   56MOL   H20525615   4.355   3.924   6.476  2.4627  1.9956  0.7482
   56MOL   H20625616   4.575   3.880   6.514 -1.8175 -0.8850 -0.0047
   56MOL   H20725617   4.631   3.792   6.092 -0.1911 -1.0836 -0.0391
   56MOL   H20825618   4.406   3.829   6.057 -0.1455  1.0547  0.8293
   56MOL   O20925619   5.000   3.778   6.261  0.3446  1.0270 -0.0084
   56MOL   C21025620   5.083   3.870   6.191  0.5632 -0.6129 -0.2944
   56MOL   C21125621   5.230   3.841   6.226  0.1968 -0.5405 -0.5985
   56MOL   O21225622   5.316   3.856   6.113 -0.6557 -0.3607 -0.1706
   56MOL   C21325623   5.326   3.977   6.054  0.3271 -0.3583  0.4096
   56MOL   O21425624   5.280   4.087   6.100 -0.1305 -0.8730 -0.1003
   56MOL   C21525625   5.396   3.973   5.919 -0.0178 -0.7340  0.1259
   56MOL   C21625626   5.409   4.090   5.843 -0.3208  0.1621  1.0266
   56MOL   C21725627   5.463   4.077   5.712  0.1557  0.4264 -0.7228
   56MOL   C21825628   5.540   3.966   5.674  0.7153 -0.5982  0.6128
   56MOL   C21925629   5.619   3.968   5.541 -0.2403  0.7219 -0.9958
   56MOL   O22025630   5.607   4.065   5.462 -0.2021 -0.3457 -0.2896
   56MOL   O22125631   5.695   3.870   5.528  0.5825 -0.8044  0.2508
   56MOL   C22225632   5.527   3.848   5.749 -0.8916 -0.5896 -0.0653
   56MOL   C22325633   5.449   3.850   5.865 -0.2569  0.1710 -0.5936
   56MOL   H22425634   5.061   3.880   6.085  0.1861 -1.3606 -0.2909
   56MOL   H22525635   5.056   3.967   6.232  1.0531 -0.3676 -0.5446
   56MOL   H22625636   5.246   3.740   6.264 -1.8188  0.3386  2.8907
   56MOL   H22725637   5.264   3.920   6.294  2.6104 -1.0546 -1.1605
   56MOL   H22825638   5.361   4.183   5.872  0.1349  0.3992  1.0412
   56MOL   H22925639   5.467   4.162   5.646 -0.2701  1.0723  0.0837
   56MOL   H23025640   5.588   3.766   5.715  1.5588  0.3117  2.0392
   56MOL   H23125641   5.453   3.754   5.914  0.0159  0.8502  0.7198
   56MOL   O23225642   5.794   3.879   5.416  0.0967  0.5352 -0.2686
   56MOL   C23325643   5.748   3.803   5.306 -0.6117  0.2215  0.5998
   56MOL   C23425644   5.796   3.658   5.311 -0.2163  0.0692 -0.1062
   56MOL   O23525645   5.750   3.593   5.421 -0.4341  0.5317  0.1365
   56MOL   C23625646   5.615   3.559   5.422  0.2714  0.3325 -0.4964
   56MOL   O23725647   5.535   3.552   5.324  0.1008  0.0634  0.3280
   56MOL   C23825648   5.567   3.548   5.568  0.0275  0.3218  0.8794
   56MOL   C23925649   5.428   3.565   5.586 -0.4745  0.2776  0.2091
   56MOL   C24025650   5.373   3.558   5.718 -1.0040 -0.3762 -0.5329
   56MOL   C24125651   5.454   3.514   5.823 -0.5104  0.3764  0.4053
   56MOL   C24225652   5.386   3.483   5.955 -0.1664 -0.0351  1.3602
   56MOL   O24325653   5.452   3.499   6.061 -0.2954 -0.4667 -0.6006
   56MOL   O24425654   5.268   3.428   5.942  0.2792  0.0663  0.1384
   56MOL   C24525655   5.593   3.492   5.806 -0.1643  0.0315 -0.5549
   56MOL   C24625656   5.651   3.519   5.678 -0.0498  0.2316  0.2842
   56MOL   H24725657   5.639   3.806   5.302 -0.5868  1.0863  0.5229
   56MOL   H24825658   5.781   3.855   5.216  0.6622  1.7701  1.9203
   56MOL   H24925659   5.905   3.659   5.298 -0.2494  0.8899 -0.3285
   56MOL   H25025660   5.757   3.612   5.220 -0.0927  1.1462 -0.7056
   56MOL   H25125661   5.369   3.604   5.505 -1.0513 -0.6804  0.1552
   56MOL   H25225662   5.268   3.583   5.721 -0.9794 -0.4022  0.8658
   56MOL   H25325663   5.648   3.454   5.890  0.2738  0.3417 -0.7025
   56MOL   H25425664   5.758   3.515   5.667 -0.2069 -1.1531 -0.9378
   56MOL   O25525665   5.211   3.379   6.069  0.5153  0.0397  0.2134
   56MOL   C25625666   5.119   3.473   6.125  0.0005  0.2383 -0.2278
   56MOL   C25725667   4.989   3.498   6.041  0.1143 -0.4996 -0.3439
   56MOL   O25825668   5.014   3.604   5.950 -0.1821  0.2738 -0.5134
   56MOL   C25925669   4.918   3.683   5.907 -0.2121  0.1352  0.0395
   56MOL   O26025670   4.799   3.673   5.942 -0.0959  0.3350 -0.0481
   56MOL   C26125671   4.970   3.788   5.824 -0.5414  0.6030  0.2844
   56MOL   C26225672   5.112   3.807   5.803 -0.3059 -0.2216 -0.0966
   56MOL   C26325673   5.157   3.918   5.724  1.0587 -0.1569 -0.1996
   56MOL   C26425674   5.062   3.996   5.656 -0.2016 -0.6418 -0.0184
   56MOL   C26525675   5.114   4.103   5.564  0.0478 -0.1248  0.4140
   56MOL   O26625676   5.227   4.099   5.528 -0.1551  0.6489  0.2391
   56MOL   O26725677   5.025   4.189   5.524  0.3420 -0.9597 -0.4633
   56MOL   C26825678   4.926   3.980   5.675  1.2208 -0.1133  0.1093
   56MOL   C26925679   4.883   3.876   5.760 -1.0621 -0.1425  0.3532
   56MOL   H27025680   5.090   3.425   6.218  0.1330  0.6926  0.0511
   56MOL   H27125681   5.166   3.569   6.147  0.6883 -0.2129  0.2979
   56MOL   H27225682   4.906   3.523   6.108  0.0367  1.1133 -1.0170
   56MOL   H27325683   4.961   3.411   5.982  0.6899 -1.4575  0.7793
   56MOL   H27425684   5.189   3.749   5.851 -0.4550  0.3336  0.8158
   56MOL   H27525685   5.263   3.934   5.722  0.7835  1.5564 -2.8953
   56MOL   H27625686   4.854   4.050   5.636 -0.2620 -1.3534  0.5896
   56MOL   H27725687   4.777   3.876   5.781 -0.8114 -0.4806  1.7002
   56MOL   O27825688   5.071   4.278   5.404 -0.0141 -0.0815  0.1240
   56MOL   C27925689   5.038   4.211   5.281  0.2840 -0.3368 -1.0624
   56MOL   C28025690   5.020   4.304   5.163 -0.2619  0.8664 -0.0002
   56MOL   O28125691   4.900   4.383   5.160  0.3260  0.0260 -0.1752
   56MOL   C28225692   4.775   4.327   5.144  0.7653 -0.8479 -0.6470
   56MOL   O28325693   4.754   4.207   5.124 -0.1025  0.1366 -0.4936
   56MOL   C28425694   4.669   4.428   5.155  0.7508 -1.0798 -0.5462
   56MOL   C28525695   4.703   4.560   5.202 -0.7173 -0.4843 -0.0278
   56MOL   C28625696   4.604   4.655   5.204 -0.8679 -0.0186 -0.5426
   56MOL   C28725697   4.478   4.635   5.138  0.2692 -0.8164  0.5871
   56MOL   C28825698   4.387   4.753   5.119 -0.1489 -0.6055 -0.1106
   56MOL   O28925699   4.388   4.852   5.188  0.0372 -0.0320  0.7336
   56MOL   O29025700   4.282   4.723   5.032 -0.6571 -0.8635 -0.4715
   56MOL   C29125701   4.444   4.506   5.088  0.4844  0.4207 -1.0412
   56MOL   C29225702   4.539   4.404   5.102 -0.6351  0.2159  0.1843
   56MOL   H29325703   5.116   4.141   5.251  0.0496 -0.6529 -0.9363
   56MOL   H29425704   4.955   4.140   5.287  0.8868 -0.8348  2.4390
   56MOL   H29525705   5.024   4.254   5.066 -4.5629 -1.8615  1.1050
   56MOL   H29625706   5.092   4.385   5.162 -3.2777  3.6830 -3.0474
   56MOL   H29725707   4.797   4.581   5.253 -0.4437  0.2050 -0.8189
   56MOL   H29825708   4.614   4.750   5.254  0.2626 -1.6007  2.3690
   56MOL   H29925709   4.351   4.469   5.048  0.1480 -1.6143  1.4877
   56MOL   H30025710   4.509   4.309   5.059  0.3715 -0.0028 -0.0450
   56MOL   O30125711   4.166   4.823   5.024 -0.1204 -0.2511 -0.1506
   56MOL   C30225712   4.057   4.755   5.077 -0.0574 -0.1421 -0.8119
   56MOL   C30325713   3.934   4.842   5.053  0.4386  0.4728 -0.7552
   56MOL   O30425714   3.882   4.905   5.169 -0.1637 -0.1960  0.0097
   56MOL   C30525715   3.821   4.839   5.267  0.0915 -0.6643  0.4394
   56MOL   O30625716   3.806   4.719   5.266  0.0824  0.5245 -0.2099
   56MOL   C30725717   3.756   4.933   5.361  0.3082  0.5619  0.6262
   56MOL   C30825718   3.707   4.886   5.484  0.1888 -0.6336  0.0694
   56MOL   C30925719   3.640   4.963   5.580  0.1330  0.1605  0.1329
   56MOL   C31025720   3.608   5.095   5.548  0.1071 -0.1851  0.8116
   56MOL   C31125721   3.518   5.173   5.626 -0.1628  0.1873 -0.0315
   56MOL   O31225722   3.475   5.143   5.741 -0.0771 -0.8278 -0.0107
   56MOL   O31325723   3.479   5.290   5.569  0.3965 -0.8176  0.1247
   56MOL   C31425724   3.673   5.155   5.430  0.7421  1.4360  0.2828
   56MOL   C31525725   3.735   5.073   5.337 -0.0179  0.1670 -0.1807
   56MOL   H31625726   4.046   4.658   5.030  2.3628 -0.4816 -0.7436
   56MOL   H31725727   4.079   4.745   5.183 -0.8797 -0.0680 -0.6313
   56MOL   H31825728   3.850   4.798   4.999  1.2863 -0.4184 -1.3581
   56MOL   H31925729   3.967   4.926   4.992  1.8017  0.6131  0.1602
   56MOL   H32025730   3.727   4.782   5.506  1.8627 -0.7167 -1.7052
   56MOL   H32125731   3.617   4.923   5.678 -2.5838 -1.1013 -0.9749
   56MOL   H32225732   3.662   5.256   5.392  0.7745  0.6838 -1.8078
   56MOL   H32325733   3.777   5.110   5.245 -1.4548 -2.4499 -1.9750
   56MOL   O32425734   3.392   5.383   5.655  0.1548  0.1864  0.1541
   56MOL   C32525735   3.253   5.353   5.626 -0.1119  0.1211  0.5328
   56MOL   C32625736   3.229   5.378   5.474  0.5414 -0.0288 -0.0649
   56MOL   O32725737   3.275   5.272   5.390 -0.2049  0.8574  0.2228
   56MOL   C32825738   3.238   5.268   5.264  0.4066 -0.3323 -0.4749
   56MOL   O32925739   3.158   5.347   5.219 -0.2894  0.4167  0.1752
   56MOL   C33025740   3.306   5.173   5.176 -0.5226 -0.4553 -0.5892
   56MOL   C33125741   3.280   5.181   5.037  0.0608 -1.0280  0.5863
   56MOL   C33225742   3.326   5.084   4.946  0.9202 -0.0324  0.1230
   56MOL   C33325743   3.407   4.975   4.995 -0.5504 -0.6687 -0.0812
   56MOL   C33425744   3.465   4.867   4.903  0.1985  0.3129 -0.8056
   56MOL   O33525745   3.513   4.762   4.946  0.2535  0.4379  0.3061
   56MOL   O33625746   3.442   4.885   4.771  0.4486 -0.1199 -0.4227
   56MOL   C33725747   3.440   4.971   5.132 -0.2126  0.2121 -0.1871
   56MOL   C33825748   3.394   5.072   5.223 -0.2011  0.0340  0.2963
   56MOL   H33925749   3.223   5.252   5.653 -2.8500  0.5885 -0.5162
   56MOL   H34025750   3.196   5.418   5.693 -0.3188  0.4015  0.0884
   56MOL   H34125751   3.296   5.459   5.446  0.9945 -1.4027 -3.0885
   56MOL   H34225752   3.130   5.422   5.457  0.5007 -0.0617  0.0838
   56MOL   H34325753   3.209   5.254   5.001  1.6391  0.4071  0.3085
   56MOL   H34425754   3.294   5.090   4.843 -0.7531 -2.6280  0.4524
   56MOL   H34525755   3.497   4.883   5.161 -1.7009 -1.0950 -1.1185
   56MOL   H34625756   3.415   5.052   5.327  0.7083  2.1915  0.5547
   56MOL   O34725757   3.485   4.775   4.682 -0.0177  0.4446  0.3367
   56MOL   C34825758   3.613   4.805   4.620  0.2828 -0.0343 -0.5331
   56MOL   C34925759   3.724   4.701   4.656 -0.2969 -0.1663 -0.2162
   56MOL   O35025760   3.841   4.755   4.602 -0.0590 -0.0126  0.0296
   56MOL   C35125761   3.909   4.844   4.672 -0.3420  0.0540 -0.3142
   56MOL   O35225762   3.865   4.905   4.772 -0.0384  0.3447 -0.1011
   56MOL   C35325763   4.045   4.863   4.621 -0.4818 -0.5856 -0.2063
   56MOL   C35425764   4.132   4.932   4.702  0.6392 -0.6299 -1.3638
   56MOL   C35525765   4.264   4.947   4.673 -0.0784  0.1387  0.2065
   56MOL   C35625766   4.315   4.906   4.545  0.5428 -0.4423 -0.1643
   56MOL   C35725767   4.454   4.903   4.501 -0.8966  0.3162  0.0908
   56MOL   O35825768   4.498   4.884   4.386  0.0872 -0.5332 -0.1242
   56MOL   O35925769   4.535   4.924   4.607  0.1799 -0.4099  0.2647
   56MOL   C36025770   4.223   4.850   4.452 -0.4186  0.3303  0.5350
   56MOL   C36125771   4.092   4.822   4.494 -0.4607  0.1907 -0.3031
   56MOL   H36225772   3.589   4.780   4.517  1.6439  1.0682 -1.1364
   56MOL   H36325773   3.639   4.910   4.628  0.1624 -0.0320 -0.1673
   56MOL   H36425774   3.701   4.604   4.612  0.2028  0.1982 -1.2899
   56MOL   H36525775   3.734   4.694   4.764  0.5641  0.1197 -0.2685
   56MOL   H36625776   4.092   4.961   4.798  1.5011 -1.3337 -0.7829
   56MOL   H36725777   4.328   4.998   4.743  1.0616  0.5585 -1.1112
   56MOL   H36825778   4.249   4.825   4.350 -0.8379  1.2381  0.2083
   56MOL   H36925779   4.018   4.785   4.423 -0.5815  3.6816 -2.0977
   56MOL   O37025780   4.663   4.996   4.577  0.2830  0.3074 -0.0855
   56MOL   C37125781   4.652   5.129   4.635 -0.0016 -0.2669 -0.0267
   56MOL   C37225782   4.762   5.227   4.602  0.5409 -0.5896 -0.3987
   56MOL   O37325783   4.889   5.179   4.652  0.5454 -0.2074  0.4738
   56MOL   C37425784   4.932   5.219   4.775 -0.1778 -0.0865 -0.5794
   56MOL   O37525785   4.871   5.294   4.847 -0.0646 -0.0213  0.3366
   56MOL   C37625786   5.061   5.161   4.818  1.2300  0.1814 -0.3561
   56MOL   C37725787   5.133   5.206   4.926  0.2290 -0.6171  0.7480
   56MOL   C37825788   5.243   5.134   4.972  0.0169  0.7025  0.0129
   56MOL   C37925789   5.293   5.017   4.907  0.0641  0.0565 -0.4115
   56MOL   C38025790   5.412   4.940   4.955  0.0546 -0.1641  0.2058
   56MOL   O38125791   5.466   4.846   4.894  0.1550 -0.2442 -0.2731
   56MOL   O38225792   5.454   4.980   5.072 -0.1516  0.1285  0.2291
   56MOL   C38325793   5.227   4.977   4.791  0.2688  0.5138  0.5211
   56MOL   C38425794   5.102   5.038   4.751  0.0095  0.1733  0.2395
   56MOL   H38525795   4.559   5.166   4.592 -0.5642 -1.2255  0.3333
   56MOL   H38625796   4.643   5.111   4.742  2.0584 -0.4189  0.1485
   56MOL   H38725797   4.746   5.330   4.633  0.7123 -1.2546  2.0392
   56MOL   H38825798   4.789   5.241   4.498 -0.5244  2.1297 -0.3446
   56MOL   H38925799   5.099   5.291   4.982  1.2771 -0.3325  0.9608
   56MOL   H39025800   5.287   5.165   5.065 -0.4621 -0.6076  0.6856
   56MOL   H39125801   5.273   4.898   4.734  0.9023 -0.7266  2.6912
   56MOL   H39225802   5.055   4.993   4.666 -0.4358  1.6866 -0.3362
   56MOL   O39325803   5.588   4.902   5.119 -0.5279  0.8096  0.1345
   56MOL   C39425804   5.556   4.848   5.243 -0.1248  0.0607  0.1610
   56MOL   C39525805   5.676   4.774   5.316 -0.6537 -0.4209 -0.0411
   56MOL   O39625806   5.777   4.865   5.360 -0.1974 -0.5663  0.0137
   56MOL   C39725807   5.867   4.924   5.281  0.1941  0.2441  0.4445
   56MOL   O39825808   5.859   4.909   5.160 -0.0931  0.0866 -0.5855
   56MOL   C39925809   5.967   5.013   5.350 -0.4646  0.0251 -0.0475
   56MOL   C40025810   5.965   5.053   5.487 -0.0902 -0.3809 -0.2175
   56MOL   C40125811   6.082   5.115   5.545  0.2139  0.6720 -0.1527
   56MOL   C40225812   6.189   5.159   5.464 -0.2681  0.1490  0.3915
   56MOL   C40325813   6.308   5.238   5.529 -0.3423  0.0722  0.6137
   56MOL   O40425814   6.293   5.293   5.638 -0.0429  0.0546 -0.6452
   56MOL   O40525815   6.413   5.247   5.449 -0.3291  0.1486 -0.5774
   56MOL   C40625816   6.188   5.124   5.324 -0.3807  0.1261  0.2383
   56MOL   C40725817   6.075   5.053   5.270 -0.3168  0.3197  0.9857
   56MOL   H40825818   5.531   4.930   5.310  0.4762  0.7906 -0.5003
   56MOL   H40925819   5.475   4.778   5.221 -0.3061 -0.0232  1.0916
   56MOL   H41025820   5.719   4.692   5.259  1.9068 -1.3141  3.0123
   56MOL   H41125821   5.646   4.723   5.407  2.1946 -0.4193  0.9667
   56MOL   H41225822   5.899   5.012   5.561 -1.3857 -0.3853 -1.3610
   56MOL   H41325823   6.093   5.133   5.651 -0.0149  0.3383 -0.0727
   56MOL   H41425824   6.272   5.154   5.263  0.6858  0.0467  1.6412
   56MOL   H41525825   6.082   5.019   5.168  1.6537  1.1966  0.8042
   56MOL   O41625826   6.520   5.335   5.509  0.1527 -0.0473 -0.2716
   56MOL   C41725827   6.519   5.459   5.446 -0.0981  0.5477  0.8575
   56MOL   C41825828   6.623   5.554   5.504 -0.6464  0.3269  0.0477
   56MOL   O41925829   6.579   5.571   5.639  0.0296  0.4811 -0.3939
   56MOL   C42025830   6.607   5.677   5.711 -0.0555  0.6262 -0.1192
   56MOL   O42125831   6.674   5.769   5.664 -0.1889  0.2142 -0.3669
   56MOL   C42225832   6.546   5.672   5.848 -0.4829  0.0028 -0.2914
   56MOL   C42325833   6.475   5.553   5.888  0.5736 -0.6872  0.1527
   56MOL   C42425834   6.420   5.560   6.022 -0.2327 -0.2600  0.4105
   56MOL   C42525835   6.438   5.664   6.113  0.5397 -0.5846 -0.3901
   56MOL   C42625836   6.406   5.646   6.256 -0.1132  0.5694  0.1765
   56MOL   O42725837   6.351   5.545   6.297 -0.0349  0.3820  0.6507
   56MOL   O42825838   6.454   5.743   6.342  0.1800 -0.0153  0.6111
   56MOL   C42925839   6.509   5.779   6.067  0.4814 -0.0908 -0.6601
   56MOL   C43025840   6.561   5.782   5.929 -0.5887  0.2561  0.3396
   56MOL   H43125841   6.534   5.440   5.340 -0.7929 -0.7782  0.9911
   56MOL   H43225842   6.416   5.494   5.439 -0.7889 -1.7050 -0.8929
   56MOL   H43325843   6.618   5.650   5.453 -1.4000  0.9180  1.2027
   56MOL   H43425844   6.729   5.531   5.503 -0.6110  0.4303  0.8511
   56MOL   H43525845   6.460   5.469   5.823  0.4132 -1.2099  0.8536
   56MOL   H43625846   6.368   5.473   6.060  0.8990 -0.8776  0.5599
   56MOL   H43725847   6.537   5.857   6.136 -0.4334  0.6045 -1.0563
   56MOL   H43825848   6.622   5.867   5.903  2.2375 -1.6264  0.6031
   56MOL   O43925849   6.437   5.701   6.484  0.1735  0.1590 -0.3509
   56MOL   C44025850   6.340   5.792   6.535  0.1457  0.7578  0.2802
   56MOL   C44125851   6.295   5.737   6.672 -0.2583  0.3167 -0.4409
   56MOL   O44225852   6.409   5.724   6.758  0.1259 -0.0097  0.6909
   56MOL   C44325853   6.456   5.832   6.821  0.1431 -0.6304 -0.5176
   56MOL   O44425854   6.395   5.939   6.823 -0.1358  0.0419  0.1532
   56MOL   C44525855   6.585   5.813   6.894  0.0235 -0.7785 -0.0614
   56MOL   C44625856   6.650   5.688   6.909  0.9231  0.3882 -0.0484
   56MOL   C44725857   6.768   5.681   6.969 -0.6203  0.1845  1.2452
   56MOL   C44825858   6.841   5.792   7.015 -0.2649  0.6548 -0.2083
   56MOL   C44925859   6.988   5.782   7.054 -0.0746 -0.2681 -0.3169
   56MOL   O45025860   7.032   5.859   7.138  0.0447  0.4529 -0.3388
   56MOL   O45125861   7.057   5.686   6.996  0.2685  0.1082 -0.6507
   56MOL   C45225862   6.774   5.917   7.008 -0.7190 -0.6742  0.6512
   56MOL   C45325863   6.647   5.928   6.949  0.0927  0.2085  0.3458
   56MOL   H45425864   6.390   5.889   6.533  3.0870 -0.6699  1.2583
   56MOL   H45525865   6.253   5.802   6.470 -0.0163  4.3361  0.9406
   56MOL   H45625866   6.250   5.639   6.664  0.4601 -0.0934  0.4267
   56MOL   H45725867   6.227   5.808   6.719  1.4524  1.5751  0.2103
   56MOL   H45825868   6.614   5.598   6.861 -0.3802  1.6936 -1.5655
   56MOL   H45925869   6.816   5.584   6.966  1.6835  1.2797  1.4047
   56MOL   H46025870   6.833   6.003   7.038  0.0716  0.0961 -2.9431
   56MOL   H46125871   6.595   6.022   6.947 -2.0235 -0.8695  2.3705
   56MOL   H46225872   7.135   5.678   7.049 -2.0131  1.6431  3.1465
   57MOL     O125873   0.499   3.724   7.449 -0.8121 -0.3681 -0.1876
   57MOL     C225874   0.400   3.735   7.553 -0.3367  0.1944  0.0261
   57MOL     C325875   0.447   3.824   7.671 -0.8076 -0.6191  0.3894
   57MOL     O425876   0.511   3.740   7.769 -0.4346 -0.4615 -0.1869
   57MOL     C525877   0.643   3.712   7.750  0.3737  0.3718  0.7968
   57MOL     O625878   0.713   3.733   7.652 -0.2665  0.4343  0.0651
   57MOL     C725879   0.694   3.644   7.874  0.5695  0.5649  0.2158
   57MOL     C825880   0.621   3.575   7.971 -0.5331 -0.5122 -0.0913
   57MOL     C925881   0.682   3.510   8.076 -0.2116  0.1674 -0.2711
   57MOL    C1025882   0.825   3.514   8.093  0.0529 -0.2188 -0.4958
   57MOL    C1125883   0.882   3.457   8.216 -0.3277  0.3046 -0.3287
   57MOL    O1225884   1.004   3.445   8.229 -0.2381  0.6033  0.3505
   57MOL    O1325885   0.795   3.433   0.036 -0.0642  0.4300  0.2450
   57MOL    C1425886   0.902   3.570   7.985  0.3245  0.3182 -0.1234
   57MOL    C1525887   0.835   3.637   7.878 -0.1230  0.1546  0.2983
   57MOL    H1625888   0.316   3.787   7.508  1.7044  1.9882 -1.8771
   57MOL    H1725889   0.368   3.640   7.595  2.8844 -0.3802  1.3317
   57MOL    H1825890   0.353   3.861   7.712 -1.4909 -3.0832  1.1311
   57MOL    H1925891   0.514   3.903   7.637 -0.1737 -1.8380 -1.2967
   57MOL    H2025892   0.514   3.567   7.971 -0.7734  2.0794  2.4788
   57MOL    H2125893   0.614   3.474   8.153 -0.7458  1.4446 -0.1400
   57MOL    H2225894   1.010   3.570   7.979  0.3188  1.7830 -0.2576
   57MOL    H2325895   0.894   3.672   7.794  1.4212  0.3075  1.4348
   57MOL    H2425896   0.558   3.658   7.483 -0.7851  0.8260  2.1513
   57MOL    O2525897   0.850   3.371   0.163 -0.6337 -0.1734 -0.3859
   57MOL    C2625898   0.823   3.232   0.155 -0.8662  0.3671 -0.1462
   57MOL    C2725899   0.897   3.168   0.279 -0.0979 -0.2044 -0.1037
   57MOL    O2825900   1.032   3.138   0.252 -0.0412  0.7241 -0.4077
   57MOL    C2925901   1.081   3.016   0.300  0.2399  0.7250  0.4713
   57MOL    O3025902   1.029   2.935   0.372  0.0814 -0.7290  0.0562
   57MOL    C3125903   1.220   2.998   0.244 -0.5690 -0.0455  0.1569
   57MOL    C3225904   1.283   2.869   0.249 -0.6777 -0.0488 -0.1674
   57MOL    C3325905   1.409   2.847   0.197 -0.3393 -0.1764 -0.4987
   57MOL    C3425906   1.481   2.952   0.129 -0.4252 -0.2505 -0.4360
   57MOL    C3525907   1.609   2.930   0.056  0.2372 -0.1941 -0.4622
   57MOL    O3625908   1.678   3.022   0.005  0.2643  0.2567  0.2679
   57MOL    O3725909   1.649   2.805   0.064 -0.6894 -0.3023  0.4912
   57MOL    C3825910   1.418   3.075   0.123  0.2184 -0.6825 -0.2954
   57MOL    C3925911   1.289   3.099   0.177  0.3270 -0.0354 -0.6243
   57MOL    H4025912   0.717   3.222   0.177 -1.0433  0.2871 -1.0116
   57MOL    H4125913   0.864   3.186   0.065 -1.5425  1.1722 -0.8685
   57MOL    H4225914   0.837   3.086   0.318  1.8987 -0.9228  1.5749
   57MOL    H4325915   0.909   3.235   0.364  1.3747 -1.4544  0.7023
   57MOL    H4425916   1.226   2.789   0.294 -1.8715  2.0022  2.0611
   57MOL    H4525917   1.448   2.747   0.202 -0.4520 -0.2119 -0.3357
   57MOL    H4625918   1.460   3.165   0.079 -1.0464 -0.1809 -0.4781
   57MOL    H4725919   1.261   3.203   0.170 -0.9953 -0.1768  1.8426
   57MOL    O4825920   1.798   2.779   0.049  0.0421 -0.3914 -0.4772
   57MOL    C4925921   1.848   2.727   0.164  0.0538  0.0738  0.0384
   57MOL    C5025922   1.775   2.611   0.232 -0.8160  0.8133 -0.0197
   57MOL    O5125923   1.795   2.608   0.374  0.3669  0.1071  0.3379
   57MOL    C5225924   1.916   2.555   0.416  1.1135  0.1370 -0.2057
   57MOL    O5325925   2.010   2.524   0.343 -0.1392 -0.2279  0.0379
   57MOL    C5425926   1.925   2.536   0.564 -0.0726  0.2065 -0.4489
   57MOL    C5525927   2.043   2.474   0.612  0.3506 -0.6864  0.7241
   57MOL    C5625928   2.063   2.465   0.752  0.0255 -0.0100  0.7611
   57MOL    C5725929   1.978   2.513   0.852  0.5177  0.4068  0.1427
   57MOL    C5825930   2.018   2.515   0.996 -0.2376 -0.2653  0.2440
   57MOL    O5925931   2.118   2.462   1.046 -0.2150  0.1245  0.0306
   57MOL    O6025932   1.933   2.597   1.068  0.3809 -0.1436  0.1356
   57MOL    C6125933   1.864   2.580   0.803  0.8767  0.1302  0.4283
   57MOL    C6225934   1.838   2.587   0.664  0.1357  0.1579 -0.3643
   57MOL    H6325935   1.950   2.697   0.139  0.3096  0.4013  0.6684
   57MOL    H6425936   1.862   2.808   0.237  0.6643  0.7879 -0.8582
   57MOL    H6525937   1.802   2.520   0.178 -1.2004  1.1116 -0.7162
   57MOL    H6625938   1.667   2.621   0.231 -1.0497 -1.3429  1.1705
   57MOL    H6725939   2.127   2.435   0.556  1.0345  1.9973 -0.2005
   57MOL    H6825940   2.152   2.417   0.792  0.2074  0.3561  0.7974
   57MOL    H6925941   1.784   2.620   0.863  0.5018 -1.9427  1.3427
   57MOL    H7025942   1.757   2.651   0.635 -0.1012  0.1282  0.2450
   57MOL    O7125943   1.962   2.583   1.210  0.3234  0.2341 -0.0572
   57MOL    C7225944   2.048   2.691   1.253  0.0391 -0.7782 -0.2829
   57MOL    C7325945   2.120   2.667   1.389  0.6921 -0.0665  0.1678
   57MOL    O7425946   2.038   2.712   1.486 -0.0529 -0.3073  0.4682
   57MOL    C7525947   2.072   2.694   1.619  0.1328 -0.2226  0.1840
   57MOL    O7625948   2.164   2.617   1.649 -0.4095  0.1913 -0.2145
   57MOL    C7725949   1.973   2.758   1.712  0.2756  0.1168  0.8162
   57MOL    C7825950   1.949   2.694   1.836 -0.5161 -1.1018  0.5749
   57MOL    C7925951   1.850   2.747   1.919  0.5709 -0.1648 -0.1020
   57MOL    C8025952   1.773   2.865   1.886  0.0053 -0.1669 -0.4685
   57MOL    C8125953   1.676   2.930   1.980 -0.3253 -0.2405  0.8411
   57MOL    O8225954   1.623   3.037   1.945 -0.0717 -0.0306 -0.2947
   57MOL    O8325955   1.644   2.862   2.087 -0.0215 -0.2950  0.7742
   57MOL    C8425956   1.800   2.928   1.760  0.5934  0.5835 -0.2306
   57MOL    C8525957   1.894   2.872   1.677  0.5657 -0.5807  0.2650
   57MOL    H8625958   2.123   2.704   1.175  2.8688 -0.2885  2.4778
   57MOL    H8725959   1.985   2.780   1.247 -0.6725 -1.1772  1.0396
   57MOL    H8825960   2.218   2.716   1.392  0.4930  0.3520 -0.1312
   57MOL    H8925961   2.137   2.559   1.391 -0.9146 -0.3156  1.7434
   57MOL    H9025962   2.009   2.610   1.865  0.5024 -0.3368  0.6928
   57MOL    H9125963   1.822   2.684   2.002  1.9879 -1.1433 -0.3453
   57MOL    H9225964   1.736   3.003   1.716 -0.7605 -1.3025 -1.6273
   57MOL    H9325965   1.912   2.927   1.586 -1.2065  1.4050  1.0658
   57MOL    O9425966   1.528   2.919   2.171  0.4301  0.2402 -0.3169
   57MOL    C9525967   1.581   2.970   2.294  0.4016  0.4653 -0.1438
   57MOL    C9625968   1.659   3.103   2.292 -0.6354  0.9474  0.3713
   57MOL    O9725969   1.791   3.074   2.247 -0.0668 -0.5631  0.6862
   57MOL    C9825970   1.883   3.030   2.334 -0.5006 -0.1017  0.1060
   57MOL    O9925971   1.858   3.002   2.455  0.0270 -0.2520 -0.0427
   57MOL   C10025972   2.008   2.981   2.272 -0.2103 -0.7994  0.4561
   57MOL   C10125973   2.016   3.001   2.134  0.7451 -0.6497 -0.3370
   57MOL   C10225974   2.129   2.963   2.065 -0.3351 -0.5480  0.2357
   57MOL   C10325975   2.235   2.893   2.128  0.0599 -0.1651  0.0040
   57MOL   C10425976   2.350   2.838   2.050  0.2281  0.0977 -0.5560
   57MOL   O10525977   2.459   2.812   2.112 -0.2248  0.7663  0.3910
   57MOL   O10625978   2.330   2.826   1.924 -0.1271  0.0501  0.5405
   57MOL   C10725979   2.225   2.877   2.267  0.4963  0.8165 -0.1676
   57MOL   C10825980   2.114   2.922   2.341 -0.1091  0.0235 -0.3150
   57MOL   H10925981   1.498   2.987   2.363 -1.8204 -0.2165 -2.5756
   57MOL   H11025982   1.637   2.897   2.352 -0.9388  1.5913  2.6830
   57MOL   H11125983   1.654   3.154   2.388 -1.5529  2.0290 -0.2429
   57MOL   H11225984   1.601   3.166   2.224  1.7695  0.5376 -2.1496
   57MOL   H11325985   1.947   3.051   2.068  1.0400 -0.1199 -0.2437
   57MOL   H11425986   2.134   2.971   1.958  0.9420  0.7416  0.3768
   57MOL   H11525987   2.310   2.828   2.313  1.2657  0.2005 -2.1898
   57MOL   H11625988   2.109   2.890   2.444 -0.3592 -2.3874 -1.0281
   57MOL   O11725989   2.454   2.771   1.855  0.4643  0.5692 -0.1408
   57MOL   C11825990   2.498   2.870   1.762 -0.4521  0.3915  0.0190
   57MOL   C11925991   2.620   2.828   1.673  0.4923  0.3798 -0.3326
   57MOL   O12025992   2.585   2.731   1.575  0.6408  0.1542 -0.6754
   57MOL   C12125993   2.512   2.757   1.470  0.0030 -0.5285  1.0084
   57MOL   O12225994   2.450   2.866   1.463 -0.5617  0.2477 -0.6567
   57MOL   C12325995   2.508   2.651   1.375  0.0987  0.1761  0.0389
   57MOL   C12425996   2.445   2.680   1.253 -0.6537 -0.2014 -0.7719
   57MOL   C12525997   2.446   2.584   1.151 -0.3770 -0.6275 -0.1613
   57MOL   C12625998   2.511   2.460   1.163  0.2729 -0.2434 -0.3863
   57MOL   C12725999   2.525   2.368   1.052  0.6918  0.2179  0.1798
   57MOL   O12826000   2.599   2.271   1.043 -0.0454 -0.6612  0.3760
   57MOL   O12926001   2.443   2.401   0.946 -0.0519  1.1588  0.1586
   57MOL   C13026002   2.562   2.423   1.296 -0.1945  0.4673  0.4580
   57MOL   C13126003   2.560   2.520   1.399  0.1409  0.3992 -0.3473
   57MOL   H13226004   2.413   2.898   1.700 -0.6789 -1.4568 -0.5359
   57MOL   H13326005   2.537   2.959   1.811  0.8770  1.0249 -2.1456
   57MOL   H13426006   2.699   2.788   1.736 -0.2985 -3.3588 -1.6144
   57MOL   H13526007   2.652   2.915   1.615 -0.6001  0.9822 -0.0478
   57MOL   H13626008   2.394   2.774   1.241  1.1889  0.8188 -0.8525
   57MOL   H13726009   2.413   2.611   1.052  0.7198 -2.0428 -0.9272
   57MOL   H13826010   2.612   2.328   1.313  0.4763  1.0209  1.5580
   57MOL   H13926011   2.599   2.505   1.498 -0.1029  0.8892 -0.1756
   57MOL   O14026012   2.417   2.288   0.852 -0.0527 -0.0979 -0.2733
   57MOL   C14126013   2.317   2.198   0.902  0.2475  0.3259  0.1418
   57MOL   C14226014   2.384   2.063   0.913 -0.3784  0.1938 -0.2849
   57MOL   O14326015   2.354   1.981   0.803 -0.8199  0.2196  0.1184
   57MOL   C14426016   2.440   1.960   0.702  0.0910  0.2048  0.5784
   57MOL   O14526017   2.550   2.015   0.680  0.1256 -0.0849  0.6784
   57MOL   C14626018   2.402   1.847   0.607 -0.0237 -0.0098 -0.1718
   57MOL   C14726019   2.500   1.793   0.520 -0.3584  0.0821 -0.3210
   57MOL   C14826020   2.466   1.677   0.439  0.4481  0.6405  0.2278
   57MOL   C14926021   2.333   1.630   0.428 -0.3477  0.2737  0.0686
   57MOL   C15026022   2.292   1.515   0.343 -0.3585 -0.8226 -0.1971
   57MOL   O15126023   2.194   1.444   0.356 -0.3147 -0.2350 -0.1258
   57MOL   O15226024   2.380   1.479   0.254 -0.0172 -0.7597  0.0065
   57MOL   C15326025   2.237   1.690   0.507  0.5510 -0.1806 -0.1036
   57MOL   C15426026   2.269   1.799   0.598 -0.4487 -0.1288  0.2030
   57MOL   H15526027   2.267   2.225   0.995 -2.1344 -4.7604  0.4774
   57MOL   H15626028   2.241   2.186   0.825  0.3987  1.1353 -0.1410
   57MOL   H15726029   2.350   2.009   1.001  2.3231  0.2089  0.8352
   57MOL   H15826030   2.490   2.083   0.930 -0.2736  0.0529 -0.7386
   57MOL   H15926031   2.595   1.844   0.524 -1.2564  1.9408 -1.9817
   57MOL   H16026032   2.541   1.623   0.383  1.0441  0.2817  1.3543
   57MOL   H16126033   2.136   1.654   0.505  0.8590 -1.1700  1.1668
   57MOL   H16226034   2.191   1.846   0.656  0.2704  1.3291  0.0056
   57MOL   O16326035   2.347   1.365   0.159 -0.2862  0.9342  0.3597
   57MOL   C16426036   2.290   1.405   0.038 -0.1406  0.1857  0.7667
   57MOL   C16526037   2.233   1.287   8.245 -0.0707  0.6905 -0.0601
   57MOL   O16626038   2.153   1.229   0.061  0.0125  0.4305  0.2105
   57MOL   C16726039   2.028   1.193   0.026 -0.2459  0.3951 -0.1744
   57MOL   O16826040   1.980   1.203   8.188  0.2348 -0.0206  0.4789
   57MOL   C16926041   1.959   1.128   0.138 -0.0815  0.4581  0.3387
   57MOL   C17026042   2.003   1.146   0.271 -0.1118 -0.0284  0.4972
   57MOL   C17126043   1.942   1.068   0.375 -0.0043  0.2765  0.0857
   57MOL   C17226044   1.828   0.989   0.348 -0.7778  0.5319 -0.5039
   57MOL   C17326045   1.757   0.919   0.453 -0.2895  0.4610 -0.1104
   57MOL   O17426046   1.656   0.847   0.430 -0.2259 -0.5640 -0.4254
   57MOL   O17526047   1.811   0.938   0.578 -0.2551 -0.4790 -0.2036
   57MOL   C17626048   1.786   0.976   0.215  0.0049  0.3684  0.3481
   57MOL   C17726049   1.850   1.044   0.110  0.1527  0.6066  0.1701
   57MOL   H17826050   2.207   1.473   0.051 -0.7030  0.4486 -3.6125
   57MOL   H17926051   2.370   1.445   8.251  0.5121  0.5738  1.8452
   57MOL   H18026052   2.312   1.217   8.218  0.2579  1.0785 -0.1080
   57MOL   H18126053   2.184   1.326   8.156  0.2691  1.1237 -0.0608
   57MOL   H18226054   2.088   1.208   0.290  0.8526 -1.1466 -0.0905
   57MOL   H18326055   1.982   1.078   0.474  1.1381  1.0536 -0.4526
   57MOL   H18426056   1.697   0.917   0.200  0.3609 -0.9250  3.0108
   57MOL   H18526057   1.827   1.029   0.006 -3.1930 -0.5745  1.0299
   57MOL   O18626058   1.724   0.898   0.695 -0.2649  0.2879  0.9232
   57MOL   C18726059   1.704   1.014   0.765  0.7164  0.8904  0.4570
   57MOL   C18826060   1.599   1.110   0.705 -0.3766  0.2426  0.0492
   57MOL   O18926061   1.651   1.169   0.576  0.4907  0.1735  0.3921
   57MOL   C19026062   1.729   1.275   0.568 -0.0577 -0.4180  0.7461
   57MOL   O19126063   1.782   1.323   0.668 -0.1686  0.5571 -0.0974
   57MOL   C19226064   1.752   1.329   0.436  0.0414  0.5949 -0.3777
   57MOL   C19326065   1.849   1.432   0.414  0.3476  0.0835 -0.0830
   57MOL   C19426066   1.879   1.481   0.283  0.9608  0.6110  0.6071
   57MOL   C19526067   1.798   1.442   0.176  0.0397 -0.0330 -0.0416
   57MOL   C19626068   1.823   1.497   0.041  0.2119 -0.8662 -0.0453
   57MOL   O19726069   1.906   1.579   0.011 -0.0548  0.6900  0.4311
   57MOL   O19826070   1.746   1.440   8.224 -0.0955  0.1712 -0.1879
   57MOL   C19926071   1.698   1.345   0.199  0.0650  0.0082 -0.1267
   57MOL   C20026072   1.679   1.281   0.321 -0.0027 -0.4917  0.2601
   57MOL   H20126073   1.673   0.984   0.865 -0.0355 -1.9737 -0.5824
   57MOL   H20226074   1.796   1.070   0.779  1.6115 -0.5689  0.4196
   57MOL   H20326075   1.597   1.194   0.775  2.0616 -1.4519  2.2369
   57MOL   H20426076   1.497   1.077   0.691 -1.2095  1.8657  2.0385
   57MOL   H20526077   1.907   1.470   0.496  1.3941 -2.1869  0.2578
   57MOL   H20626078   1.953   1.557   0.265  0.7324  0.6823 -0.0822
   57MOL   H20726079   1.641   1.313   0.114  0.1905 -3.8032  1.1253
   57MOL   H20826080   1.594   1.216   0.333  0.1487 -1.0394 -1.4742
   57MOL   O20926081   1.753   1.490   8.091  0.4524  0.7042 -0.4165
   57MOL   C21026082   1.821   1.399   8.000 -0.2332 -0.0054  0.2102
   57MOL   C21126083   1.768   1.409   7.864 -0.6403 -0.3005 -0.0522
   57MOL   O21226084   1.655   1.325   7.870 -0.5465 -0.2307  0.3678
   57MOL   C21326085   1.574   1.321   7.765 -0.3380 -0.5918 -0.1993
   57MOL   O21426086   1.575   1.398   7.667  0.6002 -0.0005  0.5494
   57MOL   C21526087   1.492   1.202   7.761  0.2120  0.0897  0.1788
   57MOL   C21626088   1.494   1.115   7.877  0.4190  0.7315  0.6352
   57MOL   C21726089   1.431   0.987   7.874  0.3426 -0.6448  0.5610
   57MOL   C21826090   1.367   0.945   7.753  0.8390  0.0485  0.5821
   57MOL   C21926091   1.294   0.812   7.758  0.6941 -0.3183  0.5056
   57MOL   O22026092   1.273   0.750   7.861  0.2076 -0.3633 -0.6051
   57MOL   O22126093   1.251   0.778   7.636 -0.4470  0.0200 -0.1473
   57MOL   C22226094   1.370   1.031   7.639  0.0997  0.1754  0.2044
   57MOL   C22326095   1.438   1.150   7.642  0.4665  0.1028 -0.3606
   57MOL   H22426096   1.928   1.421   8.005 -0.1801 -0.0290 -0.6522
   57MOL   H22526097   1.812   1.295   8.030 -0.3222 -0.3206 -0.8840
   57MOL   H22626098   1.843   1.375   7.792  0.5244  1.2482  0.3865
   57MOL   H22726099   1.738   1.509   7.831 -2.7646 -0.8049  0.3144
   57MOL   H22826100   1.547   1.130   7.970 -1.2161  2.7396  1.2792
   57MOL   H22926101   1.442   0.922   7.959  2.0087 -0.6629  0.3485
   57MOL   H23026102   1.338   0.990   7.545  0.5354 -1.8257  0.8993
   57MOL   H23126103   1.463   1.203   7.551 -1.3693  1.7494  0.0406
   57MOL   O23226104   1.196   0.638   7.627  0.0640  0.1516  0.2932
   57MOL   C23326105   1.296   0.565   7.557 -0.4802 -0.0860  0.9661
   57MOL   C23426106   1.235   0.434   7.511 -0.3040  0.2308 -0.0259
   57MOL   O23526107   1.232   0.350   7.623 -0.2415 -0.5693  0.0094
   57MOL   C23626108   1.113   0.276   7.645 -1.1931 -0.2926  0.6054
   57MOL   O23726109   1.011   0.297   7.580  0.2805 -0.1663 -0.2632
   57MOL   C23826110   1.119   0.179   7.759 -0.3595 -0.1261 -0.2938
   57MOL   C23926111   1.012   0.086   7.774 -0.1554 -0.4179 -0.5713
   57MOL   C24026112   1.001   0.015   7.896 -0.5898  0.2582  0.0975
   57MOL   C24126113   1.098   0.026   8.004 -0.4921  0.0553  0.1073
   57MOL   C24226114   1.096   8.234   8.132 -0.4328  0.9656 -0.0206
   57MOL   O24326115   1.188   8.237   8.210  0.0234  0.0876  0.1144
   57MOL   O24426116   0.976   8.168   8.161  0.4020 -0.5597  0.4389
   57MOL   C24526117   1.200   0.119   7.989 -0.1657 -0.5911  0.5129
   57MOL   C24626118   1.215   0.186   7.863 -0.0589  0.3475  0.0629
   57MOL   H24726119   1.330   0.624   7.471 -0.0054  0.7243  1.7029
   57MOL   H24826120   1.379   0.554   7.626 -1.3468  2.1248  2.4155
   57MOL   H24926121   1.295   0.382   7.437 -2.0222 -1.7171 -0.0839
   57MOL   H25026122   1.138   0.452   7.463 -0.1139  1.0861 -0.1126
   57MOL   H25126123   0.943   0.073   7.692 -0.8255  0.5917 -0.1708
   57MOL   H25226124   0.926   8.213   7.900  1.4960 -1.8779 -0.5332
   57MOL   H25326125   1.271   0.143   8.067  0.1748  2.1143 -0.5615
   57MOL   H25426126   1.296   0.257   7.864  0.0985  0.1991 -1.7945
   57MOL   O25526127   0.978   8.106   0.021 -0.5822 -0.1811 -0.2075
   57MOL   C25626128   0.881   8.164   0.101 -0.5195 -0.3529 -0.1537
   57MOL   C25726129   0.872   8.098   0.237 -0.0187  0.7859 -0.3890
   57MOL   O25826130   1.006   8.102   0.278  0.2254 -0.6106 -0.0059
   57MOL   C25926131   1.041   8.158   0.389 -0.2922  0.5620 -0.8256
   57MOL   O26026132   0.963   8.173   0.484 -0.2155  0.3440 -0.1658
   57MOL   C26126133   1.187   8.204   0.398  0.8767 -0.2317  0.4499
   57MOL   C26226134   1.242   8.249   0.523 -0.7674 -0.6750  0.0108
   57MOL   C26326135   1.377   0.015   0.542  0.6499 -0.4116 -0.2336
   57MOL   C26426136   1.460   0.012   0.424 -0.0862 -0.9640  0.7993
   57MOL   C26526137   1.610   0.029   0.426 -0.5606 -0.0145 -0.2822
   57MOL   O26626138   1.669   0.061   0.323  0.4299 -0.4398  0.1013
   57MOL   O26726139   1.665   0.011   0.551  0.7040  0.0546 -0.3804
   57MOL   C26826140   1.404   8.253   0.298 -0.3715  0.0851  0.0822
   57MOL   C26926141   1.270   8.207   0.281 -0.1403  0.6663 -0.6331
   57MOL   H27026142   0.915   8.267   0.111  1.2288 -1.0836  1.8113
   57MOL   H27126143   0.784   8.160   0.051 -0.2145 -0.6617 -0.7362
   57MOL   H27226144   0.843   7.995   0.220 -0.8877  1.0411 -0.4945
   57MOL   H27326145   0.799   8.132   0.311  0.8354 -0.8229  1.2527
   57MOL   H27426146   1.179   8.247   0.611  0.0183  0.0169  0.6094
   57MOL   H27526147   1.423   0.044   0.635 -1.1264  2.1291 -0.0747
   57MOL   H27626148   1.472   8.245   0.215 -0.4582 -2.6296  0.2349
   57MOL   H27726149   1.240   8.176   0.182  1.6202  0.4519 -1.1191
   57MOL   O27826150   1.816   0.052   0.542  0.6493 -0.2045 -0.3886
   57MOL   C27926151   1.850   0.088   0.672  0.5088 -0.0620 -0.2131
   57MOL   C28026152   1.996   0.115   0.664 -0.0546  0.4728  0.4356
   57MOL   O28126153   2.017   0.261   0.668  0.0489  0.0191  0.2682
   57MOL   C28226154   2.132   0.311   0.651  0.0092 -0.5076  0.1912
   57MOL   O28326155   2.241   0.247   0.647 -0.2204  0.4643  0.7582
   57MOL   C28426156   2.134   0.458   0.655 -0.9094 -0.1983  0.3762
   57MOL   C28526157   2.245   0.538   0.617  0.2424 -0.2373 -0.6727
   57MOL   C28626158   2.251   0.676   0.638  0.2457  0.8648  0.0659
   57MOL   C28726159   2.145   0.751   0.690 -0.1935 -0.0392  0.0700
   57MOL   C28826160   2.151   0.903   0.718  0.1649  0.2520  0.9512
   57MOL   O28926161   2.052   0.968   0.762  0.0433  0.2026  0.7460
   57MOL   O29026162   2.266   0.954   0.691 -0.0378  0.4518 -0.1099
   57MOL   C29126163   2.026   0.679   0.722  0.7422  0.5424  0.8798
   57MOL   C29226164   2.025   0.540   0.705  0.0442  0.0731  0.4545
   57MOL   H29326165   1.790   0.172   0.708 -1.6676 -0.3662 -2.9493
   57MOL   H29426166   1.835   8.275   0.734 -2.0188  0.9051  0.6231
   57MOL   H29526167   2.032   0.071   0.571 -1.1858  1.1975 -0.3457
   57MOL   H29626168   2.051   0.068   0.746  2.4402  1.7587 -0.4649
   57MOL   H29726169   2.326   0.495   0.561 -1.9464 -2.1941 -2.4703
   57MOL   H29826170   2.345   0.715   0.601  0.8036 -1.1761 -0.7605
   57MOL   H29926171   1.942   0.732   0.764  1.2726  2.1852 -0.0703
   57MOL   H30026172   1.938   0.488   0.742  0.0072  1.2205  2.0199
   57MOL   O30126173   2.293   1.095   0.732  0.3324 -0.3129  0.2984
   57MOL   C30226174   2.308   1.183   0.621 -0.2937  0.2562 -0.9246
   57MOL   C30326175   2.424   1.125   0.546  0.1216  0.0578  0.3476
   57MOL   O30426176   2.381   1.019   0.457 -0.6801  0.0948  0.3355
   57MOL   C30526177   2.394   1.022   0.322 -0.0053 -0.2954  0.5991
   57MOL   O30626178   2.467   1.102   0.263  0.3933 -0.3324 -0.3893
   57MOL   C30726179   2.289   0.934   0.251 -1.0418 -0.2422 -0.1676
   57MOL   C30826180   2.206   0.845   0.318  0.3356 -0.6950  0.0104
   57MOL   C30926181   2.100   0.782   0.250  0.5163 -0.4604  0.4267
   57MOL   C31026182   2.086   0.788   0.113  0.2087  0.1735 -0.5412
   57MOL   C31126183   1.983   0.720   0.040  0.5638 -0.1429 -0.0274
   57MOL   O31226184   1.902   0.642   0.095  0.6209  0.8397 -0.9452
   57MOL   O31326185   1.990   0.732   8.183  0.3283 -0.1910 -0.0132
   57MOL   C31426186   2.178   0.875   0.046  0.3113 -0.1328  0.7105
   57MOL   C31526187   2.272   0.941   0.116 -0.7637 -0.0658 -0.2121
   57MOL   H31626188   2.214   1.188   0.566 -1.1323 -0.8820  0.3769
   57MOL   H31726189   2.323   1.282   0.662 -2.2146 -0.1772  0.9150
   57MOL   H31826190   2.506   1.082   0.604  0.7779  0.9837  0.1094
   57MOL   H31926191   2.467   1.199   0.479  1.4805 -0.5934  0.4739
   57MOL   H32026192   2.215   0.825   0.423 -0.4263  1.5294  0.5324
   57MOL   H32126193   2.035   0.714   0.303  3.1283 -0.8156  3.3538
   57MOL   H32226194   2.170   0.885   8.214 -3.0474  0.3197  0.9196
   57MOL   H32326195   2.354   0.993   0.069  0.6682 -1.6102  0.5385
   57MOL   O32426196   1.892   0.633   8.112  0.0074  0.5519  0.2222
   57MOL   C32526197   1.970   0.549   8.041  0.8559  0.1069  0.0981
   57MOL   C32626198   1.887   0.447   7.959 -0.5439 -0.2586  0.4630
   57MOL   O32726199   1.859   0.501   7.830 -0.1077 -0.9222 -0.0891
   57MOL   C32826200   1.751   0.585   7.814  0.4583 -1.7450  0.0598
   57MOL   O32926201   1.660   0.601   7.899 -0.7890 -0.1105  0.3120
   57MOL   C33026202   1.752   0.647   7.673  0.4073  0.7557 -0.1388
   57MOL   C33126203   1.654   0.746   7.647  0.5834 -0.3583  1.0997
   57MOL   C33226204   1.656   0.813   7.523  0.0952 -0.2385  0.3369
   57MOL   C33326205   1.755   0.787   7.428 -0.0090  0.5611 -0.2601
   57MOL   C33426206   1.760   0.873   7.306  0.2889 -0.4921 -0.4656
   57MOL   O33526207   1.653   0.914   7.251 -0.4257  0.4596 -0.0744
   57MOL   O33626208   1.886   0.897   7.262  0.1556  0.0585 -0.1548
   57MOL   C33726209   1.849   0.681   7.452  0.4405 -0.3403  0.1397
   57MOL   C33826210   1.835   0.603   7.572 -0.2568  0.7787  0.4672
   57MOL   H33926211   2.038   0.595   7.970  0.4392  1.4613  0.5693
   57MOL   H34026212   2.026   0.486   8.110  0.7863 -1.5391 -1.2886
   57MOL   H34126213   1.792   0.423   8.008 -0.3377  1.1317  1.5650
   57MOL   H34226214   1.942   0.354   7.946  1.9623  1.1999  0.3206
   57MOL   H34326215   1.577   0.776   7.717  0.6046 -1.8496  1.8071
   57MOL   H34426216   1.576   0.882   7.500  0.5062 -0.0727 -0.6022
   57MOL   H34526217   1.931   0.663   7.384  2.0257  0.9761  1.6599
   57MOL   H34626218   1.906   0.522   7.582 -0.4619  0.5818  0.3294
   57MOL   O34726219   1.891   0.995   7.146 -0.2237  0.0148 -0.0842
   57MOL   C34826220   1.924   1.124   7.198  0.4209 -0.0068  0.3467
   57MOL   C34926221   2.074   1.122   7.222 -0.4503 -0.4161  0.0466
   57MOL   O35026222   2.139   1.243   7.271 -0.7383 -0.5045 -0.7660
   57MOL   C35126223   2.203   1.316   7.186  0.0890  0.1369  0.0245
   57MOL   O35226224   2.180   1.315   7.060  0.2161  0.1946 -0.3216
   57MOL   C35326225   2.309   1.401   7.251 -0.4609 -0.8981 -0.0095
   57MOL   C35426226   2.379   1.495   7.168  0.6209 -0.6975  0.0106
   57MOL   C35526227   2.484   1.571   7.223  0.0763  0.2270 -0.4568
   57MOL   C35626228   2.521   1.556   7.361 -0.1942 -0.8353 -0.0995
   57MOL   C35726229   2.636   1.644   7.408  0.3475  0.1576 -0.1366
   57MOL   O35826230   2.699   1.721   7.333  0.1029  0.5363  0.9089
   57MOL   O35926231   2.659   1.624   7.534 -0.2416 -0.7277  0.2177
   57MOL   C36026232   2.455   1.464   7.444 -0.7114  0.4340 -0.3448
   57MOL   C36126233   2.345   1.393   7.387 -0.1403 -0.4453  0.3927
   57MOL   H36226234   1.912   1.188   7.110 -1.9411  0.0908  0.7059
   57MOL   H36326235   1.851   1.165   7.268  0.1102 -1.1735  0.7249
   57MOL   H36426236   2.126   1.074   7.139 -0.5851  0.9922 -0.8700
   57MOL   H36526237   2.099   1.061   7.309  1.4670  0.5535  0.2265
   57MOL   H36626238   2.344   1.506   7.066  0.2971 -1.9871 -0.0276
   57MOL   H36726239   2.521   1.650   7.160  3.5855 -0.0235  1.1596
   57MOL   H36826240   2.486   1.446   7.545  1.2111  0.0457 -0.9861
   57MOL   H36926241   2.291   1.317   7.443 -3.2404  1.4693  0.0901
   57MOL   O37026242   2.757   1.723   7.588  0.3378  0.2654  0.0172
   57MOL   C37126243   2.887   1.673   7.601  0.0570  0.4885  0.3299
   57MOL   C37226244   2.958   1.630   7.476  0.1719 -0.0403  0.6140
   57MOL   O37326245   2.987   1.750   7.409  0.0654 -0.1357  0.4218
   57MOL   C37426246   3.060   1.744   7.293  1.4148 -0.1382  0.3715
   57MOL   O37526247   3.122   1.645   7.260  0.4828  0.0641  0.2119
   57MOL   C37626248   3.052   1.860   7.208  0.4473 -0.0162 -0.0144
   57MOL   C37726249   2.969   1.972   7.242  0.0348  0.7632  0.3547
   57MOL   C37826250   2.982   2.089   7.167 -0.0170  0.7344 -0.0418
   57MOL   C37926251   3.065   2.104   7.052  0.2670  0.2283  0.1128
   57MOL   C38026252   3.092   2.233   6.973 -0.0337  0.1335 -0.4719
   57MOL   O38126253   3.193   2.251   6.909 -0.1432 -0.1076 -0.4632
   57MOL   O38226254   2.981   2.314   6.988 -0.0625 -0.4983  0.0297
   57MOL   C38326255   3.129   1.983   7.009  0.1691 -0.4993  0.3205
   57MOL   C38426256   3.131   1.868   7.090 -0.3614 -0.3109 -0.2140
   57MOL   H38526257   2.947   1.739   7.663 -0.6182 -0.7172  2.2777
   57MOL   H38626258   2.867   1.589   7.666 -1.0500  0.2601 -0.2816
   57MOL   H38726259   2.900   1.575   7.402  3.5625  0.7882 -2.8070
   57MOL   H38826260   3.053   1.578   7.485  0.0915 -0.0115  1.6609
   57MOL   H38926261   2.903   1.958   7.327 -0.1538 -1.0992 -0.0599
   57MOL   H39026262   2.929   2.175   7.204  0.1515  0.6391  0.4214
   57MOL   H39126263   3.196   1.983   6.923 -0.5097  0.0392 -0.2206
   57MOL   H39226264   3.188   1.779   7.065  1.6803  0.7275  0.6521
   57MOL   O39326265   2.984   2.450   6.909  0.0917  0.5004  0.2287
   57MOL   C39426266   2.980   2.422   6.775  1.2378 -0.2299 -0.5549
   57MOL   C39526267   2.952   2.564   6.709 -0.2025  0.1435  0.5273
   57MOL   O39626268   2.811   2.584   6.685 -0.4167 -0.2690 -0.0105
   57MOL   C39726269   2.763   2.543   6.570 -0.2880 -1.3998  0.2405
   57MOL   O39826270   2.835   2.493   6.486  0.0469 -0.5988  0.1272
   57MOL   C39926271   2.617   2.585   6.548 -0.0668 -0.3440 -0.7337
   57MOL   C40026272   2.561   2.616   6.428  0.9822 -0.7932  0.3770
   57MOL   C40126273   2.431   2.669   6.424 -0.1553  0.6144  0.1670
   57MOL   C40226274   2.352   2.672   6.535 -0.4313  0.0762 -0.0697
   57MOL   C40326275   2.202   2.696   6.533 -0.0889  0.2393  0.6607
   57MOL   O40426276   2.120   2.625   6.592 -0.1781  0.0730  0.1425
   57MOL   O40526277   2.175   2.795   6.445  0.2279  0.7426  0.5691
   57MOL   C40626278   2.408   2.645   6.662 -0.2277  0.8950  1.2918
   57MOL   C40726279   2.539   2.596   6.664  0.4335  0.6066 -0.5074
   57MOL   H40826280   3.080   2.391   6.744  2.1051  2.0452 -0.1071
   57MOL   H40926281   2.906   2.347   6.747 -2.0143  2.2141  1.1092
   57MOL   H41026282   3.026   2.586   6.632 -0.4686  0.5852  0.3957
   57MOL   H41126283   2.979   2.629   6.792 -0.0006 -0.2201  0.7525
   57MOL   H41226284   2.622   2.601   6.340  0.9235  1.3402 -0.0590
   57MOL   H41326285   2.389   2.690   6.327 -0.9176 -1.4437  0.0251
   57MOL   H41426286   2.359   2.637   6.758 -0.2158 -3.0933  1.0389
   57MOL   H41526287   2.574   2.571   6.764 -0.1666 -0.1096 -0.4763
   57MOL   O41626288   2.035   2.811   6.414  0.1870 -0.3830  0.6012
   57MOL   C41726289   1.993   2.704   6.332  0.9371 -0.2618  0.2812
   57MOL   C41826290   1.840   2.697   6.321 -0.3849  0.0195  0.0454
   57MOL   O41926291   1.788   2.623   6.427  0.4620 -0.6194 -0.2101
   57MOL   C42026292   1.654   2.634   6.463 -0.1651  0.3005  0.5087
   57MOL   O42126293   1.574   2.717   6.414  0.2055  0.2087  0.6010
   57MOL   C42226294   1.620   2.540   6.580 -0.0207  0.4791 -0.1464
   57MOL   C42326295   1.707   2.432   6.608 -0.0486 -0.2614 -0.1248
   57MOL   C42426296   1.658   2.332   6.697  1.0345  0.2085  0.4671
   57MOL   C42526297   1.539   2.348   6.776 -0.4804 -0.6248  0.2944
   57MOL   C42626298   1.491   2.246   6.873 -0.2017 -0.5694 -0.4197
   57MOL   O42726299   1.398   2.265   6.950  0.0145  0.1124  0.0719
   57MOL   O42826300   1.553   2.134   6.871  0.2275 -0.0743  0.1269
   57MOL   C42926301   1.459   2.466   6.761  0.6229 -0.5799 -0.0762
   57MOL   C43026302   1.496   2.553   6.653 -0.0569 -0.0715  0.9409
   57MOL   H43126303   2.030   2.721   6.230  1.2963 -0.0575  0.4451
   57MOL   H43226304   2.027   2.603   6.355  2.2803 -0.3691 -1.9877
   57MOL   H43326305   1.810   2.636   6.235  0.6276 -0.4738  0.0332
   57MOL   H43426306   1.807   2.798   6.299  1.6162  0.8140  0.5402
   57MOL   H43526307   1.793   2.410   6.547  0.9236 -2.3698  1.9348
   57MOL   H43626308   1.725   2.247   6.709 -0.0894 -0.7981 -0.3254
   57MOL   H43726309   1.370   2.493   6.816  1.7636 -0.2435  1.6468
   57MOL   H43826310   1.426   2.633   6.635  1.6792  1.0224 -1.1894
   57MOL   O43926311   1.502   2.036   6.978 -0.3355  0.2706 -0.4141
   57MOL   C44026312   1.586   2.052   7.100  0.0484 -0.0082 -0.6109
   57MOL   C44126313   1.514   1.987   7.216  0.3799  0.1009 -0.2939
   57MOL   O44226314   1.489   1.847   7.203  0.0468  0.0064 -0.0186
   57MOL   C44326315   1.414   1.779   7.286 -0.1887  0.1886 -0.7296
   57MOL   O44426316   1.340   1.836   7.369 -0.1182 -0.3672 -0.6860
   57MOL   C44526317   1.412   1.633   7.257  0.4159  0.8131  0.0392
   57MOL   C44626318   1.476   1.578   7.146  0.5846 -0.1125 -0.9198
   57MOL   C44726319   1.490   1.437   7.130 -0.2353  0.0366 -0.4626
   57MOL   C44826320   1.438   1.356   7.232 -0.6337  0.3905 -0.6303
   57MOL   C44926321   1.451   1.209   7.229 -0.2402 -0.7014  0.7969
   57MOL   O45026322   1.379   1.130   7.285 -0.3274  0.3343 -0.5557
   57MOL   O45126323   1.559   1.159   7.161 -1.0848 -0.4428  0.4185
   57MOL   C45226324   1.378   1.408   7.343 -0.1127 -1.0244 -0.2747
   57MOL   C45326325   1.361   1.548   7.356 -0.4761  0.2692 -0.2704
   57MOL   H45426326   1.690   2.021   7.095  0.5057  1.6187 -1.7980
   57MOL   H45526327   1.582   2.160   7.114  0.3134  0.0798 -1.1939
   57MOL   H45626328   1.424   2.047   7.225  0.4785  0.2653 -0.4169
   57MOL   H45726329   1.560   2.017   7.310 -0.6364  0.3982  0.1169
   57MOL   H45826330   1.520   1.633   7.064  0.4392 -1.4128 -1.8980
   57MOL   H45926331   1.544   1.391   7.048 -0.7204 -0.8094 -0.3103
   57MOL   H46026332   1.339   1.359   7.431 -1.8506 -1.2753 -1.1566
   57MOL   H46126333   1.335   1.595   7.450 -0.1541 -0.0636 -0.0122
   57MOL   H46226334   1.566   1.066   7.150 -0.3417 -0.4521  0.9877
   58MOL     O126335   6.119   2.678   2.144  0.0478 -0.1512  0.2801
   58MOL     C226336   6.171   2.796   2.209  0.4205  0.4076 -0.2507
   58MOL     C326337   6.319   2.816   2.163 -0.5743  0.3237  0.0153
   58MOL     O426338   6.308   2.877   2.036  0.6141 -0.7062 -0.1065
   58MOL     C526339   6.327   3.009   2.025 -0.2572 -0.5141  0.6768
   58MOL     O626340   6.361   3.085   2.116 -0.2264  0.5509  0.3661
   58MOL     C726341   6.308   3.059   1.884 -0.4076  0.1403  0.6835
   58MOL     C826342   6.255   2.968   1.785  0.2032 -0.0069  0.2590
   58MOL     C926343   6.255   3.003   1.655 -0.3190 -0.4770  0.9981
   58MOL    C1026344   6.318   3.122   1.615  0.4302 -0.0812  0.2221
   58MOL    C1126345   6.349   3.145   1.469 -0.1331  0.3782  0.6512
   58MOL    O1226346   6.437   3.220   1.428 -0.8898  0.6046 -0.2606
   58MOL    O1326347   6.249   3.096   1.389  0.0709  0.2339 -0.4350
   58MOL    C1426348   6.382   3.209   1.706  0.7267 -0.3357 -0.3957
   58MOL    C1526349   6.376   3.174   1.843 -0.3707 -0.6009  0.1862
   58MOL    H1626350   6.109   2.882   2.187 -0.5455  0.2710  1.8473
   58MOL    H1726351   6.162   2.793   2.317 -1.0409 -0.1845 -0.3806
   58MOL    H1826352   6.360   2.715   2.158  2.0548  1.3581  0.1053
   58MOL    H1926353   6.381   2.874   2.232 -0.1562  0.3411 -0.3763
   58MOL    H2026354   6.222   2.870   1.814  1.2736 -0.2725  0.5937
   58MOL    H2126355   6.226   2.931   1.580 -2.6339 -0.7958  2.1442
   58MOL    H2226356   6.439   3.297   1.680  0.4644  0.8032  2.7361
   58MOL    H2326357   6.416   3.240   1.918 -2.0385 -0.4570  0.9649
   58MOL    H2426358   6.149   2.600   2.187 -1.6935 -0.8758  0.2355
   58MOL    O2526359   6.271   3.134   1.241  0.4265 -0.3562 -0.1617
   58MOL    C2626360   6.266   3.013   1.164 -0.0396 -0.0480 -0.2855
   58MOL    C2726361   6.291   3.037   1.016  0.0092 -0.4636 -0.1584
   58MOL    O2826362   6.412   2.972   0.982  0.2669  0.6454 -0.3286
   58MOL    C2926363   6.453   2.974   0.854  0.5551 -0.1726  0.3239
   58MOL    O3026364   6.394   3.016   0.757 -0.2445  0.2868  0.1646
   58MOL    C3126365   6.567   2.884   0.837 -0.1270 -0.0701 -1.0340
   58MOL    C3226366   6.590   2.826   0.708 -0.8102 -0.4936  0.4403
   58MOL    C3326367   6.704   2.741   0.690 -0.1559  0.0044 -0.2180
   58MOL    C3426368   6.793   2.711   0.797 -0.6623  0.4583  0.0518
   58MOL    C3526369   6.903   2.610   0.782  0.4872 -0.1562 -0.0788
   58MOL    O3626370   6.919   2.543   0.676 -0.1213  0.2614  0.2907
   58MOL    O3726371   6.989   2.604   0.888 -0.0045 -0.4837 -0.2544
   58MOL    C3826372   6.770   2.776   0.923 -0.4502  0.3139  0.6884
   58MOL    C3926373   6.657   2.857   0.943  0.1303 -0.0207  0.2018
   58MOL    H4026374   6.333   2.942   1.212  0.7981  1.1833  0.3771
   58MOL    H4126375   6.164   2.974   1.171  0.0131 -0.0163  0.6733
   58MOL    H4226376   6.279   3.136   0.972 -0.8490 -1.0525 -1.2866
   58MOL    H4326377   6.210   2.982   0.969  0.9034 -2.3633  0.4878
   58MOL    H4426378   6.529   2.850   0.622  0.0414  1.3547  0.3052
   58MOL    H4526379   6.725   2.706   0.591 -1.5735  0.1706 -0.5874
   58MOL    H4626380   6.826   2.758   1.013  1.2675  0.6296 -0.3010
   58MOL    H4726381   6.650   2.902   1.040 -0.4399  1.5002 -0.5304
   58MOL    O4826382   7.089   2.487   0.888  0.3265  0.2037 -0.3621
   58MOL    C4926383   7.217   2.527   0.841 -0.0799 -0.0340  0.3123
   58MOL    C5026384   7.300   2.578   0.961 -0.2254 -0.1201  0.1931
   58MOL    O5126385   7.230   2.683   1.021  0.3348  0.1138  0.4060
   58MOL    C5226386   7.294   2.756   1.115  0.1080 -0.6410 -0.0818
   58MOL    O5326387   7.392   2.718   1.177 -0.3507  0.3381 -0.3766
   58MOL    C5426388   7.230   2.890   1.137 -0.0885  0.5171  0.5762
   58MOL    C5526389   7.267   2.981   1.240  0.6062  0.1632  0.3810
   58MOL    C5626390   7.201   3.103   1.253 -0.6065 -0.0318  0.4712
   58MOL    C5726391   7.089   3.131   1.168  0.4740 -0.2255 -0.1110
   58MOL    C5826392   7.023   3.267   1.184 -0.3335 -0.4413  0.8133
   58MOL    O5926393   7.054   3.348   1.265  0.0265  0.8362  0.5202
   58MOL    O6026394   6.916   3.287   1.110 -0.2867 -0.5780  0.2367
   58MOL    C6126395   7.052   3.047   1.065 -0.0109  0.9594  0.6989
   58MOL    C6226396   7.134   2.937   1.039 -0.1225 -0.5393  0.3155
   58MOL    H6326397   7.269   2.440   0.800 -1.4488  0.1561 -1.8970
   58MOL    H6426398   7.216   2.597   0.757 -0.1190 -0.2452  0.1365
   58MOL    H6526399   7.396   2.614   0.924 -0.0002 -1.3761 -0.4532
   58MOL    H6626400   7.326   2.497   1.030  0.4307  0.0649  0.1602
   58MOL    H6726401   7.349   2.970   1.309  2.2530 -0.0546 -1.5727
   58MOL    H6826402   7.225   3.178   1.327 -0.8047  0.0487  0.4536
   58MOL    H6926403   6.967   3.069   1.003 -0.1924  2.3093  1.4115
   58MOL    H7026404   7.111   2.876   0.953 -1.8311 -0.6126  0.8039
   58MOL    O7126405   6.811   3.381   1.171 -0.4311  0.0172  0.0506
   58MOL    C7226406   6.702   3.306   1.222 -0.5320 -0.1557 -0.1046
   58MOL    C7326407   6.656   3.191   1.133 -0.1287  0.0201  0.4313
   58MOL    O7426408   6.633   3.243   1.007  0.4309 -0.1734  0.1014
   58MOL    C7526409   6.529   3.320   0.982  0.0185 -0.2690  0.2878
   58MOL    O7626410   6.425   3.328   1.042  0.1439  0.4317  0.0377
   58MOL    C7726411   6.570   3.416   0.871  0.2729 -0.6621 -0.6532
   58MOL    C7826412   6.703   3.440   0.830 -0.4623 -0.3408  0.2444
   58MOL    C7926413   6.729   3.533   0.730  0.2512 -0.4886 -0.1075
   58MOL    C8026414   6.627   3.615   0.673  0.5719 -0.1277  0.6678
   58MOL    C8126415   6.664   3.716   0.565  0.1450  0.8305  0.0631
   58MOL    O8226416   6.769   3.701   0.509 -0.0092  0.0633  0.0325
   58MOL    O8326417   6.570   3.811   0.538 -1.0169 -0.3184  0.4468
   58MOL    C8426418   6.494   3.592   0.721 -0.1634  0.2092 -0.1912
   58MOL    C8526419   6.469   3.492   0.819 -0.1404  0.3743 -0.3497
   58MOL    H8626420   6.740   3.270   1.317 -0.1998 -0.4110 -0.3311
   58MOL    H8726421   6.615   3.362   1.256 -1.6890 -2.0475  0.1040
   58MOL    H8826422   6.565   3.148   1.174 -0.2287 -0.9731 -0.7871
   58MOL    H8926423   6.743   3.125   1.122 -0.5047 -0.8386  2.4114
   58MOL    H9026424   6.785   3.388   0.875 -0.6181  0.6661  1.7195
   58MOL    H9126425   6.832   3.555   0.705  0.1161  0.2186 -0.0586
   58MOL    H9226426   6.410   3.644   0.675 -0.8385  1.4650  2.3819
   58MOL    H9326427   6.365   3.485   0.849  0.3458  0.0539  1.2815
   58MOL    O9426428   6.594   3.874   0.407  0.2985 -0.8579 -0.0165
   58MOL    C9526429   6.489   3.839   0.320 -0.0427  0.1361  0.1194
   58MOL    C9626430   6.531   3.889   0.179 -0.3834  0.6952  0.1081
   58MOL    O9726431   6.561   4.027   0.171  0.0395  0.4656  0.4646
   58MOL    C9826432   6.473   4.124   0.212  0.3166 -0.0321  0.0523
   58MOL    O9926433   6.354   4.100   0.228 -0.4477  0.0401 -0.2159
   58MOL   C10026434   6.534   4.256   0.226 -0.6861 -0.7475  0.3565
   58MOL   C10126435   6.453   4.363   0.272  0.1391 -0.4943 -1.1657
   58MOL   C10226436   6.514   4.486   0.315  0.5875  0.5677  0.2145
   58MOL   C10326437   6.653   4.502   0.297 -0.3783  0.1320 -0.4391
   58MOL   C10426438   6.723   4.630   0.330 -0.3873  0.1702 -0.0842
   58MOL   O10526439   6.836   4.650   0.295  0.0136  0.2068 -0.4268
   58MOL   O10626440   6.655   4.724   0.389 -0.2391 -0.2945 -0.0001
   58MOL   C10726441   6.729   4.400   0.239  0.5278 -0.2680 -0.4023
   58MOL   C10826442   6.672   4.279   0.201  0.2796  0.0358  0.2093
   58MOL   H10926443   6.482   3.730   0.313 -0.6628  0.1798  0.0365
   58MOL   H11026444   6.388   3.879   0.327 -0.3957 -0.6235 -0.4943
   58MOL   H11126445   6.451   3.889   0.106 -0.2454  0.7932 -0.0429
   58MOL   H11226446   6.622   3.846   0.136 -1.0688 -0.7209  0.0398
   58MOL   H11326447   6.345   4.355   0.283 -0.0219  1.2967 -1.3805
   58MOL   H11426448   6.456   4.566   0.360  1.4659 -0.2644  2.9839
   58MOL   H11526449   6.836   4.414   0.236  0.4031  0.9643  0.6024
   58MOL   H11626450   6.740   4.200   0.174  0.5776  0.1587  0.5936
   58MOL   O11726451   6.736   4.832   0.461  0.0927  0.3770  0.2355
   58MOL   C11826452   6.696   4.966   0.414  0.4131 -0.5701 -0.7499
   58MOL   C11926453   6.589   5.001   0.516  0.0000 -0.0608  0.2828
   58MOL   O12026454   6.612   5.132   0.561  0.0646  0.9314  0.1166
   58MOL   C12126455   6.576   5.242   0.492  0.0005 -0.1091  0.4325
   58MOL   O12226456   6.521   5.242   0.384 -0.2906  0.8801  0.5751
   58MOL   C12326457   6.621   5.371   0.559  0.5026  0.3471 -0.2385
   58MOL   C12426458   6.629   5.488   0.479 -0.2232  0.2797 -0.4921
   58MOL   C12526459   6.669   5.616   0.527 -0.4654  0.2956 -0.9220
   58MOL   C12626460   6.699   5.616   0.668  0.6075 -0.4861 -0.0878
   58MOL   C12726461   6.722   5.746   0.738 -0.5030  0.2753  0.8149
   58MOL   O12826462   6.705   5.850   0.677  0.0185 -0.2336 -0.1865
   58MOL   O12926463   6.761   5.750   0.870  0.6536 -0.1319 -0.2572
   58MOL   C13026464   6.684   5.504   0.749 -0.7668  0.9606  0.1699
   58MOL   C13126465   6.652   5.379   0.696  0.3218  0.0959  1.0887
   58MOL   H13226466   6.782   5.032   0.429  0.0031 -0.7393  2.9179
   58MOL   H13326467   6.666   4.975   0.310 -0.8910 -1.9131 -0.4992
   58MOL   H13426468   6.616   4.936   0.599 -2.1024 -3.1151 -1.3467
   58MOL   H13526469   6.488   4.976   0.486 -0.1921 -1.6176  2.1096
   58MOL   H13626470   6.607   5.481   0.374 -1.1872 -3.3150 -0.1109
   58MOL   H13726471   6.672   5.705   0.467 -1.4407  1.3355  0.5353
   58MOL   H13826472   6.687   5.516   0.857 -2.3845  0.2699  0.2988
   58MOL   H13926473   6.633   5.296   0.762 -0.6014 -0.8261 -0.3073
   58MOL   O14026474   6.780   5.886   0.935 -0.0195 -1.0983  0.4494
   58MOL   C14126475   6.656   5.934   0.986  0.5006  0.3240  0.6314
   58MOL   C14226476   6.679   6.073   1.046  0.5675  0.3242 -0.1703
   58MOL   O14326477   6.764   6.046   1.160 -0.1044  0.4458 -0.1194
   58MOL   C14426478   6.720   6.002   1.276 -0.2128  0.2095 -0.0037
   58MOL   O14526479   6.600   5.992   1.301  0.0053 -0.0069 -1.1038
   58MOL   C14626480   6.829   5.991   1.378 -0.0009 -0.3336 -0.1007
   58MOL   C14726481   6.799   5.961   1.510  0.7464  0.6100 -0.2703
   58MOL   C14826482   6.897   5.934   1.604  0.5968  0.0784 -0.2722
   58MOL   C14926483   7.034   5.937   1.570  0.5267  0.5713 -0.3356
   58MOL   C15026484   7.133   5.887   1.662 -0.1269 -0.3908  0.7635
   58MOL   O15126485   7.250   5.874   1.643  0.2173 -0.0816  0.1214
   58MOL   O15226486   7.077   5.855   1.778  0.0190 -0.1485  0.3439
   58MOL   C15326487   7.069   5.986   1.445 -0.1954  0.5026  0.1375
   58MOL   C15426488   6.968   6.013   1.347 -0.3304  0.4233 -0.0895
   58MOL   H15526489   6.580   5.940   0.909  0.1237  1.8284  1.1149
   58MOL   H15626490   6.614   5.864   1.059  0.5563 -0.7277 -0.3199
   58MOL   H15726491   6.584   6.120   1.070  1.4017  1.6018  0.6825
   58MOL   H15826492   6.719   6.145   0.973  0.2109 -2.3235 -3.0761
   58MOL   H15926493   6.694   5.944   1.528  0.4060  0.8831 -1.9026
   58MOL   H16026494   6.863   5.901   1.701  0.0204 -0.5195 -0.6760
   58MOL   H16126495   7.171   6.004   1.418  0.3852  1.8175  3.0709
   58MOL   H16226496   7.002   6.037   1.248 -2.8292  1.2880 -0.7802
   58MOL   O16326497   7.168   5.788   1.878  0.1578  0.8782 -0.5335
   58MOL   C16426498   7.133   5.650   1.880  0.0938 -0.0549  0.2222
   58MOL   C16526499   7.200   5.571   2.000 -0.0074  0.4225 -0.0987
   58MOL   O16626500   7.146   5.442   2.013 -0.2247 -0.2819 -0.0813
   58MOL   C16726501   7.224   5.336   1.999  0.0892 -0.8376 -0.8778
   58MOL   O16826502   7.346   5.335   2.021  0.6268 -0.2805  0.8491
   58MOL   C16926503   7.150   5.215   1.958  0.0649 -0.3762 -0.7637
   58MOL   C17026504   7.024   5.230   1.891  0.2346  0.3353 -0.3623
   58MOL   C17126505   6.948   5.115   1.858 -0.4770 -0.4629  0.1372
   58MOL   C17226506   6.986   4.986   1.895  0.2446  0.7707  0.2343
   58MOL   C17326507   6.914   4.860   1.864 -0.7918 -0.1851  0.3894
   58MOL   O17426508   6.977   4.752   1.841  0.0261 -0.1651  0.4768
   58MOL   O17526509   6.779   4.870   1.878 -0.1321  0.0974 -0.2723
   58MOL   C17626510   7.116   4.977   1.952  0.0196  0.1924 -0.0848
   58MOL   C17726511   7.200   5.084   1.979  0.7497 -0.4684  0.1787
   58MOL   H17826512   7.026   5.652   1.900 -0.1501  1.3579 -1.1242
   58MOL   H17926513   7.157   5.598   1.787 -0.1122 -0.3213  0.3186
   58MOL   H18026514   7.185   5.628   2.092  1.9492 -0.8915  1.0625
   58MOL   H18126515   7.306   5.591   1.986 -0.2706  0.4262 -2.3032
   58MOL   H18226516   6.989   5.328   1.861 -0.4297 -0.5532 -2.5924
   58MOL   H18326517   6.858   5.135   1.802 -0.3597 -0.5053 -0.0629
   58MOL   H18426518   7.156   4.879   1.970 -1.7131 -0.6125 -0.4786
   58MOL   H18526519   7.303   5.064   2.007  1.8610  2.3214 -1.7379
   58MOL   O18626520   6.709   4.747   1.838 -0.3911  0.1310 -0.0564
   58MOL   C18726521   6.630   4.778   1.723  0.0039 -0.1989 -0.0442
   58MOL   C18826522   6.718   4.798   1.596 -0.1756  0.4475 -0.8661
   58MOL   O18926523   6.657   4.850   1.480  0.2366  0.1245  0.8189
   58MOL   C19026524   6.649   4.988   1.458 -0.5440  0.6675 -0.4602
   58MOL   O19126525   6.669   5.070   1.545  0.1145 -0.2875 -0.5459
   58MOL   C19226526   6.595   5.026   1.323 -0.4129  0.3968 -0.0056
   58MOL   C19326527   6.556   4.924   1.231 -0.4628 -0.1374  0.1120
   58MOL   C19426528   6.499   4.958   1.107 -0.2685  0.1352  0.7221
   58MOL   C19526529   6.482   5.089   1.069 -0.1910 -0.0080  0.1233
   58MOL   C19626530   6.434   5.127   0.937 -0.5123 -0.2500 -0.1572
   58MOL   O19726531   6.414   5.247   0.903 -0.7634  0.5820 -0.4389
   58MOL   O19826532   6.422   5.020   0.862 -0.1258 -0.3288 -0.3442
   58MOL   C19926533   6.522   5.185   1.158  0.2962 -0.0002  0.4553
   58MOL   C20026534   6.582   5.159   1.281 -0.0418 -0.3625  0.1894
   58MOL   H20126535   6.569   4.692   1.695  0.5586 -1.1176  1.4919
   58MOL   H20226536   6.576   4.870   1.745 -0.5304 -0.4665 -0.2275
   58MOL   H20326537   6.746   4.697   1.564 -1.0020  0.2025 -0.8234
   58MOL   H20426538   6.809   4.853   1.620  0.1090 -1.1136  1.8140
   58MOL   H20526539   6.563   4.819   1.253  0.5876  0.0585  0.7578
   58MOL   H20626540   6.462   4.879   1.044 -2.9559  0.0965  2.2676
   58MOL   H20726541   6.504   5.290   1.140  1.7447  0.3707  1.0838
   58MOL   H20826542   6.612   5.238   1.347  1.4491 -0.1791 -0.6839
   58MOL   O20926543   6.363   5.041   0.728 -0.7161 -0.1510 -0.1941
   58MOL   C21026544   6.224   5.031   0.736  0.3818  0.4615  0.2569
   58MOL   C21126545   6.169   5.050   0.596  0.7958  0.7214  0.7850
   58MOL   O21226546   6.243   4.977   0.496 -0.1295 -0.6864 -0.0457
   58MOL   C21326547   6.208   4.859   0.450  0.3117  0.4116 -0.0631
   58MOL   O21426548   6.134   4.787   0.522 -0.0125 -0.4726  0.7852
   58MOL   C21526549   6.262   4.824   0.320  0.0857 -1.1838  0.1654
   58MOL   C21626550   6.218   4.708   0.252 -0.2935 -0.0880 -0.6554
   58MOL   C21726551   6.263   4.676   0.123  0.4157  0.1883  0.0658
   58MOL   C21826552   6.347   4.762   0.052  0.9687  0.1951  0.3803
   58MOL   C21926553   6.393   4.732   8.189 -0.4236  0.3095 -1.3231
   58MOL   O22026554   6.371   4.624   8.134 -0.1452 -0.2241 -0.3084
   58MOL   O22126555   6.483   4.815   8.141  0.4680  0.0617 -0.1136
   58MOL   C22226556   6.387   4.880   0.118  0.1831 -0.6672  0.7794
   58MOL   C22326557   6.340   4.915   0.248  0.0916  0.6650 -0.3070
   58MOL   H22426558   6.186   4.939   0.781 -2.1999  1.8336  0.9341
   58MOL   H22526559   6.187   5.113   0.797 -1.1962  1.4628 -1.9682
   58MOL   H22626560   6.171   5.155   0.567  1.4051  0.2433 -0.9714
   58MOL   H22726561   6.064   5.025   0.583  0.7399  0.3875  1.8529
   58MOL   H22826562   6.144   4.647   0.301  0.8448 -0.4977  0.5839
   58MOL   H22926563   6.212   4.592   0.080 -0.6597  0.6151  0.4653
   58MOL   H23026564   6.449   4.951   0.064 -3.1809  0.8156 -1.3144
   58MOL   H23126565   6.363   5.011   0.292 -0.0907  1.0124 -0.9649
   58MOL   O23226566   6.527   4.793   7.996 -0.9511 -0.6332 -0.1442
   58MOL   C23326567   6.485   4.914   7.925 -0.2501  0.7466 -0.4542
   58MOL   C23426568   6.333   4.917   7.896 -0.2814  0.0838  0.2595
   58MOL   O23526569   6.250   4.947   8.010 -0.1850 -0.3059 -0.5684
   58MOL   C23626570   6.203   5.074   8.021  0.2416  0.2023 -0.1014
   58MOL   O23726571   6.257   5.179   7.976  0.1806  0.5900  0.4512
   58MOL   C23826572   6.077   5.076   8.100 -1.0040  0.1566 -0.4269
   58MOL   C23926573   6.028   5.201   8.146 -0.0685 -0.4288 -0.8190
   58MOL   C24026574   5.901   5.201   8.209  0.2959 -0.0321  0.6286
   58MOL   C24126575   5.828   5.082   8.225 -0.2162 -0.1470 -0.5158
   58MOL   C24226576   5.691   5.094   0.018  0.0109 -0.3132  0.1875
   58MOL   O24326577   5.617   5.188   0.005 -0.0752  0.1103  0.0018
   58MOL   O24426578   5.661   4.985   0.091 -0.6223 -0.2790 -1.1717
   58MOL   C24526579   5.884   4.958   8.187  0.3792 -0.7900  0.9510
   58MOL   C24626580   6.015   4.950   8.126  1.1006  0.4496  0.0284
   58MOL   H24726581   6.513   5.011   7.968 -1.5330  1.2008 -0.6274
   58MOL   H24826582   6.530   4.918   7.826 -1.6238 -0.1499 -1.1274
   58MOL   H24926583   6.301   4.828   7.843 -0.7490  1.1479 -1.3003
   58MOL   H25026584   6.313   4.995   7.822 -2.4003 -2.4404 -1.9140
   58MOL   H25126585   6.086   5.290   8.128  0.4876 -0.5161  0.5186
   58MOL   H25226586   5.860   5.295   8.242  0.9680 -0.7941  3.8194
   58MOL   H25326587   5.825   4.868   8.198  1.0345 -1.5062 -1.0297
   58MOL   H25426588   6.042   4.865   8.066  0.3907  0.5935 -0.5059
   58MOL   O25526589   5.521   4.977   0.143 -0.6763 -0.0175 -0.5922
   58MOL   C25626590   5.525   4.985   0.279 -0.4008  0.6059 -0.6724
   58MOL   C25726591   5.595   4.859   0.336 -0.2461 -0.1814  0.6452
   58MOL   O25826592   5.659   4.896   0.454  0.6369  0.3409 -0.4933
   58MOL   C25926593   5.748   4.820   0.509 -0.1557 -0.0851 -0.2839
   58MOL   O26026594   5.788   4.711   0.463  0.1043 -0.3282  0.3434
   58MOL   C26126595   5.789   4.875   0.648  0.2974 -0.2544  0.1053
   58MOL   C26226596   5.866   4.796   0.733 -0.1300  0.9005  0.1652
   58MOL   C26326597   5.922   4.848   0.850  0.1852  0.5424 -0.9020
   58MOL   C26426598   5.889   4.977   0.889 -0.4044  0.6752 -0.0650
   58MOL   C26526599   5.958   5.023   1.011 -0.2644 -0.1714 -0.0954
   58MOL   O26626600   5.917   5.120   1.080  0.4052  0.6746  0.4248
   58MOL   O26726601   6.081   4.969   1.031 -0.3888  0.6327  0.3559
   58MOL   C26826602   5.813   5.059   0.811  0.2701 -0.1167 -0.2770
   58MOL   C26926603   5.760   5.006   0.690 -0.4009 -0.6008  0.0160
   58MOL   H27026604   5.579   5.075   0.308 -2.8568  1.5183  1.1922
   58MOL   H27126605   5.426   5.003   0.321 -0.1570 -1.1653  0.7283
   58MOL   H27226606   5.666   4.827   0.260 -0.3895  0.7963  0.0828
   58MOL   H27326607   5.532   4.771   0.345  1.3597 -1.4086  0.0763
   58MOL   H27426608   5.882   4.693   0.705 -1.6711  0.5893  0.3787
   58MOL   H27526609   5.993   4.785   0.903 -1.6906 -1.9705 -1.2494
   58MOL   H27626610   5.802   5.163   0.838 -2.8205 -0.5599  0.3525
   58MOL   H27726611   5.693   5.064   0.629 -1.0720  0.7016  1.9582
   58MOL   O27826612   6.148   5.008   1.161  0.4791  0.1745 -0.3663
   58MOL   C27926613   6.146   4.896   1.248  0.0473  0.3240  0.4655
   58MOL   C28026614   6.179   4.956   1.382  0.6321  1.1684  0.2749
   58MOL   O28126615   6.202   4.860   1.486 -0.0210 -0.6533  1.0979
   58MOL   C28226616   6.095   4.807   1.552 -0.2126  0.6367 -0.2438
   58MOL   O28326617   5.977   4.837   1.524 -0.1477 -0.2503 -0.3584
   58MOL   C28426618   6.148   4.726   1.667  0.2815 -0.0559 -0.1760
   58MOL   C28526619   6.056   4.660   1.747 -0.5180 -0.3985  0.0380
   58MOL   C28626620   6.100   4.590   1.861 -0.3596  0.0798 -0.4655
   58MOL   C28726621   6.228   4.591   1.904 -0.8476  0.1676  0.8097
   58MOL   C28826622   6.264   4.541   2.042 -1.1268  0.2746  0.1040
   58MOL   O28926623   6.353   4.589   2.114 -0.1659 -0.0025  0.0187
   58MOL   O29026624   6.181   4.438   2.073 -1.1116 -0.2678  0.4115
   58MOL   C29126625   6.326   4.664   1.830 -0.4369  0.2513 -0.6540
   58MOL   C29226626   6.284   4.733   1.716 -0.6091 -0.3356 -0.6120
   58MOL   H29326627   6.045   4.853   1.243 -0.4510  1.4581  0.6535
   58MOL   H29426628   6.214   4.822   1.207  1.0282  1.0406  0.7806
   58MOL   H29526629   6.094   5.015   1.415 -1.1235 -1.0417 -0.2100
   58MOL   H29626630   6.272   5.014   1.384 -0.0423  2.3288 -1.2029
   58MOL   H29726631   5.952   4.647   1.722 -0.6104 -1.7747  1.0585
   58MOL   H29826632   6.018   4.552   1.920 -0.5556  0.6251 -0.3828
   58MOL   H29926633   6.428   4.666   1.863  0.0472 -3.9175 -1.5861
   58MOL   H30026634   6.360   4.795   1.671 -1.5935  0.7654 -0.7528
   58MOL   O30126635   6.192   4.391   2.211 -0.3273  0.2509 -0.0867
   58MOL   C30226636   6.269   4.272   2.216 -0.1597 -0.4176  0.3278
   58MOL   C30326637   6.325   4.262   2.359  0.1679  0.0446  0.0519
   58MOL   O30426638   6.381   4.383   2.400  0.7080  0.0327 -0.1348
   58MOL   C30526639   6.509   4.403   2.398  0.3491 -0.1721 -0.0553
   58MOL   O30626640   6.590   4.325   2.356 -0.4358 -0.3484 -0.4762
   58MOL   C30726641   6.537   4.535   2.451 -0.2661 -0.4322 -0.1102
   58MOL   C30826642   6.673   4.569   2.491  0.3729 -0.5351 -0.0879
   58MOL   C30926643   6.703   4.692   2.549 -0.4111  0.3153 -0.0063
   58MOL   C31026644   6.606   4.791   2.562 -0.7186  0.6938 -0.0356
   58MOL   C31126645   6.638   4.928   2.620  0.1453 -0.0791 -0.8880
   58MOL   O31226646   6.553   5.016   2.643  0.3659  0.0482  0.0472
   58MOL   O31326647   6.767   4.938   2.664  0.2771 -0.2084  0.0121
   58MOL   C31426648   6.473   4.759   2.541  0.3575 -1.0812  0.5072
   58MOL   C31526649   6.435   4.635   2.478 -0.2205 -0.2128 -0.2486
   58MOL   H31626650   6.215   4.181   2.192 -0.3965  0.0217 -0.8378
   58MOL   H31726651   6.357   4.279   2.151  0.8021 -0.9885  1.5380
   58MOL   H31826652   6.390   4.175   2.370  0.7766  0.5487  0.4751
   58MOL   H31926653   6.235   4.246   2.417 -0.4092  1.2370 -0.4964
   58MOL   H32026654   6.744   4.488   2.489 -0.6678 -1.4638 -0.2220
   58MOL   H32126655   6.803   4.708   2.587  0.2046 -0.2402 -1.3494
   58MOL   H32226656   6.385   4.812   2.576  0.9130  1.2515 -1.4398
   58MOL   H32326657   6.330   4.609   2.477  0.4419 -3.2431  2.4509
   58MOL   O32426658   6.804   5.069   2.734 -0.8751  0.7729  0.3725
   58MOL   C32526659   6.794   5.052   2.870 -0.7029 -0.2669 -0.1816
   58MOL   C32626660   6.931   5.000   2.915 -0.1277 -0.2610  0.9555
   58MOL   O32726661   6.939   4.869   2.871  0.1198  0.4114 -0.1568
   58MOL   C32826662   7.039   4.786   2.911 -0.6869  0.0191  0.0980
   58MOL   O32926663   7.136   4.819   2.984  0.1886 -0.1436  0.6013
   58MOL   C33026664   7.019   4.650   2.855  0.0243 -0.6357 -0.8560
   58MOL   C33126665   6.893   4.607   2.814  0.2055  0.6441  0.5418
   58MOL   C33226666   6.877   4.474   2.762  0.0072 -0.6761 -0.1822
   58MOL   C33326667   6.988   4.392   2.740  0.4194  0.3927 -0.6453
   58MOL   C33426668   6.971   4.254   2.685  0.1480 -0.5654  0.0180
   58MOL   O33526669   7.062   4.169   2.674  0.2928  0.2562 -0.0998
   58MOL   O33626670   6.853   4.228   2.635  0.5070 -0.2920  0.0236
   58MOL   C33726671   7.117   4.436   2.790  0.3630 -0.1056  0.5300
   58MOL   C33826672   7.128   4.561   2.845  0.5221  0.0366 -0.2413
   58MOL   H33926673   6.766   5.144   2.922  2.2054  0.6646 -0.1839
   58MOL   H34026674   6.717   4.982   2.902 -1.3644  0.8711  0.7652
   58MOL   H34126675   6.936   4.999   3.024  0.8845 -1.3757  0.9099
   58MOL   H34226676   7.010   5.052   2.861 -0.5275 -2.1670 -1.5974
   58MOL   H34326677   6.804   4.667   2.821 -0.3697 -0.3191  1.7035
   58MOL   H34426678   6.777   4.441   2.736 -1.7331 -0.5938  5.6788
   58MOL   H34526679   7.200   4.368   2.786 -0.0840 -0.6677  0.7476
   58MOL   H34626680   7.226   4.587   2.881  0.3442 -0.4311  0.6117
   58MOL   O34726681   6.834   4.083   2.590  0.7138 -0.1197  0.4814
   58MOL   C34826682   6.850   4.090   2.447  0.5773 -0.1281 -0.4564
   58MOL   C34926683   6.818   3.956   2.370 -0.2017 -0.2336 -0.5088
   58MOL   O35026684   6.688   3.951   2.308  0.1933  0.0467 -0.4952
   58MOL   C35126685   6.660   3.994   2.191  0.5414 -0.1129  0.3371
   58MOL   O35226686   6.744   4.051   2.125 -0.4672  0.1417  0.2150
   58MOL   C35326687   6.521   3.965   2.156 -0.5647  0.7109 -0.0379
   58MOL   C35426688   6.484   3.982   2.027  0.0430  0.0662  1.1704
   58MOL   C35526689   6.349   3.958   1.984 -0.1710 -0.5872 -0.3496
   58MOL   C35626690   6.257   3.904   2.079 -0.1512 -0.1248 -0.1888
   58MOL   C35726691   6.129   3.866   2.026  0.8389 -0.5159 -0.8278
   58MOL   O35826692   6.080   3.901   1.912 -0.4900 -0.4607 -0.2473
   58MOL   O35926693   6.060   3.785   2.116 -0.7240  0.1368 -0.5886
   58MOL   C36026694   6.296   3.884   2.216  0.0400 -0.4806  0.9847
   58MOL   C36126695   6.427   3.911   2.251 -0.2038  0.5426 -0.1816
   58MOL   H36226696   6.779   4.162   2.407 -2.2334 -1.9820  1.0602
   58MOL   H36326697   6.948   4.133   2.425  2.0957 -2.0073  2.2245
   58MOL   H36426698   6.826   3.878   2.446  0.4452 -0.9174 -1.2677
   58MOL   H36526699   6.896   3.938   2.296 -2.6715 -2.2647 -2.6955
   58MOL   H36626700   6.550   4.029   1.956 -0.1480 -1.4685 -0.0397
   58MOL   H36726701   6.322   3.988   1.884  1.2065 -1.0189 -0.8663
   58MOL   H36826702   6.221   3.849   2.285 -2.5126 -2.5528 -2.6525
   58MOL   H36926703   6.453   3.898   2.355 -0.3768  1.2778 -0.0446
   58MOL   O37026704   5.921   3.749   2.072  0.1322 -0.7518 -0.0519
   58MOL   C37126705   5.920   3.621   2.010 -0.0258 -0.8460 -0.3427
   58MOL   C37226706   5.789   3.611   1.935  0.8056 -0.2761 -0.3935
   58MOL   O37326707   5.797   3.693   1.816  0.5606  0.0890 -0.1728
   58MOL   C37426708   5.724   3.801   1.798 -0.3018 -0.0025 -0.2027
   58MOL   O37526709   5.639   3.839   1.874 -0.1214 -0.2717  0.5811
   58MOL   C37626710   5.751   3.880   1.672  0.3375  0.4700 -0.2807
   58MOL   C37726711   5.673   3.994   1.638 -0.2420  0.6481 -0.0454
   58MOL   C37826712   5.690   4.052   1.517 -0.8210 -0.5166  0.4589
   58MOL   C37926713   5.795   4.011   1.432  0.1108 -0.4904  0.2647
   58MOL   C38026714   5.808   4.080   1.300  0.1474 -0.0752 -0.3723
   58MOL   O38126715   5.717   4.137   1.242  0.4232 -0.3290 -0.3614
   58MOL   O38226716   5.931   4.068   1.255  0.6285 -0.6467 -0.7384
   58MOL   C38326717   5.870   3.898   1.466 -0.3729 -0.3930 -0.0522
   58MOL   C38426718   5.856   3.830   1.589 -0.2936 -0.3009  0.9384
   58MOL   H38526719   6.007   3.606   1.946 -0.7358  0.6663 -1.7010
   58MOL   H38626720   5.911   3.548   2.090 -2.2478 -0.3073 -0.0837
   58MOL   H38726721   5.708   3.634   2.005  1.0993 -1.5831  0.4086
   58MOL   H38826722   5.778   3.507   1.905 -0.4319  0.6278 -3.2562
   58MOL   H38926723   5.594   4.032   1.701  0.7264 -0.6208  2.0013
   58MOL   H39026724   5.636   4.143   1.494 -0.3867  0.2937  2.4757
   58MOL   H39126725   5.949   3.863   1.401  0.1925  1.7002 -0.5347
   58MOL   H39226726   5.921   3.746   1.610  1.0760  0.4736 -0.0811
   58MOL   O39326727   5.957   4.101   1.114 -0.1363  0.0947  0.0226
   58MOL   C39426728   5.991   3.981   1.046  0.0086 -0.0417  0.4659
   58MOL   C39526729   6.138   3.937   1.068  0.9048  0.1325  0.4023
   58MOL   O39626730   6.152   3.868   1.189  0.2375  0.7996 -0.2775
   58MOL   C39726731   6.112   3.737   1.204  0.0535 -0.1727  0.9576
   58MOL   O39826732   6.052   3.669   1.122 -0.3560  0.5362 -0.1583
   58MOL   C39926733   6.137   3.689   1.338 -1.2264  0.7475  0.5895
   58MOL   C40026734   6.105   3.550   1.367  0.0990 -0.3856  0.3942
   58MOL   C40126735   6.119   3.501   1.502  0.5891 -0.5964 -0.3879
   58MOL   C40226736   6.178   3.584   1.599  0.5510  0.5920 -0.3007
   58MOL   C40326737   6.199   3.542   1.740  0.0635 -0.6235 -0.6820
   58MOL   O40426738   6.155   3.436   1.790  0.7246 -0.2592 -0.2278
   58MOL   O40526739   6.276   3.619   1.819 -0.1421 -0.8884 -0.6506
   58MOL   C40626740   6.215   3.714   1.565  0.0863 -0.8847 -0.8786
   58MOL   C40726741   6.190   3.775   1.437 -0.1356  0.1618  0.2051
   58MOL   H40826742   5.933   3.894   1.077  1.3107 -1.8586 -2.0706
   58MOL   H40926743   5.986   3.995   0.938 -1.0018 -1.7237  0.2751
   58MOL   H41026744   6.207   4.021   1.064  1.2264 -0.0502  1.7577
   58MOL   H41126745   6.165   3.876   0.982  0.7102 -0.0979  0.5043
   58MOL   H41226746   6.060   3.489   1.290 -3.7312  0.4053  1.9366
   58MOL   H41326747   6.086   3.404   1.534 -3.7158  0.9488  0.2311
   58MOL   H41426748   6.263   3.771   1.643 -0.7310 -1.8671  0.3588
   58MOL   H41526749   6.229   3.875   1.426  2.8026 -0.5366  3.2885
   58MOL   O41626750   6.281   3.576   1.962 -0.2924  0.1624  0.3720
   58MOL   C41726751   6.412   3.501   1.976 -0.3071  0.2088 -0.3960
   58MOL   C41826752   6.529   3.588   2.007 -0.2872  0.3254 -0.8152
   58MOL   O41926753   6.558   3.677   1.895  0.4893  0.0468 -0.3505
   58MOL   C42026754   6.683   3.733   1.884  0.5162 -0.3675 -0.7863
   58MOL   O42126755   6.773   3.712   1.958 -0.0681  0.5570 -0.3375
   58MOL   C42226756   6.694   3.810   1.757 -0.4205  0.2099 -0.5317
   58MOL   C42326757   6.586   3.865   1.687  0.4105  0.7611 -0.6082
   58MOL   C42426758   6.593   3.939   1.569 -0.4620  0.0283 -0.8383
   58MOL   C42526759   6.715   3.964   1.514  0.0593 -0.1635  0.7202
   58MOL   C42626760   6.724   4.048   1.394 -0.3409 -0.0455  0.3931
   58MOL   O42726761   6.631   4.085   1.326 -0.3456  0.5183  0.2241
   58MOL   O42826762   6.860   4.080   1.361 -0.2340  0.2277 -0.0884
   58MOL   C42926763   6.830   3.902   1.578  0.0257 -0.8139  0.0288
   58MOL   C43026764   6.820   3.837   1.702  0.1901 -0.2510  0.0483
   58MOL   H43126765   6.389   3.433   2.058  2.2258 -1.0622 -0.6909
   58MOL   H43226766   6.433   3.448   1.883 -0.0879 -1.6429  0.6662
   58MOL   H43326767   6.613   3.524   2.030 -0.4947  0.6200  0.7758
   58MOL   H43426768   6.510   3.637   2.102  0.0386 -1.3309  0.1152
   58MOL   H43526769   6.486   3.857   1.728  0.1282 -0.9882 -1.5702
   58MOL   H43626770   6.503   3.983   1.529 -0.6553  0.3109 -0.1061
   58MOL   H43726771   6.925   3.916   1.529 -0.8349  2.6947 -0.8157
   58MOL   H43826772   6.908   3.795   1.748  0.9518 -0.0550 -1.2109
   58MOL   O43926773   6.867   4.193   1.262 -0.2990 -0.1296 -0.0411
   58MOL   C44026774   6.899   4.310   1.336 -0.2500 -0.6813 -0.0119
   58MOL   C44126775   6.779   4.408   1.326 -0.2791  0.7295  0.1473
   58MOL   O44226776   6.662   4.376   1.395  0.3011 -0.7511  0.0040
   58MOL   C44326777   6.652   4.400   1.525  0.5832 -0.1665  0.0191
   58MOL   O44426778   6.741   4.452   1.596  0.0868  0.6250 -0.0353
   58MOL   C44526779   6.533   4.349   1.587 -0.1588 -0.0088 -0.1986
   58MOL   C44626780   6.438   4.281   1.508 -0.1938 -0.2170 -0.0391
   58MOL   C44726781   6.319   4.234   1.563  0.1600 -0.1943  0.2020
   58MOL   C44826782   6.301   4.252   1.701 -0.1014 -0.5073 -0.2941
   58MOL   C44926783   6.179   4.195   1.764 -0.1347 -0.8236 -0.2022
   58MOL   O45026784   6.136   4.240   1.872 -0.5050 -0.1816 -0.4512
   58MOL   O45126785   6.129   4.081   1.713  0.3372  0.6115  0.2473
   58MOL   C45226786   6.394   4.315   1.788 -0.4359 -0.4405 -0.3297
   58MOL   C45326787   6.511   4.361   1.728 -0.3029 -0.0159 -0.0383
   58MOL   H45426788   6.919   4.293   1.442 -1.7749  1.7839  0.7222
   58MOL   H45526789   6.994   4.343   1.294 -0.3435 -2.0168 -1.3216
   58MOL   H45626790   6.754   4.414   1.220 -0.3868 -2.0967 -0.0010
   58MOL   H45726791   6.821   4.506   1.352  1.4596  0.6151 -2.0948
   58MOL   H45826792   6.461   4.266   1.404  1.4519  1.5896  0.0297
   58MOL   H45926793   6.250   4.189   1.494  2.0193  0.0736 -1.8915
   58MOL   H46026794   6.381   4.320   1.895  2.7691  0.6457  0.0720
   58MOL   H46126795   6.586   4.417   1.782  0.9605 -0.2644 -1.5286
   58MOL   H46226796   6.085   4.026   1.776  1.5130  0.8159  1.2890
   59MOL     O126797   7.388   3.297   2.509 -0.7781 -0.5851 -0.2625
   59MOL     C226798   7.385   3.160   2.452 -0.0600  0.3764  0.2551
   59MOL     C326799   7.244   3.096   2.461  0.3448 -0.3526  0.3002
   59MOL     O426800   7.215   3.059   2.592 -0.3747 -0.3469  0.5553
   59MOL     C526801   7.244   2.944   2.637  0.6318  0.2828  0.3662
   59MOL     O626802   7.283   2.851   2.559 -0.7426  0.1736  0.1592
   59MOL     C726803   7.223   2.930   2.785 -0.7608  0.8167 -0.1045
   59MOL     C826804   7.248   2.807   2.857  0.3412  0.6690  0.1641
   59MOL     C926805   7.226   2.802   2.993  0.2776 -0.2411  0.6763
   59MOL    C1026806   7.179   2.917   3.066 -0.3489 -0.3899 -0.0613
   59MOL    C1126807   7.169   2.910   3.217 -0.1706  0.5042 -0.3092
   59MOL    O1226808   7.086   2.975   3.280 -0.2775 -0.4869  0.5402
   59MOL    O1326809   7.248   2.825   3.277 -0.5145  0.4362 -0.4970
   59MOL    C1426810   7.159   3.036   2.992  0.0178 -0.0688  0.5496
   59MOL    C1526811   7.188   3.044   2.853  0.1675  0.2120 -0.0731
   59MOL    H1626812   7.411   3.185   2.349 -0.2650 -0.1417  0.0760
   59MOL    H1726813   7.465   3.096   2.489 -0.3579 -0.0207  0.2171
   59MOL    H1826814   7.237   3.018   2.385  1.2321 -1.1104  0.9906
   59MOL    H1926815   7.166   3.164   2.425 -2.0615 -2.5274  1.2096
   59MOL    H2026816   7.280   2.720   2.803 -1.5161  0.5172 -0.7114
   59MOL    H2126817   7.237   2.716   3.058  1.0508 -0.6930 -0.0481
   59MOL    H2226818   7.125   3.126   3.040 -1.5682  0.1706 -0.9941
   59MOL    H2326819   7.189   3.143   2.809 -1.2015  0.6257  0.8225
   59MOL    H2426820   7.475   3.328   2.529 -0.7787 -0.3919 -0.5500
   59MOL    O2526821   7.222   2.808   3.422  0.1727 -0.6264  0.4120
   59MOL    C2626822   7.147   2.683   3.442 -0.4688 -0.1369 -0.5415
   59MOL    C2726823   7.115   2.676   3.593  0.1712 -0.1098 -0.3990
   59MOL    O2826824   7.163   2.557   3.651  0.5595  0.5196 -0.4405
   59MOL    C2926825   7.298   2.544   3.677 -0.0344  0.3623  0.6526
   59MOL    O3026826   7.372   2.633   3.667 -0.7563  0.0006 -0.4637
   59MOL    C3126827   7.340   2.404   3.717  0.0936  0.1098  0.2108
   59MOL    C3226828   7.239   2.322   3.770 -0.2842  0.1026 -0.2586
   59MOL    C3326829   7.270   2.194   3.815  0.5926  0.3908 -0.0447
   59MOL    C3426830   7.392   2.129   3.779  0.3462 -0.0719  0.2963
   59MOL    C3526831   7.412   1.983   3.786 -0.2467 -0.5908 -0.1808
   59MOL    O3626832   7.480   1.915   3.711 -0.1309 -0.1645 -0.2826
   59MOL    O3726833   7.322   1.944   3.888 -0.1472  0.4233 -0.2722
   59MOL    C3826834   7.494   2.213   3.728 -0.8267 -0.4209  0.2492
   59MOL    C3926835   7.466   2.350   3.702 -0.1250 -0.3368 -0.9705
   59MOL    H4026836   7.048   2.678   3.395 -0.8978 -1.4056  0.4785
   59MOL    H4126837   7.212   2.603   3.408  0.8131  1.3890 -1.7357
   59MOL    H4226838   7.007   2.693   3.599  0.4150  1.6577 -0.6203
   59MOL    H4326839   7.160   2.764   3.639  0.9713  0.1416 -1.6410
   59MOL    H4426840   7.139   2.356   3.793 -0.3287 -0.1768 -0.0374
   59MOL    H4526841   7.197   2.132   3.863 -1.5496  1.2329 -2.1182
   59MOL    H4626842   7.590   2.173   3.700 -0.1566  0.8566  0.6853
   59MOL    H4726843   7.549   2.411   3.669  0.7421 -2.2190 -2.2816
   59MOL    O4826844   7.320   1.802   3.904 -0.1181  0.3639 -0.5351
   59MOL    C4926845   7.416   1.762   3.996 -0.1914  0.0999 -0.0169
   59MOL    C5026846   7.408   1.608   4.010 -0.1350 -0.2200  0.2998
   59MOL    O5126847   7.445   1.538   3.891  0.4643 -0.3086 -0.4140
   59MOL    C5226848   7.566   1.468   3.898 -0.3906 -0.2461  0.6903
   59MOL    O5326849   7.645   1.476   3.993 -0.5431 -0.0359 -0.1497
   59MOL    C5426850   7.588   1.369   3.789 -0.1869  0.4477  0.1715
   59MOL    C5526851   7.672   1.255   3.788 -0.1587  0.2092  0.0007
   59MOL    C5626852   7.693   1.168   3.680  0.2149 -0.9402  0.4298
   59MOL    C5726853   7.621   1.197   3.563 -0.0578  1.0870 -0.2631
   59MOL    C5826854   7.628   1.108   3.442 -0.0945 -0.7231  0.1013
   59MOL    O5926855   7.586   1.134   3.329 -0.3659 -0.2219  0.0844
   59MOL    O6026856   7.693   0.993   3.468 -0.6124 -0.5262  0.1374
   59MOL    C6126857   7.543   1.316   3.554  0.0186  0.6718 -0.1981
   59MOL    C6226858   7.527   1.400   3.664  0.1623 -0.5555  0.6182
   59MOL    H6326859   7.513   1.792   3.955 -0.3932 -0.3648 -0.8388
   59MOL    H6426860   7.397   1.800   4.096 -2.3695 -1.9799  0.3909
   59MOL    H6526861   7.307   1.577   4.036 -0.2492  0.8959  1.2297
   59MOL    H6626862   7.466   1.577   4.097 -1.3589 -0.8416  0.9003
   59MOL    H6726863   7.728   1.248   3.880  0.4585 -1.9791 -0.5134
   59MOL    H6826864   7.747   1.075   3.688  1.2399 -0.3024  1.0473
   59MOL    H6926865   7.484   1.344   3.467 -1.4877  1.0579  0.9383
   59MOL    H7026866   7.463   1.487   3.653  0.6405 -0.3500 -0.5911
   59MOL    O7126867   7.702   0.900   3.356  0.5637  0.4511  0.5027
   59MOL    C7226868   7.595   0.806   3.368 -0.3210  0.5373 -0.8547
   59MOL    C7326869   7.607   0.690   3.262 -0.1830 -0.5925 -1.0481
   59MOL    O7426870   7.684   0.583   3.304  0.6280 -0.0091 -0.6394
   59MOL    C7526871   7.818   0.586   3.303 -0.1602 -0.2405  0.9273
   59MOL    O7626872   7.888   0.681   3.271  0.0390 -0.3432 -0.1373
   59MOL    C7726873   7.878   0.454   3.349  0.0865 -0.0510  0.0054
   59MOL    C7826874   8.008   0.448   3.399 -0.4052  0.5597 -0.3750
   59MOL    C7926875   8.063   0.323   3.443  0.4132 -0.9422 -0.2195
   59MOL    C8026876   7.983   0.204   3.441 -0.8506  0.8538 -0.0511
   59MOL    C8126877   8.051   0.084   3.491 -0.4247 -0.0815  0.0462
   59MOL    O8226878   8.163   0.083   3.549 -0.0132 -0.2510 -0.2988
   59MOL    O8326879   7.979   8.249   3.461  0.7612 -0.1440  0.4928
   59MOL    C8426880   7.853   0.203   3.386 -0.8780 -0.1981  0.6006
   59MOL    C8526881   7.801   0.329   3.350 -0.1211  0.3078  0.3824
   59MOL    H8626882   7.576   0.768   3.468 -0.2055 -0.0981 -1.0709
   59MOL    H8726883   7.512   0.874   3.345 -1.1733 -0.2632 -0.1939
   59MOL    H8826884   7.652   0.738   3.175  1.1499  2.8795  1.4195
   59MOL    H8926885   7.506   0.654   3.244  0.3261 -2.4180 -0.3098
   59MOL    H9026886   8.075   0.532   3.393 -0.2018  0.4001 -0.3795
   59MOL    H9126887   8.168   0.335   3.463  0.5610 -0.9172 -0.9700
   59MOL    H9226888   7.788   0.117   3.374 -1.0257  0.1749 -1.6060
   59MOL    H9326889   7.699   0.343   3.316 -0.0346  0.1343  0.0504
   59MOL    O9426890   8.053   8.118   3.505  0.2266  0.3010  0.1468
   59MOL    C9526891   8.118   8.068   3.392  0.7448  0.0889  0.3299
   59MOL    C9626892   8.177   7.928   3.412 -0.2969 -0.1996 -0.8312
   59MOL    O9726893   8.265   7.893   3.313  0.6330  0.5648 -0.2038
   59MOL    C9826894   0.029   7.763   3.303  0.8148 -0.8960 -0.1720
   59MOL    O9926895   8.266   7.675   3.381  0.1747 -0.3346 -0.1541
   59MOL   C10026896   0.109   7.739   3.179  0.1621  0.6651 -0.0755
   59MOL   C10126897   0.164   7.842   3.097 -0.5394  0.2116  0.6071
   59MOL   C10226898   0.257   7.812   2.993 -0.0166  0.4602  0.0858
   59MOL   C10326899   0.295   7.677   2.968  0.2648 -0.2246 -0.4588
   59MOL   C10426900   0.391   7.635   2.861  0.2363  0.2318  0.3659
   59MOL   O10526901   0.445   7.526   2.869  0.7204  0.0028  0.1390
   59MOL   O10626902   0.416   7.739   2.765 -0.1481 -0.5728 -0.5191
   59MOL   C10726903   0.238   7.575   3.054 -0.6918 -0.0629  0.6150
   59MOL   C10826904   0.154   7.606   3.158  0.2192 -0.1526 -0.0059
   59MOL   H10926905   8.045   8.070   3.312 -0.5823 -1.4342  1.4680
   59MOL   H11026906   8.201   8.134   3.366  0.8081 -0.5451 -1.1493
   59MOL   H11126907   8.106   7.847   3.424  2.3620 -2.2061  2.1879
   59MOL   H11226908   8.240   7.933   3.501  1.2503  0.1056 -1.9327
   59MOL   H11326909   0.130   7.942   3.118 -0.4624  0.7949 -1.9414
   59MOL   H11426910   0.301   7.884   2.926  1.3588 -1.8476 -1.5844
   59MOL   H11526911   0.273   7.475   3.034 -2.3554 -0.6744  0.6985
   59MOL   H11626912   0.121   7.531   3.229 -1.6182  0.3487 -0.3048
   59MOL   O11726913   0.489   7.696   2.650 -0.2249  0.1514 -0.2245
   59MOL   C11826914   0.408   7.729   2.534  0.2650 -1.1303 -0.8858
   59MOL   C11926915   0.422   7.887   2.523 -0.2893 -0.2522 -0.4965
   59MOL   O12026916   0.556   7.928   2.512 -0.5155  0.3504  0.0980
   59MOL   C12126917   0.620   7.903   2.398  0.0980 -0.0461  0.8322
   59MOL   O12226918   0.568   7.834   2.312 -0.3726 -0.3472 -0.4869
   59MOL   C12326919   0.758   7.961   2.399 -0.2147  0.0126 -0.4067
   59MOL   C12426920   0.843   7.919   2.299 -0.1239 -0.6126  0.3313
   59MOL   C12526921   0.969   7.973   2.289 -0.4465  0.8276 -0.2680
   59MOL   C12626922   1.018   8.075   2.375 -0.2096 -0.0214 -0.4505
   59MOL   C12726923   1.154   8.144   2.348  0.1173 -0.5318 -0.7359
   59MOL   O12826924   1.183   8.253   2.396  0.1697  0.1206 -0.3324
   59MOL   O12926925   1.239   8.069   2.280  0.3252 -0.3777  0.5855
   59MOL   C13026926   0.932   8.119   2.477  0.0196 -0.1003  0.3759
   59MOL   C13126927   0.804   8.060   2.494 -0.5265  0.0715  0.0246
   59MOL   H13226928   0.442   7.675   2.446  4.4574  0.4454 -0.3834
   59MOL   H13326929   0.312   7.685   2.559  0.2800 -1.4708 -1.4231
   59MOL   H13426930   0.385   7.928   2.617 -1.1172 -1.6506 -0.1902
   59MOL   H13526931   0.365   7.922   2.437  0.5108  0.0388 -0.9109
   59MOL   H13626932   0.811   7.843   2.229  1.6049 -0.7105 -0.3732
   59MOL   H13726933   1.026   7.933   2.206 -1.6234 -0.0915 -0.6481
   59MOL   H13826934   0.967   8.198   2.541 -0.1950  0.1935  0.1319
   59MOL   H13926935   0.719   8.093   2.551 -1.9350 -0.2299 -1.8603
   59MOL   O14026936   1.375   8.132   2.253 -0.2380  0.1273 -0.0396
   59MOL   C14126937   1.467   8.047   2.324 -0.1252 -0.2851 -0.2747
   59MOL   C14226938   1.609   8.087   2.281 -0.5762  0.2164  0.1840
   59MOL   O14326939   1.651   8.212   2.340 -0.3233  0.3725 -0.1217
   59MOL   C14426940   1.693   8.216   2.472 -0.5295  0.3158 -0.0425
   59MOL   O14526941   1.695   8.116   2.546  0.2799  0.3176 -0.0662
   59MOL   C14626942   1.716   0.083   2.519  0.1292 -0.3929  0.9963
   59MOL   C14726943   1.735   0.106   2.657  0.5446  0.4765  0.0422
   59MOL   C14826944   1.760   0.239   2.695 -1.3213  0.4765 -0.3433
   59MOL   C14926945   1.754   0.347   2.606 -0.1146 -0.3038 -0.1169
   59MOL   C15026946   1.769   0.494   2.651 -0.5394  0.2261 -0.3307
   59MOL   O15126947   1.819   0.579   2.580 -0.4804 -0.1156  0.2302
   59MOL   O15226948   1.728   0.521   2.784  0.3600 -0.1494  0.2908
   59MOL   C15326949   1.746   0.321   2.465  0.6600  0.0383  0.6009
   59MOL   C15426950   1.727   0.189   2.422  0.1803 -0.0859 -0.0717
   59MOL   H15526951   1.459   8.032   2.431  0.7149  0.0313 -0.1650
   59MOL   H15626952   1.452   7.945   2.288 -0.1410  0.1410 -1.5257
   59MOL   H15726953   1.617   8.095   2.173  0.3887 -3.3896 -0.0841
   59MOL   H15826954   1.685   8.012   2.302 -2.0411 -1.5422 -0.6467
   59MOL   H15926955   1.719   0.035   2.736 -0.8097  1.2101  0.4480
   59MOL   H16026956   1.786   0.254   2.799  0.9236  0.1338 -0.8155
   59MOL   H16126957   1.740   0.411   2.405 -3.3650 -0.5189  0.0209
   59MOL   H16226958   1.705   0.165   2.319  0.6674  2.1027 -0.7097
   59MOL   O16326959   1.741   0.670   2.821 -0.0343  0.2052  0.2719
   59MOL   C16426960   1.847   0.688   2.907  0.0374 -0.4392 -0.5375
   59MOL   C16526961   1.803   0.667   3.054  0.7201  0.7866 -0.1243
   59MOL   O16626962   1.728   0.545   3.066  0.4622  0.2278  0.2892
   59MOL   C16726963   1.655   0.526   3.175 -0.2339  0.0008  0.1641
   59MOL   O16826964   1.644   0.607   3.269  0.3254 -0.3255  0.3228
   59MOL   C16926965   1.594   0.397   3.177  0.2864 -0.1365 -0.5708
   59MOL   C17026966   1.614   0.300   3.075  0.2304 -0.4769 -0.3893
   59MOL   C17126967   1.558   0.173   3.089  0.3026 -0.0111  0.9925
   59MOL   C17226968   1.469   0.146   3.192 -0.6738  0.9306  0.3755
   59MOL   C17326969   1.401   0.016   3.190 -0.7997 -0.5498 -0.0773
   59MOL   O17426970   1.425   8.205   3.108 -0.1414 -0.0385 -0.2638
   59MOL   O17526971   1.305   0.004   3.282 -0.3010 -0.0952  0.1094
   59MOL   C17626972   1.444   0.244   3.297  0.8761  0.4507 -0.0385
   59MOL   C17726973   1.510   0.369   3.290 -0.4171  0.3315 -0.3684
   59MOL   H17826974   1.921   0.615   2.875 -1.7504 -2.2629 -0.5936
   59MOL   H17926975   1.905   0.780   2.899  0.6806 -0.7420  0.4804
   59MOL   H18026976   1.733   0.748   3.072 -2.2478 -1.1822 -2.3349
   59MOL   H18126977   1.874   0.685   3.134  1.7186  0.1419 -0.8508
   59MOL   H18226978   1.664   0.318   2.981  0.1679 -0.5461 -0.4358
   59MOL   H18326979   1.587   0.099   3.017  1.7547 -0.1445  1.6850
   59MOL   H18426980   1.387   0.227   3.386 -1.0146 -1.1243 -1.5156
   59MOL   H18526981   1.494   0.450   3.360 -3.6949 -0.0892 -0.5873
   59MOL   O18626982   1.211   8.162   3.268 -0.3227  0.0119  0.3864
   59MOL   C18726983   1.095   8.208   3.195  0.0179 -0.5281 -0.6347
   59MOL   C18826984   1.000   0.010   3.286 -0.1529  0.2591 -0.1586
   59MOL   O18926985   1.040   0.145   3.312 -0.7288 -0.0397 -0.2308
   59MOL   C19026986   0.990   0.209   3.416  0.0005  0.3843 -0.0095
   59MOL   O19126987   0.900   0.166   3.486  0.3583  0.1764 -0.6047
   59MOL   C19226988   1.069   0.334   3.444 -0.2260  0.4166  0.6248
   59MOL   C19326989   1.062   0.400   3.566 -0.1717 -0.1357 -0.4206
   59MOL   C19426990   1.133   0.516   3.594  0.5425 -0.1048 -0.1948
   59MOL   C19526991   1.219   0.576   3.498  0.3430  0.2387 -0.7834
   59MOL   C19626992   1.297   0.695   3.536  0.5040 -0.3812 -0.6492
   59MOL   O19726993   1.376   0.743   3.453 -0.2527  0.2892 -0.5216
   59MOL   O19826994   1.260   0.760   3.658 -0.0429 -0.3048 -0.2164
   59MOL   C19926995   1.230   0.504   3.384 -0.0302 -0.0829  0.2675
   59MOL   C20026996   1.164   0.381   3.353 -0.5562 -0.4455  0.7450
   59MOL   H20126997   1.115   8.267   3.106  0.9341 -0.2990 -0.2911
   59MOL   H20226998   1.055   8.111   3.164 -0.3755 -0.3650 -0.6284
   59MOL   H20326999   0.991   8.225   3.376  2.7774 -0.6848 -0.4719
   59MOL   H20427000   0.901   0.008   3.240  1.3043 -0.8198 -3.3488
   59MOL   H20527001   0.994   0.362   3.641  1.5212 -0.5755  0.9143
   59MOL   H20627002   1.114   0.556   3.693  0.1665 -2.3358  0.6616
   59MOL   H20727003   1.308   0.538   3.318 -0.9862 -0.3178 -1.0021
   59MOL   H20827004   1.186   0.330   3.261  0.2588 -0.6838  1.0765
   59MOL   O20927005   1.354   0.865   3.704 -0.0565  0.9939  0.2761
   59MOL   C21027006   1.395   0.818   3.830  0.0940  0.5735  0.6156
   59MOL   C21127007   1.500   0.706   3.809 -0.3617  0.3623 -0.7332
   59MOL   O21227008   1.444   0.571   3.809 -0.0246 -0.0964 -0.7803
   59MOL   C21327009   1.429   0.502   3.931  0.2648 -0.7433 -0.5090
   59MOL   O21427010   1.437   0.551   4.043  0.0298  0.3174 -0.2398
   59MOL   C21527011   1.389   0.359   3.905  0.2331 -0.3857 -0.5322
   59MOL   C21627012   1.352   0.307   3.777  0.1167  0.7833  0.3770
   59MOL   C21727013   1.315   0.173   3.755 -0.0463  0.4333  0.2522
   59MOL   C21827014   1.321   0.080   3.864 -0.7012  0.9321  0.0792
   59MOL   C21927015   1.269   8.221   3.841  0.4982  0.6424  0.3688
   59MOL   O22027016   1.199   8.164   3.919 -0.0103 -0.0548  0.0953
   59MOL   O22127017   1.306   8.170   3.722  0.1919 -0.4979 -0.1069
   59MOL   C22227018   1.346   0.129   3.994 -0.6600  0.1588  0.3466
   59MOL   C22327019   1.390   0.260   4.014  0.4061 -0.2974  0.4337
   59MOL   H22427020   1.451   0.906   3.862 -2.5795  1.7691  2.1282
   59MOL   H22527021   1.317   0.816   3.906 -0.1203  2.0739  0.4591
   59MOL   H22627022   1.566   0.715   3.895 -0.4051  1.0180 -0.7713
   59MOL   H22727023   1.565   0.729   3.724  0.2968 -0.0839 -0.3571
   59MOL   H22827024   1.362   0.371   3.690  1.4651 -1.9596 -1.5716
   59MOL   H22927025   1.289   0.149   3.653 -0.6575 -0.4029  0.5935
   59MOL   H23027026   1.352   0.059   4.077  0.6154 -2.2665 -1.7383
   59MOL   H23127027   1.434   0.284   4.109  1.7334 -2.3423  0.3585
   59MOL   O23227028   1.225   8.053   3.665  0.1332  0.3555 -0.5689
   59MOL   C23327029   1.122   8.109   3.582 -0.6926  0.2768 -0.6645
   59MOL   C23427030   0.990   8.132   3.647  0.1688  0.4239 -0.3240
   59MOL   O23527031   0.977   8.244   3.734 -0.3114  0.8919  0.1535
   59MOL   C23627032   0.901   8.237   3.849 -0.1107  0.2452  0.1266
   59MOL   O23727033   0.822   8.143   3.872  0.0584 -0.1201 -0.2661
   59MOL   C23827034   0.924   0.071   3.950 -0.0383 -0.3040  0.1507
   59MOL   C23927035   0.862   0.065   4.079 -0.1183  0.2478 -0.1888
   59MOL   C24027036   0.870   0.174   4.163  0.8469 -0.1796 -0.0180
   59MOL   C24127037   0.942   0.290   4.119  0.5830  0.4221 -0.3522
   59MOL   C24227038   0.954   0.413   4.204  0.3175 -0.2415  0.0643
   59MOL   O24327039   1.049   0.488   4.196  0.1381 -0.2161 -0.2204
   59MOL   O24427040   0.843   0.432   4.281  0.2212  0.1546 -0.0128
   59MOL   C24527041   1.016   0.285   3.998  0.4158 -0.3856  0.6223
   59MOL   C24627042   1.007   0.181   3.910  0.3287 -0.4127 -0.1167
   59MOL   H24727043   1.160   8.197   3.530  1.0326 -1.0102 -1.6239
   59MOL   H24827044   1.103   8.042   3.499 -0.2660 -1.0880  0.3345
   59MOL   H24927045   0.949   8.039   3.688  2.1219 -0.3155 -0.0043
   59MOL   H25027046   0.922   8.165   3.569 -0.6078  1.5795  0.8301
   59MOL   H25127047   0.819   8.247   4.113 -1.0265  0.7772  0.1410
   59MOL   H25227048   0.835   0.167   4.265  0.3619 -0.2843 -0.1901
   59MOL   H25327049   1.078   0.368   3.968 -1.1716  0.4284 -0.5075
   59MOL   H25427050   1.062   0.189   3.817 -0.6323 -0.6558 -0.7103
   59MOL   O25527051   0.833   0.574   4.339 -0.5177  0.2926  0.4726
   59MOL   C25627052   0.769   0.659   4.246 -0.3098  0.9929 -0.2428
   59MOL   C25727053   0.781   0.810   4.280 -0.9303 -0.9424 -0.2864
   59MOL   O25827054   0.900   0.848   4.228  0.2383 -0.6572 -0.4256
   59MOL   C25927055   0.942   0.971   4.255  0.2112  0.7108  0.1286
   59MOL   O26027056   0.870   1.053   4.309  0.2347 -0.5640  0.7130
   59MOL   C26127057   1.087   0.980   4.227 -0.8323  0.0542 -0.4770
   59MOL   C26227058   1.171   0.867   4.229  0.2317 -0.3601 -0.0515
   59MOL   C26327059   1.308   0.879   4.207  0.1569 -0.5704  0.5040
   59MOL   C26427060   1.359   1.005   4.167  0.5096 -0.2683  0.1043
   59MOL   C26527061   1.504   1.023   4.130 -0.1925  0.6252  0.6108
   59MOL   O26627062   1.575   1.119   4.164  0.4450  0.5363  0.3048
   59MOL   O26727063   1.558   0.911   4.071 -0.4670 -0.3599 -0.7317
   59MOL   C26827064   1.282   1.121   4.168  0.1806 -0.3008  0.3180
   59MOL   C26927065   1.147   1.109   4.197 -0.3512  0.3875 -0.1564
   59MOL   H27027066   0.779   0.631   4.141 -0.5558 -0.9371  0.2359
   59MOL   H27127067   0.664   0.638   4.266 -0.2113  0.4919 -0.2412
   59MOL   H27227068   0.783   0.824   4.388 -0.5401  1.1385 -0.5343
   59MOL   H27327069   0.696   0.863   4.236 -0.8075  0.0880  0.7123
   59MOL   H27427070   1.133   0.767   4.245  0.4037 -0.3530  0.4114
   59MOL   H27527071   1.366   0.789   4.220 -1.3764 -1.5565  0.6588
   59MOL   H27627072   1.324   1.218   4.147 -0.4951 -0.2352 -0.8214
   59MOL   H27727073   1.087   1.199   4.201 -0.7421  0.0857  1.1417
   59MOL   O27827074   1.704   0.930   4.028 -0.2052  1.2081 -0.1564
   59MOL   C27927075   1.796   0.881   4.121 -0.0080 -1.0523 -0.7721
   59MOL   C28027076   1.784   0.724   4.145 -0.2061  0.0039  0.0101
   59MOL   O28127077   1.684   0.670   4.230  0.0313  0.6130  0.2737
   59MOL   C28227078   1.714   0.662   4.363 -0.0301 -0.2308 -0.3643
   59MOL   O28327079   1.820   0.707   4.414 -0.0669  0.9621  0.5490
   59MOL   C28427080   1.600   0.607   4.445  1.3575  0.1444 -0.3344
   59MOL   C28527081   1.609   0.595   4.584 -0.7980 -0.2815  0.2681
   59MOL   C28627082   1.498   0.555   4.659 -0.2864 -0.1293  0.2703
   59MOL   C28727083   1.373   0.511   4.603 -0.4068  0.1781 -0.0622
   59MOL   C28827084   1.259   0.475   4.697  0.5107 -0.2352  0.0832
   59MOL   O28927085   1.253   0.483   4.817 -0.7377  0.0420  0.3773
   59MOL   O29027086   1.158   0.421   4.619  0.5595 -0.7334  0.1055
   59MOL   C29127087   1.364   0.517   4.461  0.3598 -0.0055  0.0226
   59MOL   C29227088   1.477   0.565   4.387  0.2487  0.2625  0.4449
   59MOL   H29327089   1.897   0.904   4.089 -0.0795 -1.7540 -1.5423
   59MOL   H29427090   1.775   0.935   4.213  0.7309 -0.0498 -1.1831
   59MOL   H29527091   1.879   0.681   4.176  0.2346  0.7134 -0.3461
   59MOL   H29627092   1.759   0.689   4.045  0.4882  2.5218 -1.0804
   59MOL   H29727093   1.696   0.625   4.640  0.4424 -1.8029 -0.7918
   59MOL   H29827094   1.509   0.565   4.766 -0.1832 -1.9393  0.4477
   59MOL   H29927095   1.271   0.490   4.412 -1.0171  0.6806  2.1668
   59MOL   H30027096   1.459   0.573   4.281 -2.1213  1.7543  0.9165
   59MOL   O30127097   1.030   0.405   4.695 -0.1539 -0.4599  0.2123
   59MOL   C30227098   0.930   0.492   4.634 -0.0344 -0.2922 -0.2129
   59MOL   C30327099   0.805   0.499   4.724 -0.3929 -0.9547 -0.1526
   59MOL   O30427100   0.716   0.602   4.678  0.0045 -0.0914 -0.0288
   59MOL   C30527101   0.597   0.571   4.626  0.6340  0.0162 -0.8882
   59MOL   O30627102   0.558   0.454   4.622 -0.0988  0.0815 -0.4126
   59MOL   C30727103   0.520   0.683   4.564 -0.7101 -0.5450 -0.4430
   59MOL   C30827104   0.396   0.658   4.503 -0.0943  0.2667 -0.7725
   59MOL   C30927105   0.322   0.761   4.439  0.8462 -0.5882 -0.5645
   59MOL   C31027106   0.370   0.895   4.444 -0.6598  0.1519  0.3184
   59MOL   C31127107   0.297   1.009   4.376  0.0116 -0.1375  0.1543
   59MOL   O31227108   0.349   1.123   4.354 -0.8039  0.0965  0.6523
   59MOL   O31327109   0.171   0.989   4.338  0.3205 -0.3755 -0.0140
   59MOL   C31427110   0.503   0.916   4.499 -0.2729  0.1343  0.2203
   59MOL   C31527111   0.574   0.810   4.560  0.0937 -0.2239  0.2372
   59MOL   H31627112   0.974   0.592   4.631 -1.0690  0.1718 -0.0413
   59MOL   H31727113   0.901   0.465   4.532 -0.9299  1.7236 -0.5292
   59MOL   H31827114   0.850   0.528   4.819 -0.7072 -0.4111 -0.1735
   59MOL   H31927115   0.753   0.405   4.742 -0.6337 -0.4700  1.8169
   59MOL   H32027116   0.363   0.556   4.501  2.1145 -0.4814 -0.4162
   59MOL   H32127117   0.225   0.741   4.395  0.2549  1.2332 -0.1331
   59MOL   H32227118   0.554   1.009   4.483  2.2603 -1.4130 -0.9536
   59MOL   H32327119   0.672   0.833   4.600 -0.7269  2.3519  0.8866
   59MOL   O32427120   0.107   1.111   4.283 -0.4839 -0.2494  0.4946
   59MOL   C32527121   0.014   1.164   4.373 -0.4501  0.2648  0.2199
   59MOL   C32627122   8.159   1.075   4.379  0.1623  0.0429 -0.3917
   59MOL   O32727123   8.066   1.134   4.462 -0.0943 -0.0496 -0.1913
   59MOL   C32827124   7.957   1.067   4.500  0.1199  1.0501  0.0662
   59MOL   O32927125   7.925   0.961   4.458  0.1782 -0.0413  0.1915
   59MOL   C33027126   7.874   1.150   4.598  0.9174 -0.3880 -0.4256
   59MOL   C33127127   7.918   1.283   4.636  0.3688  0.2380  0.1518
   59MOL   C33227128   7.848   1.349   4.737 -0.5751 -0.4269 -0.3683
   59MOL   C33327129   7.756   1.286   4.823  0.3975  0.7168 -0.3328
   59MOL   C33427130   7.711   1.349   4.944  1.4301 -0.6691  0.5598
   59MOL   O33527131   7.662   1.292   5.039 -0.1603  0.0373 -0.3164
   59MOL   O33627132   7.714   1.487   4.933  0.5510 -0.2102 -0.6831
   59MOL   C33727133   7.715   1.156   4.783 -0.3894  0.3679  0.1914
   59MOL   C33827134   7.768   1.095   4.670 -0.2743  0.5297  1.0187
   59MOL   H33927135   0.056   1.190   4.470  0.4801 -1.9243  0.4249
   59MOL   H34027136   8.262   1.257   4.324  2.3158  0.4491 -1.0772
   59MOL   H34127137   8.175   0.973   4.412  1.6493 -0.0964 -1.5058
   59MOL   H34227138   8.120   1.063   4.277 -1.4272  1.1998  0.0605
   59MOL   H34327139   7.996   1.329   4.577  1.7774 -3.4664 -0.9988
   59MOL   H34427140   7.879   1.451   4.752  0.1046 -0.6735 -0.0440
   59MOL   H34527141   7.630   1.105   4.826 -1.1610  1.3906 -0.0763
   59MOL   H34627142   7.742   0.990   4.660  4.1486 -0.8171  2.4092
   59MOL   O34727143   7.668   1.565   5.048 -0.5579 -0.4167  0.4270
   59MOL   C34827144   7.544   1.620   5.022 -0.0451 -0.5390  0.4790
   59MOL   C34927145   7.549   1.769   5.032 -0.3354  0.0190 -0.1393
   59MOL   O35027146   7.423   1.815   4.997  0.5406 -0.3500 -0.0701
   59MOL   C35127147   7.402   1.917   4.911  0.4451  0.0784 -0.0465
   59MOL   O35227148   7.486   1.994   4.866 -0.5789 -0.2721 -0.2511
   59MOL   C35327149   7.257   1.923   4.877  0.4397  0.2257  0.5219
   59MOL   C35427150   7.160   1.833   4.917 -0.4399  0.0319  0.2205
   59MOL   C35527151   7.024   1.846   4.887 -0.4784 -0.1859  0.3520
   59MOL   C35627152   6.979   1.965   4.819  1.0819 -0.4361 -0.0417
   59MOL   C35727153   6.838   1.977   4.780  0.3559  1.1381  0.2916
   59MOL   O35827154   6.794   2.030   4.682 -0.5014  0.4288 -0.1658
   59MOL   O35927155   6.753   1.921   4.871  0.1811 -0.0029  0.2756
   59MOL   C36027156   7.077   2.051   4.773  0.7665 -0.4717  0.2430
   59MOL   C36127157   7.215   2.027   4.794 -0.1109  0.0629  0.0723
   59MOL   H36227158   7.522   1.596   4.917 -1.7852 -0.3455  0.7873
   59MOL   H36327159   7.461   1.580   5.080 -0.8924 -1.9001 -1.5980
   59MOL   H36427160   7.626   1.806   4.964  1.8578  0.2187  2.3534
   59MOL   H36527161   7.581   1.796   5.133 -2.8906 -1.2741  1.0621
   59MOL   H36627162   7.190   1.755   4.984 -1.2659 -0.6739 -0.2310
   59MOL   H36727163   6.959   1.763   4.910  1.8894 -2.4918 -0.9304
   59MOL   H36827164   7.037   2.135   4.718  0.0629 -1.1320 -0.2527
   59MOL   H36927165   7.286   2.102   4.760  0.4381  1.8264  4.7102
   59MOL   O37027166   6.620   1.884   4.816  0.7323  0.1665  0.0987
   59MOL   C37127167   6.523   1.970   4.872 -0.3472 -0.0921 -0.7800
   59MOL   C37227168   6.488   1.931   5.018  0.1332 -0.0256  0.2490
   59MOL   O37327169   6.369   1.846   5.015  0.0280  0.0589  0.5384
   59MOL   C37427170   6.275   1.865   5.107  0.1386  0.6789 -0.2589
   59MOL   O37527171   6.289   1.936   5.208 -0.4892 -0.0180  0.2894
   59MOL   C37627172   6.157   1.785   5.078  0.2747  0.5159  0.6975
   59MOL   C37727173   6.147   1.715   4.955  0.5443  0.1642 -0.4926
   59MOL   C37827174   6.042   1.619   4.937 -0.0697 -1.1195  0.8406
   59MOL   C37927175   5.945   1.601   5.039  0.2878  0.9003 -0.2399
   59MOL   C38027176   5.832   1.505   5.013  0.6440 -0.8800  0.5983
   59MOL   O38127177   5.834   1.431   4.913  0.3552 -0.0311 -0.3234
   59MOL   O38227178   5.738   1.501   5.115  0.4787  0.5261 -0.1288
   59MOL   C38327179   5.952   1.681   5.159  0.3823 -0.0396  0.9658
   59MOL   C38427180   6.056   1.767   5.177  0.4675 -0.7766 -0.1220
   59MOL   H38527181   6.557   2.073   4.867 -2.0215  0.5933  1.4379
   59MOL   H38627182   6.433   1.970   4.810 -0.1832  0.0604 -1.0176
   59MOL   H38727183   6.462   2.023   5.070  1.1480  1.3609 -1.6118
   59MOL   H38827184   6.573   1.887   5.071  1.4908 -0.4490 -2.1903
   59MOL   H38927185   6.219   1.720   4.875 -0.9166  1.0564 -1.7773
   59MOL   H39027186   6.036   1.556   4.849 -1.2769  0.8370 -0.5162
   59MOL   H39127187   5.875   1.671   5.234 -0.5500 -0.5155 -0.0480
   59MOL   H39227188   6.055   1.829   5.266 -1.0457  0.9268 -1.2753
   59MOL   O39327189   5.622   1.421   5.076 -0.3035  0.0720  0.2497
   59MOL   C39427190   5.523   1.508   5.029 -0.2279 -0.1094 -0.4746
   59MOL   C39527191   5.495   1.633   5.118 -0.5430 -0.0042 -0.4954
   59MOL   O39627192   5.445   1.735   5.042 -0.6954  0.0646  0.3649
   59MOL   C39727193   5.522   1.799   4.954  0.0883 -0.5118  0.1115
   59MOL   O39827194   5.639   1.786   4.949 -0.4581  0.1234 -1.1202
   59MOL   C39927195   5.434   1.868   4.849 -0.6857 -0.3647  0.5451
   59MOL   C40027196   5.291   1.883   4.868  0.0493 -0.5364  0.8123
   59MOL   C40127197   5.218   1.953   4.767 -0.1986  0.7604  0.2545
   59MOL   C40227198   5.278   1.985   4.646  0.1102 -0.2641  0.1886
   59MOL   C40327199   5.201   2.043   4.533 -0.2815 -0.1497  1.1504
   59MOL   O40427200   5.253   2.117   4.442 -0.2638  0.8250 -0.2979
   59MOL   O40527201   5.072   2.004   4.547  0.1037 -0.4503 -0.4712
   59MOL   C40627202   5.418   1.971   4.630 -0.9434  0.2352  0.0491
   59MOL   C40727203   5.496   1.913   4.733 -0.6701  0.9281  0.8457
   59MOL   H40827204   5.554   1.538   4.929 -2.0386  2.8008 -0.2415
   59MOL   H40927205   5.429   1.453   5.025  0.0536 -0.6679  0.3854
   59MOL   H41027206   5.591   1.656   5.165 -0.9947  0.4639  0.1966
   59MOL   H41127207   5.426   1.613   5.199 -0.0043  0.2426  0.0283
   59MOL   H41227208   5.234   1.855   4.955 -3.4551  0.6397 -1.0107
   59MOL   H41327209   5.110   1.953   4.769 -0.2053 -0.4974  0.2877
   59MOL   H41427210   5.469   2.010   4.543 -0.7796 -1.1324 -0.4805
   59MOL   H41527211   5.603   1.902   4.729 -0.4350  3.4686 -1.8064
   59MOL   O41627212   4.981   2.046   4.431  0.0304 -0.0504  0.5369
   59MOL   C41727213   4.882   2.139   4.487 -0.9577  0.4073 -0.3189
   59MOL   C41827214   4.800   2.071   4.593  0.3927  0.5558 -0.2851
   59MOL   O41927215   4.764   2.164   4.690  0.3896 -0.4658  0.1873
   59MOL   C42027216   4.851   2.193   4.795  0.0228  0.6316  0.2111
   59MOL   O42127217   4.967   2.157   4.800  0.2283  0.6647  0.6145
   59MOL   C42227218   4.794   2.283   4.899 -0.2055  0.5172 -0.1858
   59MOL   C42327219   4.661   2.335   4.887  0.3219 -0.6756  0.0794
   59MOL   C42427220   4.616   2.427   4.985  0.5381  0.9166  0.5461
   59MOL   C42527221   4.687   2.463   5.101  0.0485 -0.5047  0.2651
   59MOL   C42627222   4.648   2.566   5.196 -0.0062  0.4896 -0.0343
   59MOL   O42727223   4.538   2.617   5.194 -0.2523 -0.2436  0.4684
   59MOL   O42827224   4.743   2.584   5.288 -0.0073  0.2677  0.2539
   59MOL   C42927225   4.808   2.397   5.119  0.0637 -0.4542  0.2823
   59MOL   C43027226   4.859   2.315   5.021  0.2961  0.5957  0.0617
   59MOL   H43127227   4.945   2.216   4.533  2.4454 -1.4335 -1.7518
   59MOL   H43227228   4.823   2.183   4.407  1.8968 -0.6443 -3.0936
   59MOL   H43327229   4.857   1.990   4.639 -0.5240 -0.6334 -1.2234
   59MOL   H43427230   4.700   2.040   4.565  0.5077 -0.3420  0.2782
   59MOL   H43527231   4.602   2.320   4.798  0.2062  0.8964 -0.1352
   59MOL   H43627232   4.521   2.477   4.973  1.2826  1.9686 -1.1415
   59MOL   H43727233   4.865   2.404   5.210 -1.7643 -2.0848  1.5933
   59MOL   H43827234   4.957   2.270   5.036  0.2965 -0.2703 -2.3251
   59MOL   O43927235   4.693   2.653   5.412 -0.3414  0.3167  0.4253
   59MOL   C44027236   4.682   2.553   5.518  0.2203  0.0476  0.0806
   59MOL   C44127237   4.810   2.563   5.591  0.4557  0.2116  0.4567
   59MOL   O44227238   4.920   2.508   5.524  0.5619  0.0564  0.3040
   59MOL   C44327239   4.937   2.379   5.523  0.0616  0.3142 -0.9246
   59MOL   O44427240   4.869   2.297   5.586 -0.0524 -0.2419  0.3652
   59MOL   C44527241   5.045   2.336   5.437  0.0380  0.1758  0.0465
   59MOL   C44627242   5.027   2.228   5.352 -0.2958 -0.9599  0.4538
   59MOL   C44727243   5.137   2.181   5.269 -0.2132 -0.0666  0.0542
   59MOL   C44827244   5.266   2.242   5.283  0.3355 -0.2579  0.1523
   59MOL   C44927245   5.379   2.190   5.204  0.0527  0.5789  0.6308
   59MOL   O45027246   5.486   2.243   5.199  0.0436  0.0136  0.3169
   59MOL   O45127247   5.349   2.090   5.119 -0.3506  0.3247 -0.3188
   59MOL   C45227248   5.284   2.349   5.380  0.0583  0.1923  0.4723
   59MOL   C45327249   5.170   2.401   5.445 -0.0899  0.8774 -0.6454
   59MOL   H45427250   4.605   2.609   5.571  1.2872  3.9700 -2.3225
   59MOL   H45527251   4.662   2.452   5.483  1.3630  0.2477 -1.1571
   59MOL   H45627252   4.785   2.515   5.685 -0.8882  0.6797  0.3429
   59MOL   H45727253   4.833   2.666   5.619 -0.3931  0.0651  1.7472
   59MOL   H45827254   4.937   2.168   5.360 -0.5596 -0.3246  2.7097
   59MOL   H45927255   5.113   2.093   5.212 -1.0025 -1.0638  1.8676
   59MOL   H46027256   5.378   2.401   5.377 -0.2709  0.7390 -1.3213
   59MOL   H46127257   5.181   2.491   5.503  0.0130  1.7233 -1.9726
   59MOL   H46227258   5.402   2.093   5.041 -1.7459  0.7087 -1.2651
   60MOL     O127259   3.633   7.354   5.705 -0.1011  0.1863  0.1727
   60MOL     C227260   3.605   7.418   5.827 -0.9531 -0.1983 -0.4048
   60MOL     C327261   3.471   7.357   5.886 -0.3874  0.6456  0.4278
   60MOL     O427262   3.355   7.425   5.825 -0.0941 -0.0885  0.0878
   60MOL     C527263   3.238   7.384   5.844 -0.6733 -0.5899 -0.2513
   60MOL     O627264   3.210   7.278   5.901 -0.5540 -0.0972  0.5108
   60MOL     C727265   3.133   7.483   5.800 -0.4164 -0.0574  0.3435
   60MOL     C827266   3.181   7.613   5.765  0.0690  0.3791 -0.2915
   60MOL     C927267   3.090   7.713   5.725 -0.0928  0.3950 -0.0184
   60MOL    C1027268   2.954   7.692   5.729  0.4004  0.1564  0.8102
   60MOL    C1127269   2.851   7.797   5.702  0.3010  0.6544  0.3457
   60MOL    O1227270   2.736   7.767   5.672 -0.1801 -0.1606  0.2113
   60MOL    O1327271   2.892   7.925   5.706 -0.1143  0.2205  0.0434
   60MOL    C1427272   2.907   7.565   5.767  0.2871 -0.0479  0.1865
   60MOL    C1527273   2.996   7.453   5.793  0.4520  0.1358  0.2893
   60MOL    H1627274   3.686   7.427   5.899  0.4259  1.5972 -2.1400
   60MOL    H1727275   3.595   7.523   5.801  1.2510  0.5393  1.5387
   60MOL    H1827276   3.469   7.391   5.990  1.0085  2.3327 -0.0827
   60MOL    H1927277   3.470   7.248   5.887  1.1554  0.5764 -1.9710
   60MOL    H2027278   3.287   7.629   5.764 -0.0306  0.9874 -1.5864
   60MOL    H2127279   3.113   7.811   5.686  1.7492 -0.3576 -0.8496
   60MOL    H2227280   2.803   7.540   5.758  0.3954 -0.6675  0.5936
   60MOL    H2327281   2.957   7.353   5.805 -2.7059  1.3973  1.0499
   60MOL    H2427282   3.661   7.419   5.642  0.3942 -0.6674 -0.4868
   60MOL    O2527283   2.796   8.036   5.666  0.0181 -0.0464  0.0688
   60MOL    C2627284   2.756   8.102   5.782  0.7178  0.3878 -0.1750
   60MOL    C2727285   2.679   8.222   5.725  0.5051  0.0999  0.2208
   60MOL    O2827286   2.770   0.054   5.685  0.0327  0.2808 -0.5982
   60MOL    C2927287   2.792   0.073   5.550  0.8125  0.5892  0.7473
   60MOL    O3027288   2.738   0.006   5.461  0.7802 -0.2984  0.6946
   60MOL    C3127289   2.883   0.189   5.522 -0.0416 -0.0295 -0.2505
   60MOL    C3227290   2.869   0.246   5.394  0.4583  0.7832 -0.4764
   60MOL    C3327291   2.949   0.354   5.358  0.3527  0.3710  0.2427
   60MOL    C3427292   3.035   0.416   5.449  0.7452  0.2369  0.2509
   60MOL    C3527293   3.112   0.540   5.420 -0.4398 -0.1159 -0.3051
   60MOL    O3627294   3.206   0.579   5.484 -0.2015  0.4824  0.2091
   60MOL    O3727295   3.066   0.603   5.310  0.0600 -0.2699 -0.2438
   60MOL    C3827296   3.045   0.359   5.577 -0.3891 -0.1923 -0.2189
   60MOL    C3927297   2.975   0.245   5.615 -0.0639 -0.0240  0.3224
   60MOL    H4027298   2.697   8.033   5.842 -0.5668  0.9390 -0.7876
   60MOL    H4127299   2.846   8.136   5.834 -0.5206  0.0394  2.2670
   60MOL    H4227300   2.611   8.264   5.800 -1.0993 -2.8302  0.4798
   60MOL    H4327301   2.611   8.187   5.648 -1.0986  0.9869  1.1861
   60MOL    H4427302   2.798   0.204   5.324 -0.1706 -1.2155  1.3021
   60MOL    H4527303   2.942   0.383   5.254  1.6933  1.0886  0.3445
   60MOL    H4627304   3.112   0.388   5.656  2.6409 -2.9511 -1.6792
   60MOL    H4727305   2.990   0.200   5.712 -0.8218 -0.8606  0.0639
   60MOL    O4827306   3.139   0.733   5.295 -0.1434  0.4457 -0.3657
   60MOL    C4927307   3.041   0.831   5.310  0.0223 -0.7557  0.8024
   60MOL    C5027308   3.010   0.855   5.458  0.3123  0.6040  0.8939
   60MOL    O5127309   3.129   0.899   5.518 -0.1859  0.3867 -0.3435
   60MOL    C5227310   3.147   1.031   5.520  0.1502 -0.3879 -0.0117
   60MOL    O5327311   3.059   1.112   5.485 -0.1505  0.4198 -0.0271
   60MOL    C5427312   3.286   1.066   5.556 -0.6837  0.1804  0.1114
   60MOL    C5527313   3.380   0.969   5.595 -0.8077  0.1558  0.1336
   60MOL    C5627314   3.512   1.006   5.615 -0.3571  0.7125 -0.0919
   60MOL    C5727315   3.555   1.141   5.612  0.3403 -0.0663  0.1169
   60MOL    C5827316   3.686   1.192   5.649  0.2322  0.4777 -0.1000
   60MOL    O5927317   3.717   1.311   5.649  0.6111 -0.0773  0.3092
   60MOL    O6027318   3.776   1.099   5.673  0.0545  0.6385  0.3368
   60MOL    C6127319   3.462   1.240   5.569 -0.2968 -0.6148  0.6635
   60MOL    C6227320   3.331   1.199   5.539  0.0813  0.0999  0.1036
   60MOL    H6327321   3.074   0.925   5.265 -1.5881  0.1428  1.4323
   60MOL    H6427322   2.945   0.811   5.262  0.7777  0.2208 -1.1596
   60MOL    H6527323   2.976   0.764   5.508 -0.8793 -0.4084 -1.6762
   60MOL    H6627324   2.930   0.929   5.448  0.0476  0.1520 -0.4149
   60MOL    H6727325   3.361   0.864   5.613  1.0490 -0.0336  1.1173
   60MOL    H6827326   3.577   0.924   5.640  0.2380  1.7818  1.9058
   60MOL    H6927327   3.484   1.346   5.565 -2.2844 -0.2117 -0.2105
   60MOL    H7027328   3.260   1.271   5.502  1.2264 -0.1772 -2.7635
   60MOL    O7127329   3.909   1.151   5.691  0.4408  0.6726 -0.0439
   60MOL    C7227330   3.985   1.120   5.579  0.5950 -0.0617  0.2115
   60MOL    C7327331   4.131   1.163   5.586 -0.2894 -0.2961 -0.4696
   60MOL    O7427332   4.139   1.299   5.613  0.0943  0.4763  1.0694
   60MOL    C7527333   4.178   1.392   5.529  0.1693  0.0050 -0.1957
   60MOL    O7627334   4.237   1.366   5.424 -0.3421 -0.3351 -0.2306
   60MOL    C7727335   4.133   1.529   5.567  0.4216 -0.2552 -0.3654
   60MOL    C7827336   4.036   1.553   5.665  0.0430 -0.1166 -0.9489
   60MOL    C7927337   3.985   1.685   5.689  0.9801  0.4296  0.4268
   60MOL    C8027338   4.038   1.793   5.622  0.3968 -0.9929  0.2024
   60MOL    C8127339   3.978   1.933   5.640  0.0454 -0.6428 -0.3421
   60MOL    O8227340   3.883   1.954   5.722 -0.4703  0.2729  0.1382
   60MOL    O8327341   4.020   2.026   5.554  0.5019 -1.0108 -0.3413
   60MOL    C8427342   4.152   1.772   5.537 -0.2046 -0.3960  0.0125
   60MOL    C8527343   4.195   1.640   5.510 -0.4511  0.5465 -1.1209
   60MOL    H8627344   3.980   1.012   5.572 -0.7855  0.0537 -0.8098
   60MOL    H8727345   3.943   1.162   5.488  1.9874  0.7001 -0.0966
   60MOL    H8827346   4.175   1.149   5.487  1.4143  2.1824 -0.0895
   60MOL    H8927347   4.189   1.093   5.647 -1.3161 -0.9591 -0.2312
   60MOL    H9027348   3.996   1.470   5.721  3.1738 -0.6934  0.5476
   60MOL    H9127349   3.905   1.708   5.758  1.2541  0.3006  0.7870
   60MOL    H9227350   4.209   1.855   5.499  1.9615 -1.9048 -0.1504
   60MOL    H9327351   4.279   1.615   5.447 -0.7225 -1.2091 -0.8044
   60MOL    O9427352   3.929   2.147   5.556 -0.0827  0.3450  0.0273
   60MOL    C9527353   3.836   2.138   5.449  0.3049 -0.1722 -0.0215
   60MOL    C9627354   3.912   2.180   5.322  0.7743 -0.5683 -0.3556
   60MOL    O9727355   3.933   2.064   5.236  0.5354 -0.4011  0.2499
   60MOL    C9827356   3.994   2.087   5.118 -0.0597 -0.3240 -0.2242
   60MOL    O9927357   4.036   2.201   5.086 -0.5301  0.3314 -0.0769
   60MOL   C10027358   3.973   1.975   5.016 -0.5573 -0.8229 -0.0383
   60MOL   C10127359   3.952   1.847   5.064 -1.0667 -0.1641 -0.0427
   60MOL   C10227360   3.934   1.744   4.967  0.1502  0.0125  0.2208
   60MOL   C10327361   3.933   1.772   4.826  0.3078  0.2029  0.8237
   60MOL   C10427362   3.902   1.660   4.724  0.0658  0.6422 -0.3231
   60MOL   O10527363   3.864   1.552   4.757  0.3750  0.5089  0.1745
   60MOL   O10627364   3.893   1.706   4.604  0.1955 -1.1188  0.4797
   60MOL   C10727365   3.956   1.906   4.784 -0.0617  1.1730  0.1209
   60MOL   C10827366   3.982   2.005   4.881  0.4243 -0.9459 -0.1175
   60MOL   H10927367   3.794   2.040   5.427  1.9206 -1.5147  2.7291
   60MOL   H11027368   3.757   2.209   5.475  0.9711  0.7336 -0.4582
   60MOL   H11127369   4.004   2.233   5.348  1.6443 -1.3335 -1.8383
   60MOL   H11227370   3.855   2.253   5.265  0.7186 -1.4258 -1.4004
   60MOL   H11327371   3.951   1.820   5.169 -1.2608 -3.4535 -0.8223
   60MOL   H11427372   3.909   1.645   5.001 -0.5301  0.3798  0.7878
   60MOL   H11527373   3.942   1.939   4.682  1.1895  2.3616  0.3262
   60MOL   H11627374   4.000   2.108   4.853  0.1511 -1.4733 -2.3295
   60MOL   O11727375   3.873   1.598   4.492  0.7472  0.2028 -0.5042
   60MOL   C11827376   3.739   1.609   4.437 -0.0304 -0.4942  0.0734
   60MOL   C11927377   3.697   1.475   4.378 -0.6181  0.1868 -0.2293
   60MOL   O12027378   3.692   1.386   4.487 -0.0789  0.2855  0.6415
   60MOL   C12127379   3.611   1.273   4.482  0.6520 -0.0300 -0.3645
   60MOL   O12227380   3.546   1.238   4.384  0.1436  0.2042  0.2913
   60MOL   C12327381   3.614   1.200   4.618 -0.2804  0.2349 -0.2184
   60MOL   C12427382   3.513   1.112   4.647  0.2047 -0.2087 -0.1816
   60MOL   C12527383   3.516   1.042   4.774  0.1145  0.5285  0.1143
   60MOL   C12627384   3.617   1.062   4.871 -0.7407  0.0311 -0.0591
   60MOL   C12727385   3.616   0.995   5.000 -0.1833 -0.1062 -0.2332
   60MOL   O12827386   3.703   1.020   5.089  0.0709  0.0455  0.4715
   60MOL   O12927387   3.521   0.898   5.018  0.5533 -0.3173  0.3969
   60MOL   C13027388   3.721   1.149   4.835 -0.1972 -0.1949  0.8325
   60MOL   C13127389   3.717   1.226   4.714 -0.4956 -0.7980  0.0150
   60MOL   H13227390   3.667   1.656   4.504 -0.1066  0.6786 -0.8134
   60MOL   H13327391   3.750   1.678   4.354  1.4495 -0.6385  0.1327
   60MOL   H13427392   3.765   1.445   4.298 -0.6754 -1.5946  0.3745
   60MOL   H13527393   3.598   1.499   4.338 -0.2854 -1.2286 -1.9793
   60MOL   H13627394   3.434   1.106   4.574 -0.8688 -1.4762  1.0600
   60MOL   H13727395   3.431   0.980   4.801  0.5704  1.1118  2.9933
   60MOL   H13827396   3.800   1.173   4.905  1.6297 -2.0046 -0.5455
   60MOL   H13927397   3.799   1.293   4.692 -0.8394 -0.1831  0.6278
   60MOL   O14027398   3.526   0.845   5.158  0.3417 -0.0699 -0.2550
   60MOL   C14127399   3.442   0.924   5.242  0.3259  0.2463 -0.3579
   60MOL   C14227400   3.333   1.009   5.177  0.0048  0.0496 -0.4504
   60MOL   O14327401   3.247   0.944   5.087  0.6333 -0.1212 -0.7139
   60MOL   C14427402   3.168   1.011   5.004 -0.3440 -0.8532  0.4456
   60MOL   O14527403   3.172   1.132   4.995  0.3650 -0.3825 -0.0171
   60MOL   C14627404   3.072   0.924   4.933  0.4077  0.1365 -0.5765
   60MOL   C14727405   3.039   0.794   4.974 -0.0830 -0.4027 -0.8058
   60MOL   C14827406   2.958   0.709   4.891  0.3617 -0.1218 -0.0890
   60MOL   C14927407   2.898   0.766   4.772  0.1320  0.5009  0.1909
   60MOL   C15027408   2.809   0.679   4.683  0.5010 -0.6846  0.5742
   60MOL   O15127409   2.783   0.560   4.700 -0.1670 -0.7265  0.1199
   60MOL   O15227410   2.752   0.755   4.580  0.3434  0.4339 -0.1529
   60MOL   C15327411   2.919   0.900   4.749  0.2901 -0.1085 -0.5465
   60MOL   C15427412   3.007   0.980   4.825  0.0407  0.5637  0.6193
   60MOL   H15527413   3.395   0.856   5.313 -1.8298  1.3942 -0.6283
   60MOL   H15627414   3.506   0.998   5.290  2.0744 -0.6831 -1.2081
   60MOL   H15727415   3.379   1.086   5.115 -1.1316  0.1229 -1.2270
   60MOL   H15827416   3.273   1.071   5.244  0.5779 -0.9135  0.9709
   60MOL   H15927417   3.086   0.763   5.067 -1.9013 -0.1081  0.2412
   60MOL   H16027418   2.932   0.607   4.913  1.2602  0.2222  2.6858
   60MOL   H16127419   2.871   0.946   4.664  0.8867  0.0754 -0.7875
   60MOL   H16227420   3.025   1.082   4.794 -0.4119  0.4150 -0.1814
   60MOL   O16327421   2.674   0.678   4.471  0.3040  1.1022 -0.3513
   60MOL   C16427422   2.539   0.666   4.519 -0.0858 -0.4881 -0.0941
   60MOL   C16527423   2.500   0.524   4.546  0.5901  0.3741  0.1056
   60MOL   O16627424   2.411   0.469   4.444 -0.4467  0.2348 -0.3758
   60MOL   C16727425   2.282   0.499   4.450  0.5433  0.0644 -0.2642
   60MOL   O16827426   2.249   0.588   4.529 -0.6127  0.2455 -0.2389
   60MOL   C16927427   2.190   0.430   4.350  0.0546  0.1937  0.4637
   60MOL   C17027428   2.243   0.342   4.249  0.0315  0.8928 -0.4934
   60MOL   C17127429   2.157   0.305   4.143 -0.7717  0.6492 -0.3274
   60MOL   C17227430   2.017   0.341   4.141  0.2803  0.1376  0.1416
   60MOL   C17327431   1.930   0.320   4.026  0.6653 -0.2194 -0.5905
   60MOL   O17427432   1.863   0.411   3.988  0.4260  0.0423  0.0081
   60MOL   O17527433   1.942   0.199   3.977  0.3056  0.2007 -0.1796
   60MOL   C17627434   1.965   0.413   4.254  0.7105 -0.6093 -0.2117
   60MOL   C17727435   2.055   0.472   4.347 -0.1940  0.7772 -1.6710
   60MOL   H17827436   2.522   0.733   4.604  1.3384  0.7717 -0.7719
   60MOL   H17927437   2.476   0.709   4.440 -0.1758 -0.1174  0.1763
   60MOL   H18027438   2.445   0.520   4.640  0.6480 -0.0269  0.1248
   60MOL   H18127439   2.583   0.453   4.542 -0.3079 -0.6243 -1.8470
   60MOL   H18227440   2.344   0.304   4.249 -0.0179  0.7605 -0.3837
   60MOL   H18327441   2.183   0.230   4.071  0.1616  0.3493  0.3164
   60MOL   H18427442   1.860   0.439   4.264  1.5468  3.2251 -0.5366
   60MOL   H18527443   2.023   0.548   4.417 -2.2790 -1.4408 -0.1369
   60MOL   O18627444   1.882   0.177   3.845 -0.0773 -0.3479 -1.0575
   60MOL   C18727445   1.744   0.156   3.852  0.0422 -0.2668 -0.1931
   60MOL   C18827446   1.687   0.139   3.711  0.7711 -0.2297  0.0410
   60MOL   O18927447   1.694   8.273   3.675  0.2645 -0.3046 -0.6339
   60MOL   C19027448   1.614   8.233   3.573 -0.4086 -0.3721 -0.3632
   60MOL   O19127449   1.538   0.034   3.509 -0.0044  0.3434  0.1943
   60MOL   C19227450   1.623   8.088   3.555  0.7233 -0.3039 -0.4178
   60MOL   C19327451   1.515   8.028   3.490 -0.0326  0.1626  0.9599
   60MOL   C19427452   1.520   7.892   3.460 -0.1883 -0.2312  0.5407
   60MOL   C19527453   1.642   7.816   3.479 -0.4842 -0.8366  1.0309
   60MOL   C19627454   1.656   7.677   3.422 -0.0396 -0.7637  0.4106
   60MOL   O19727455   1.562   7.627   3.359  0.3704  0.3305 -0.2694
   60MOL   O19827456   1.764   7.607   3.466 -0.0347 -0.5951  0.2483
   60MOL   C19927457   1.757   7.884   3.531 -0.0966  0.3455  0.4934
   60MOL   C20027458   1.748   8.020   3.567 -0.3696 -0.5469  0.0283
   60MOL   H20127459   1.704   0.082   3.921  1.4608 -0.3409  0.5725
   60MOL   H20227460   1.697   0.248   3.888  1.2738  0.1974  0.2768
   60MOL   H20327461   1.752   0.196   3.645  0.8788  0.5985  0.8504
   60MOL   H20427462   1.592   0.187   3.691  0.2035 -1.3379 -0.0030
   60MOL   H20527463   1.424   8.084   3.470  0.1369  0.6706  1.5829
   60MOL   H20627464   1.434   7.839   3.423  0.0786  0.9895 -1.9255
   60MOL   H20727465   1.852   7.836   3.547 -1.0561 -1.7888 -0.0441
   60MOL   H20827466   1.839   8.068   3.598 -0.1116 -0.5677 -0.6747
   60MOL   O20927467   1.747   7.461   3.449  0.1716 -0.0597  0.6478
   60MOL   C21027468   1.743   7.399   3.572 -0.4588  0.3708  0.5533
   60MOL   C21127469   1.632   7.454   3.670  0.7307  0.6003 -0.1448
   60MOL   O21227470   1.676   7.571   3.736 -0.1488  0.4400  0.0893
   60MOL   C21327471   1.742   7.573   3.848 -0.6762 -0.0598  0.1947
   60MOL   O21427472   1.773   7.468   3.909 -0.0524 -0.2204  0.2596
   60MOL   C21527473   1.771   7.719   3.886  0.6990 -0.0031  0.1547
   60MOL   C21627474   1.885   7.755   3.964  0.3214 -0.7345 -0.0182
   60MOL   C21727475   1.897   7.893   4.002 -0.1392  0.3589 -0.0964
   60MOL   C21827476   1.785   7.982   3.991  0.1231  0.1977  0.0612
   60MOL   C21927477   1.781   8.110   4.070  0.1243 -0.5761 -0.6605
   60MOL   O22027478   1.683   8.192   4.081  0.1790 -0.2830  0.2428
   60MOL   O22127479   1.897   8.125   4.145 -0.3006  0.1220 -0.4189
   60MOL   C22227480   1.681   7.948   3.895 -1.0223  0.1439  0.6273
   60MOL   C22327481   1.679   7.816   3.841 -0.0720 -0.5444  0.0213
   60MOL   H22427482   1.710   7.299   3.543  0.2335  0.5453 -0.8439
   60MOL   H22527483   1.833   7.400   3.634 -0.5678 -0.4555  0.7340
   60MOL   H22627484   1.603   7.375   3.739 -2.3068  2.4398  0.7622
   60MOL   H22727485   1.547   7.478   3.607  0.8019 -0.0505 -0.4968
   60MOL   H22827486   1.958   7.679   3.986  1.6368 -0.3250 -2.7447
   60MOL   H22927487   1.984   7.917   4.061 -0.9846  2.1416  0.4374
   60MOL   H23027488   1.600   8.016   3.870  0.1307  1.0892 -0.6615
   60MOL   H23127489   1.586   7.800   3.788 -0.1252  2.5247 -0.8794
   60MOL   O23227490   1.909   8.255   4.222  0.3677  0.0278 -0.1934
   60MOL   C23327491   1.877   8.236   4.362 -0.2331 -0.4091  1.1695
   60MOL   C23427492   1.857   0.103   4.418  1.1162 -0.0623 -0.3518
   60MOL   O23527493   1.724   0.121   4.453 -0.0410  0.0768 -0.2540
   60MOL   C23627494   1.635   0.151   4.370 -0.3346  0.2067 -0.3086
   60MOL   O23727495   1.657   0.208   4.260  0.6880  0.9590  0.2365
   60MOL   C23827496   1.502   0.127   4.444  0.0337 -0.0352  0.1084
   60MOL   C23927497   1.499   0.054   4.569  0.2208 -0.5212  0.1318
   60MOL   C24027498   1.372   0.040   4.634 -0.1900  0.2181 -0.3741
   60MOL   C24127499   1.253   0.096   4.584  0.4316  0.2765 -0.0796
   60MOL   C24227500   1.133   0.069   4.663 -0.2066  0.3849  0.0861
   60MOL   O24327501   1.128   8.259   4.750  0.2183 -0.2513  0.6914
   60MOL   O24427502   1.032   0.144   4.620  0.4576 -0.0820  0.2125
   60MOL   C24527503   1.265   0.152   4.456 -0.0516 -0.1378  0.2545
   60MOL   C24627504   1.382   0.179   4.387 -0.1042  0.4244 -0.6125
   60MOL   H24727505   1.787   8.175   4.370 -0.4498 -0.2102  0.2798
   60MOL   H24827506   1.965   8.199   4.415  1.3774  0.7899 -0.5825
   60MOL   H24927507   1.895   0.178   4.349  2.0119 -1.0467 -0.9327
   60MOL   H25027508   1.916   0.135   4.504  2.1474  1.4604 -1.5959
   60MOL   H25127509   1.582   0.005   4.618  0.5199  1.8829  2.0844
   60MOL   H25227510   1.376   8.256   4.724 -0.2647 -1.1187 -1.2325
   60MOL   H25327511   1.175   0.184   4.404  0.2901  0.4336  0.0031
   60MOL   H25427512   1.390   0.235   4.295  1.7720  0.7905 -0.2444
   60MOL   O25527513   0.898   0.112   4.674 -0.1911  1.0574 -0.3214
   60MOL   C25627514   0.822   0.046   4.573 -0.2451 -0.0612  0.1034
   60MOL   C25727515   0.835   8.172   4.593  0.3443 -0.7768 -0.4015
   60MOL   O25827516   0.836   8.091   4.476 -0.4030  0.0526  0.2050
   60MOL   C25927517   0.936   8.092   4.386 -0.1224 -0.2211 -0.7416
   60MOL   O26027518   1.032   8.171   4.400  0.0020  0.1156  0.0904
   60MOL   C26127519   0.912   7.999   4.278 -0.3534 -0.2951 -0.2615
   60MOL   C26227520   0.973   8.029   4.151 -0.6033 -0.4466 -0.3918
   60MOL   C26327521   0.954   7.942   4.045 -0.2602  0.5012 -0.3667
   60MOL   C26427522   0.867   7.830   4.055 -0.3115  0.3804  0.0912
   60MOL   C26527523   0.828   7.757   3.939  0.1136  0.0665 -0.1232
   60MOL   O26627524   0.742   7.667   3.943  0.0089 -0.3544  0.1544
   60MOL   O26727525   0.896   7.792   3.828  0.1130 -0.2326  0.1422
   60MOL   C26827526   0.812   7.803   4.176 -0.6033  0.3009  0.3339
   60MOL   C26927527   0.828   7.886   4.295 -0.7912  0.0682  0.1543
   60MOL   H27027528   0.717   0.074   4.575 -0.2125  0.1217 -0.4054
   60MOL   H27127529   0.863   0.069   4.474  0.5099 -0.6953  0.2585
   60MOL   H27227530   0.745   8.133   4.642  0.7894  0.1055  1.1336
   60MOL   H27327531   0.932   8.146   4.635 -0.6004 -0.3011  2.1497
   60MOL   H27427532   1.049   8.105   4.140 -0.8454 -0.3803 -1.6266
   60MOL   H27527533   1.009   7.974   3.957 -0.3051  0.9982 -0.2185
   60MOL   H27627534   0.746   7.717   4.185  1.0387 -0.9954  0.1994
   60MOL   H27727535   0.771   7.863   4.384  0.6583  1.6773  1.5327
   60MOL   O27827536   0.848   7.726   3.702  0.1643 -0.0984 -0.0845
   60MOL   C27927537   0.932   7.618   3.669 -0.1320 -0.1136 -0.1937
   60MOL   C28027538   1.071   7.678   3.609 -0.0647  0.4136  0.0418
   60MOL   O28127539   1.165   7.720   3.708 -0.8277  0.0307  0.0997
   60MOL   C28227540   1.253   7.633   3.762  0.7742  0.2956 -0.3313
   60MOL   O28327541   1.276   7.522   3.715 -0.2013  0.2047 -0.2198
   60MOL   C28427542   1.327   7.694   3.884 -0.4507  0.4073  0.7466
   60MOL   C28527543   1.405   7.606   3.964  0.7401 -0.2495  0.0152
   60MOL   C28627544   1.470   7.662   4.077  0.4137  0.8021 -0.5827
   60MOL   C28727545   1.446   7.796   4.116 -1.0091  0.5007 -0.0525
   60MOL   C28827546   1.513   7.838   4.242 -0.0749  0.2530  0.5824
   60MOL   O28927547   1.603   7.772   4.297  0.0629  0.2667 -0.1102
   60MOL   O29027548   1.463   7.952   4.301  0.0680  0.1285  0.2718
   60MOL   C29127549   1.365   7.881   4.037 -0.1452 -0.9553  0.5871
   60MOL   C29227550   1.304   7.826   3.923  0.4377  0.3292  0.2964
   60MOL   H29327551   0.939   7.549   3.753  0.7709 -0.3721 -0.4770
   60MOL   H29427552   0.878   7.555   3.599 -1.2855 -0.0189  0.6076
   60MOL   H29527553   1.057   7.765   3.544 -1.9220 -1.8536 -2.7048
   60MOL   H29627554   1.128   7.607   3.550  1.4425 -0.0117  1.9472
   60MOL   H29727555   1.420   7.505   3.929  3.2839  0.0101  0.2916
   60MOL   H29827556   1.530   7.596   4.138 -0.2960  0.9445  0.2868
   60MOL   H29927557   1.357   7.987   4.057  0.7142 -0.2627 -2.5837
   60MOL   H30027558   1.245   7.896   3.865 -0.6995  0.0879  1.1472
   60MOL   O30127559   1.519   7.989   4.430  0.1762 -0.1182 -0.3921
   60MOL   C30227560   1.439   7.941   4.541 -0.5376  0.5833 -0.0639
   60MOL   C30327561   1.293   7.967   4.548 -0.0891 -0.2220  0.2025
   60MOL   O30427562   1.225   7.875   4.464  1.0005 -0.7511 -0.4463
   60MOL   C30527563   1.146   7.784   4.515  0.0427  0.3305 -0.2853
   60MOL   O30627564   1.133   7.757   4.633  0.1770  0.4365 -0.3199
   60MOL   C30727565   1.085   7.689   4.409  0.0469 -0.9782 -0.1496
   60MOL   C30827566   0.999   7.586   4.458  0.6151  0.3231 -0.3215
   60MOL   C30927567   0.957   7.494   4.363 -0.0658  0.3231  0.1045
   60MOL   C31027568   0.993   7.505   4.230 -0.0945 -0.0403  0.1165
   60MOL   C31127569   0.932   7.418   4.122  0.0455  0.3691  0.3967
   60MOL   O31227570   0.972   7.419   4.007  0.0730 -0.4077 -0.6293
   60MOL   O31327571   0.842   7.328   4.166 -0.1959 -0.1838  0.0750
   60MOL   C31427572   1.078   7.607   4.188  0.5995 -0.1678  0.0579
   60MOL   C31527573   1.117   7.710   4.272 -0.4288  0.8778  0.3175
   60MOL   H31627574   1.458   7.834   4.549  0.6277  0.8909  1.4788
   60MOL   H31727575   1.487   7.986   4.628 -1.7615 -1.9203  1.9639
   60MOL   H31827576   1.291   8.072   4.519 -0.0340  0.0631  1.2271
   60MOL   H31927577   1.260   7.955   4.651 -0.9169  2.1326  0.2390
   60MOL   H32027578   0.975   7.573   4.563  0.2275  1.9299 -0.1913
   60MOL   H32127579   0.889   7.419   4.400 -0.3935  1.9880  2.9931
   60MOL   H32227580   1.116   7.616   4.087  1.9627 -1.9331  0.3702
   60MOL   H32327581   1.179   7.790   4.232 -1.6378  1.1427 -1.0564
   60MOL   O32427582   0.775   7.247   4.058  0.1088  0.0301  0.2123
   60MOL   C32527583   0.665   7.319   4.000  0.1705 -0.2012  0.2407
   60MOL   C32627584   0.533   7.326   4.082 -0.0839  0.1402  0.0037
   60MOL   O32727585   0.571   7.394   4.205  0.0389  0.5645 -0.5168
   60MOL   C32827586   0.571   7.329   4.320 -0.9074 -0.1238  0.1525
   60MOL   O32927587   0.548   7.208   4.340 -0.0516  0.5483  0.0781
   60MOL   C33027588   0.609   7.425   4.434  0.3795 -0.1841  0.2096
   60MOL   C33127589   0.602   7.568   4.426 -0.5403 -0.4842  0.4374
   60MOL   C33227590   0.647   7.648   4.528 -0.2793 -0.4805 -0.6748
   60MOL   C33327591   0.710   7.594   4.645  0.1010  0.1429 -0.4482
   60MOL   C33427592   0.763   7.681   4.755 -0.5084  0.0552 -0.1879
   60MOL   O33527593   0.832   7.641   4.845  0.1532 -0.9551 -0.0549
   60MOL   O33627594   0.712   7.802   4.748  0.0411  0.0668 -0.6627
   60MOL   C33727595   0.720   7.451   4.651  0.0456  0.4255  1.0479
   60MOL   C33827596   0.670   7.369   4.547  0.7284 -0.6476 -1.0588
   60MOL   H33927597   0.706   7.417   3.973 -0.3120  0.1715  0.8398
   60MOL   H34027598   0.641   7.278   3.902  2.5364  2.3611 -1.4716
   60MOL   H34127599   0.497   7.225   4.097 -1.0112  0.1399 -2.1242
   60MOL   H34227600   0.447   7.357   4.024 -0.2043 -0.1303  0.0384
   60MOL   H34327601   0.551   7.622   4.348  1.7148  0.5075 -0.3959
   60MOL   H34427602   0.636   7.755   4.522  1.5621 -0.0608  2.4074
   60MOL   H34527603   0.767   7.401   4.734 -2.6079 -2.9358  0.6371
   60MOL   H34627604   0.673   7.262   4.552 -0.9999 -0.6140  2.0618
   60MOL   O34727605   0.785   7.910   4.829  0.7068  0.0563 -0.4010
   60MOL   C34827606   0.724   7.914   4.955  0.6779  0.2398  0.1623
   60MOL   C34927607   0.577   7.970   4.953 -0.3483  0.4944  0.2229
   60MOL   O35027608   0.573   8.109   4.960  0.3723  0.4441 -0.1774
   60MOL   C35127609   0.580   8.173   5.079 -0.2131 -1.4100 -0.5588
   60MOL   O35227610   0.587   8.120   5.194 -0.4816  0.0287 -0.1616
   60MOL   C35327611   0.571   0.044   5.066  0.0465 -1.0377 -0.7118
   60MOL   C35427612   0.555   0.114   4.942  0.3844 -0.5017  0.2548
   60MOL   C35527613   0.541   0.255   4.931 -0.5094  0.4382  0.3625
   60MOL   C35627614   0.546   0.329   5.051 -0.5252  0.2336 -0.4116
   60MOL   C35727615   0.522   0.480   5.053 -0.2118 -0.2296 -0.2809
   60MOL   O35827616   0.530   0.553   4.956  0.0502 -0.2476  0.6229
   60MOL   O35927617   0.510   0.539   5.177 -0.1497 -0.8064  0.2863
   60MOL   C36027618   0.567   0.262   5.176 -0.2175 -0.0945 -0.6032
   60MOL   C36127619   0.575   0.125   5.181 -0.0478  0.3118  0.2273
   60MOL   H36227620   0.728   7.812   4.993 -0.0006 -0.5741 -1.9305
   60MOL   H36327621   0.776   7.980   5.025  0.1890 -1.1395  1.8649
   60MOL   H36427622   0.533   7.928   5.043  0.4316  0.2049  0.4726
   60MOL   H36527623   0.513   7.939   4.870  0.2122  0.8173 -0.3313
   60MOL   H36627624   0.553   0.052   4.853  1.5005  0.4767 -0.4625
   60MOL   H36727625   0.510   0.304   4.840  1.9617  0.0974 -0.7117
   60MOL   H36827626   0.578   0.331   5.258  1.8868 -0.0584 -0.9022
   60MOL   H36927627   0.574   0.082   5.280 -0.4704  0.4705  0.2925
   60MOL   O37027628   0.513   0.689   5.186  0.1494  0.2908  0.1255
   60MOL   C37127629   0.394   0.730   5.248  1.1318 -0.0666  0.0735
   60MOL   C37227630   0.415   0.721   5.396  0.3017  0.0818  0.1911
   60MOL   O37327631   0.371   0.593   5.447  0.4434 -0.5852 -0.7190
   60MOL   C37427632   0.300   0.581   5.563  0.1494  1.3327 -0.9439
   60MOL   O37527633   0.282   0.682   5.635 -0.5634  0.4305 -0.2115
   60MOL   C37627634   0.279   0.436   5.604  0.6850 -0.4021 -0.0267
   60MOL   C37727635   0.328   0.320   5.533  0.7191 -0.2292  0.1111
   60MOL   C37827636   0.334   0.198   5.596  0.0248  0.3375 -0.4198
   60MOL   C37927637   0.262   0.172   5.718  0.1617 -0.2502 -0.3230
   60MOL   C38027638   0.254   0.034   5.770 -0.1991 -0.4117 -0.4722
   60MOL   O38127639   0.291   8.204   5.714  0.5216  0.3652 -0.2052
   60MOL   O38227640   0.199   0.037   5.898  0.7608 -0.2812  0.0660
   60MOL   C38327641   0.209   0.282   5.787 -0.4019 -0.0469  0.5213
   60MOL   C38427642   0.218   0.413   5.733 -0.1765  0.4101  0.0251
   60MOL   H38527643   0.385   0.833   5.215 -2.7867 -0.4823 -0.3842
   60MOL   H38627644   0.309   0.670   5.215  0.8365 -0.2351  1.1195
   60MOL   H38727645   0.340   0.786   5.441  0.2402 -1.4866  2.4679
   60MOL   H38827646   0.514   0.758   5.426  0.1396  1.0011 -0.3916
   60MOL   H38927647   0.384   0.337   5.442  0.1538  0.0333 -0.1920
   60MOL   H39027648   0.391   0.121   5.547 -1.3963 -1.2154  0.3160
   60MOL   H39127649   0.150   0.276   5.877 -1.3482  0.7283 -0.0358
   60MOL   H39227650   0.201   0.497   5.799  0.7269 -0.8816  1.9256
   60MOL   O39327651   0.180   8.178   5.960 -1.0429 -0.4091  0.1795
   60MOL   C39427652   0.054   8.124   5.920 -0.2614 -0.5856  0.2211
   60MOL   C39527653   8.201   8.202   5.974  0.6507 -0.2641  0.0106
   60MOL   O39627654   8.158   8.171   6.105  0.0560 -0.0557 -0.2215
   60MOL   C39727655   8.219   8.228   6.200 -0.8238  0.6620 -0.4263
   60MOL   O39827656   0.020   0.050   6.185 -0.6432  0.5029  0.3525
   60MOL   C39927657   8.185   8.171   6.331  0.0551 -0.6675  0.0935
   60MOL   C40027658   8.236   8.236   6.447  0.2427 -0.3719 -0.2461
   60MOL   C40127659   8.214   8.187   6.581  0.8978  0.2462 -0.5335
   60MOL   C40227660   8.136   8.073   6.601  0.4378  0.0724  0.4380
   60MOL   C40327661   8.096   8.016   6.736 -0.4083 -0.2980 -0.4131
   60MOL   O40427662   8.022   7.923   6.748  0.0264  0.2178  0.5268
   60MOL   O40527663   8.137   8.090   6.842  0.4106 -0.0445  0.3496
   60MOL   C40627664   8.092   8.005   6.484 -0.1549  0.7283  0.1876
   60MOL   C40727665   8.114   8.051   6.351  0.1717 -0.5107  0.0312
   60MOL   H40827666   0.040   8.134   5.813 -1.3030 -0.3072  0.3755
   60MOL   H40927667   0.049   8.017   5.941 -2.7789 -0.2764  1.3715
   60MOL   H41027668   8.126   8.163   5.906 -0.2130  0.2035  0.6905
   60MOL   H41127669   8.199   0.032   5.950  4.0046  0.2067  1.5253
   60MOL   H41227670   0.009   0.057   6.435 -0.3480 -0.0712 -0.2447
   60MOL   H41327671   8.252   8.236   6.669  0.1296  0.9317 -0.5807
   60MOL   H41427672   8.023   7.923   6.498 -1.5124  1.6783 -0.8263
   60MOL   H41527673   8.078   7.997   6.265  0.3231 -0.5545 -0.0037
   60MOL   O41627674   8.072   8.070   6.980  0.2238  0.7187 -0.2955
   60MOL   C41727675   8.139   7.967   7.043 -0.3610 -0.6044  0.7627
   60MOL   C41827676   8.054   7.912   7.158 -1.0234  0.1742  0.4638
   60MOL   O41927677   7.928   7.861   7.096 -0.0672  0.2889 -0.6397
   60MOL   C42027678   7.809   7.904   7.142  0.7650  0.4054 -1.1852
   60MOL   O42127679   7.792   7.983   7.235 -0.2184  0.1109  0.0072
   60MOL   C42227680   7.707   7.825   7.079 -0.0722 -0.7167  0.3691
   60MOL   C42327681   7.580   7.874   7.096 -0.5042 -0.0321  0.0716
   60MOL   C42427682   7.473   7.807   7.037  0.0991 -0.3026 -0.3920
   60MOL   C42527683   7.495   7.687   6.967  0.6263 -0.2645  0.3030
   60MOL   C42627684   7.372   7.613   6.917  0.6710  0.0935 -0.3669
   60MOL   O42727685   7.256   7.640   6.951  0.2866 -0.1512 -0.2338
   60MOL   O42827686   7.402   7.514   6.828  1.0335  0.0801 -0.2382
   60MOL   C42927687   7.625   7.639   6.953  0.0091  1.1610 -0.1568
   60MOL   C43027688   7.735   7.710   7.004 -0.0786 -0.3580  0.6434
   60MOL   H43127689   8.180   7.883   6.988 -1.2343 -1.4625  1.4065
   60MOL   H43227690   8.226   8.007   7.097  0.2696 -0.9171 -0.0154
   60MOL   H43327691   8.039   7.997   7.225 -0.8508  0.9856 -0.5154
   60MOL   H43427692   8.108   7.842   7.221 -1.0997 -0.8724 -0.6076
   60MOL   H43527693   7.563   7.963   7.156 -1.2582 -1.6524  2.3254
   60MOL   H43627694   7.373   7.845   7.058  0.9255  1.3792  0.6167
   60MOL   H43727695   7.654   7.545   6.907  1.8081  1.1674  0.9037
   60MOL   H43827696   7.835   7.669   7.004  0.6806  1.4208 -1.4756
   60MOL   O43927697   7.292   7.418   6.822 -0.1046  0.0751 -0.2310
   60MOL   C44027698   7.333   7.311   6.901 -0.2752  0.5226  0.4871
   60MOL   C44127699   7.422   7.224   6.822 -0.5721  0.1404 -0.8165
   60MOL   O44227700   7.563   7.267   6.818 -0.2414 -0.3189  0.4540
   60MOL   C44327701   7.639   7.247   6.924 -0.3335  0.2128 -0.0666
   60MOL   O44427702   7.602   7.187   7.030  0.0421 -0.1138  0.0937
   60MOL   C44527703   7.774   7.307   6.908  0.5961  0.7200 -0.1027
   60MOL   C44627704   7.868   7.305   7.009  0.0760 -0.1293 -0.0863
   60MOL   C44727705   7.991   7.376   6.998 -0.2159 -0.2641 -0.6340
   60MOL   C44827706   8.027   7.431   6.873 -0.3110  0.5086  0.7060
   60MOL   C44927707   8.165   7.477   6.840  1.0456  0.0587  0.1451
   60MOL   O45027708   8.194   7.587   6.794 -0.1113 -0.2879  0.2702
   60MOL   O45127709   8.257   7.387   6.887  0.1558  0.3011  0.0160
   60MOL   C45227710   7.934   7.431   6.765  0.0273 -0.0802  0.4264
   60MOL   C45327711   7.807   7.369   6.785  0.4600  0.2553 -0.4096
   60MOL   H45427712   7.377   7.341   6.996  2.0092 -0.3699 -0.2556
   60MOL   H45527713   7.248   7.253   6.936 -0.3492 -0.8204 -1.7721
   60MOL   H45627714   7.391   7.225   6.717 -1.6460  2.5162 -0.4856
   60MOL   H45727715   7.423   7.123   6.865 -0.1764  1.0380  1.3311
   60MOL   H45827716   7.840   7.265   7.105 -0.3518 -0.0600 -0.1789
   60MOL   H45927717   8.049   7.386   7.088  0.0111  1.6020 -0.9541
   60MOL   H46027718   7.952   7.482   6.671 -0.5188  0.5161  0.6362
   60MOL   H46127719   7.744   7.378   6.697  0.0596  0.0221 -0.1476
   60MOL   H46227720   0.067   7.423   6.867 -0.6116  1.9375 -0.3976
   61MOL     O127721   1.461   5.592   5.463 -0.8013  0.3268 -0.6262
   61MOL     C227722   1.462   5.594   5.317  0.1025  0.7585 -0.1378
   61MOL     C327723   1.583   5.671   5.260  0.1734 -0.2304 -0.1442
   61MOL     O427724   1.576   5.685   5.117 -0.4005 -0.6184 -0.5159
   61MOL     C527725   1.660   5.602   5.044  0.1603 -0.8578 -0.3261
   61MOL     O627726   1.740   5.517   5.093 -0.3655 -0.3217  0.0549
   61MOL     C727727   1.637   5.609   4.898 -0.3516 -0.0732 -0.6659
   61MOL     C827728   1.716   5.528   4.809  0.3738  0.3678 -0.5985
   61MOL     C927729   1.683   5.522   4.671 -0.9074 -0.6132 -0.1562
   61MOL    C1027730   1.584   5.603   4.613  0.4707 -0.5317  0.1523
   61MOL    C1127731   1.549   5.579   4.468 -0.7789 -0.0372 -0.0557
   61MOL    O1227732   1.595   5.484   4.400  0.1580  0.3416  0.7126
   61MOL    O1327733   1.473   5.677   4.414  0.5768 -0.4911 -0.0330
   61MOL    C1427734   1.503   5.694   4.699  0.1007 -0.3730  0.2764
   61MOL    C1527735   1.540   5.698   4.838  0.3014 -0.0374 -0.1885
   61MOL    H1627736   1.452   5.494   5.275 -2.9457 -0.2944  2.8167
   61MOL    H1727737   1.361   5.632   5.305 -1.6657 -3.0368  1.7617
   61MOL    H1827738   1.673   5.625   5.299 -1.1970 -0.6164  2.6884
   61MOL    H1927739   1.563   5.773   5.293 -0.2269 -0.8339  1.5514
   61MOL    H2027740   1.790   5.457   4.845 -0.9281 -1.1440 -0.8831
   61MOL    H2127741   1.741   5.458   4.606  0.5656  0.2291  0.2969
   61MOL    H2227742   1.416   5.751   4.669  0.7583  1.2780  1.4127
   61MOL    H2327743   1.478   5.752   4.908 -1.6544  1.8516 -3.2554
   61MOL    H2427744   1.407   5.525   5.501 -0.7082  0.9498  0.6112
   61MOL    O2527745   1.468   5.669   4.260  0.2928 -0.1854  0.3157
   61MOL    C2627746   1.334   5.662   4.226  0.3859  0.0720 -0.5373
   61MOL    C2727747   1.264   5.533   4.255 -0.0379  0.5818 -0.0422
   61MOL    O2827748   1.203   5.540   4.382 -0.1326  0.3143  0.0893
   61MOL    C2927749   1.081   5.597   4.401  0.3088 -0.2527  0.5868
   61MOL    O3027750   1.018   5.649   4.307 -0.2451  0.0733 -1.0684
   61MOL    C3127751   1.040   5.611   4.548 -0.0697 -0.4346  0.1342
   61MOL    C3227752   1.136   5.584   4.642  0.1287 -0.3500 -0.7526
   61MOL    C3327753   1.111   5.602   4.782  0.0226 -0.7794  0.6111
   61MOL    C3427754   0.977   5.640   4.821  0.8431 -0.4352  0.7258
   61MOL    C3527755   0.947   5.658   4.967 -0.2552  0.0330 -0.3945
   61MOL    O3627756   1.034   5.645   5.054 -0.3946  0.4216 -0.5059
   61MOL    O3727757   0.813   5.679   4.988 -0.6278  0.3087  0.0099
   61MOL    C3827758   0.879   5.660   4.724  0.7864  0.2183  0.5691
   61MOL    C3927759   0.911   5.648   4.587  0.0848  0.3802  0.1576
   61MOL    H4027760   1.293   5.754   4.267  1.1103 -0.4207  1.3171
   61MOL    H4127761   1.323   5.679   4.119  1.4462  1.1937 -0.4763
   61MOL    H4227762   1.329   5.447   4.269  0.5699  1.4081  2.3494
   61MOL    H4327763   1.181   5.525   4.185  0.4501 -2.2996 -0.3455
   61MOL    H4427764   1.236   5.554   4.616  1.1211  1.6826  0.6374
   61MOL    H4527765   1.184   5.587   4.860  1.2721 -1.3715 -0.6536
   61MOL    H4627766   0.779   5.695   4.747  1.0986  0.3191  1.8121
   61MOL    H4727767   0.827   5.663   4.520  1.7517  1.1870 -1.7906
   61MOL    O4827768   0.779   5.697   5.140  0.2545 -0.1851  0.1169
   61MOL    C4927769   0.734   5.572   5.196  0.3903  0.1371 -0.0468
   61MOL    C5027770   0.579   5.558   5.171 -0.6682 -0.4889 -0.2934
   61MOL    O5127771   0.521   5.464   5.257  0.2394 -0.1436 -0.5913
   61MOL    C5227772   0.489   5.503   5.371  0.2036  0.3084 -0.0932
   61MOL    O5327773   0.524   5.609   5.433 -0.2784  0.4280  0.0565
   61MOL    C5427774   0.395   5.405   5.430 -0.4046 -0.3348 -0.4325
   61MOL    C5527775   0.339   5.432   5.555  0.4895  0.1214 -0.1711
   61MOL    C5627776   0.240   5.354   5.617  0.2821 -0.3923  0.5172
   61MOL    C5727777   0.209   5.229   5.560 -0.7558 -0.5347  0.1049
   61MOL    C5827778   0.122   5.126   5.626 -0.1141  0.0259 -0.6671
   61MOL    O5927779   0.034   5.145   5.714 -0.2821  0.0534 -0.6307
   61MOL    O6027780   0.149   4.997   5.595 -0.0365 -0.2075 -0.0536
   61MOL    C6127781   0.262   5.198   5.435  0.5540 -0.2230  0.8327
   61MOL    C6227782   0.357   5.277   5.369  0.7134 -0.3313  1.0686
   61MOL    H6327783   0.795   5.488   5.164  0.1439  0.0388 -0.2539
   61MOL    H6427784   0.751   5.593   5.302 -0.6587 -0.9298  0.3436
   61MOL    H6527785   0.560   5.535   5.066  1.2744 -0.0310 -0.7792
   61MOL    H6627786   0.532   5.656   5.173  1.0565  0.3391  1.2421
   61MOL    H6727787   0.358   5.529   5.597  1.7753 -0.7474  1.3065
   61MOL    H6827788   0.202   5.396   5.710 -0.1806 -1.1249  0.6610
   61MOL    H6927789   0.234   5.105   5.387  0.4690  0.3484 -0.2442
   61MOL    H7027790   0.404   5.257   5.273  0.7857 -1.9375  1.4338
   61MOL    O7127791   0.036   4.894   5.620  0.5242 -0.1848  0.3134
   61MOL    C7227792   0.054   4.829   5.750 -0.5145  0.5749  0.2664
   61MOL    C7327793   8.257   4.906   5.859  0.0005 -0.8355  0.5791
   61MOL    O7427794   0.076   4.987   5.933 -0.4775 -0.0764 -0.4431
   61MOL    C7527795   0.154   4.933   6.029  0.0494 -0.8612  0.0709
   61MOL    O7627796   0.131   4.825   6.073  0.3686  0.0858  0.0359
   61MOL    C7727797   0.246   5.032   6.088  0.4093 -0.2314  0.2156
   61MOL    C7827798   0.242   5.172   6.048  0.5789  0.4761 -0.1568
   61MOL    C7927799   0.321   5.275   6.108 -0.0706  1.7226  0.3281
   61MOL    C8027800   0.413   5.230   6.206 -0.0802  0.2805  0.1208
   61MOL    C8127801   0.496   5.332   6.274 -0.0135  0.3284  0.4690
   61MOL    O8227802   0.484   5.456   6.252  0.1866  0.6874  0.1043
   61MOL    O8327803   0.581   5.278   6.367  1.1448 -0.4066  0.3437
   61MOL    C8427804   0.421   5.093   6.238 -0.0868 -0.3181  0.3378
   61MOL    C8527805   0.329   4.996   6.188 -0.4408 -0.0306  0.0461
   61MOL    H8627806   0.000   4.734   5.749 -1.2316  0.8693  4.4668
   61MOL    H8727807   0.158   4.797   5.762 -0.3647  0.1166 -1.9744
   61MOL    H8827808   8.201   4.835   5.921 -2.9268 -0.2100 -1.2599
   61MOL    H8927809   8.176   4.967   5.820  1.7184  1.0903 -0.0501
   61MOL    H9027810   0.172   5.203   5.972  0.0054 -0.9218 -0.2054
   61MOL    H9127811   0.320   5.383   6.097  0.6830  1.8597  1.4452
   61MOL    H9227812   0.498   5.052   6.301  0.4467  0.9465  0.5223
   61MOL    H9327813   0.323   4.898   6.232  1.4975  0.2511  0.9841
   61MOL    O9427814   0.661   5.384   6.439  0.5601  0.0503 -0.1059
   61MOL    C9527815   0.588   5.415   6.557  0.6741 -0.3657  0.0074
   61MOL    C9627816   0.637   5.552   6.601  0.3033 -1.0214  0.8881
   61MOL    O9727817   0.573   5.660   6.541 -0.2884 -0.2517 -0.1386
   61MOL    C9827818   0.617   5.707   6.424  0.2478 -0.0928 -0.5751
   61MOL    O9927819   0.724   5.678   6.371  0.0110 -0.3463 -0.6298
   61MOL   C10027820   0.529   5.803   6.366 -0.2488  0.1898 -0.0172
   61MOL   C10127821   0.457   5.888   6.449 -0.4760  0.3442 -0.5171
   61MOL   C10227822   0.375   5.986   6.402  0.4011  0.3412  0.2230
   61MOL   C10327823   0.361   5.999   6.261 -0.1912  0.0595 -0.4208
   61MOL   C10427824   0.274   6.103   6.215  0.0284  0.4357  0.3806
   61MOL   O10527825   0.236   6.195   6.285 -0.2878 -0.3575  0.2942
   61MOL   O10627826   0.257   6.096   6.087  0.2325  0.1974  0.0773
   61MOL   C10727827   0.431   5.911   6.173 -0.0396 -0.2410 -0.1683
   61MOL   C10827828   0.515   5.812   6.228  0.0899  0.4096  0.8484
   61MOL   H10927829   0.480   5.428   6.548  0.5891 -1.1532 -0.1175
   61MOL   H11027830   0.612   5.342   6.634  0.5212 -1.4399 -0.9531
   61MOL   H11127831   0.743   5.552   6.578  0.4608 -2.7030  1.5473
   61MOL   H11227832   0.621   5.566   6.708  1.0413 -1.7810  1.0955
   61MOL   H11327833   0.470   5.885   6.557  1.4102  0.8109 -0.7290
   61MOL   H11427834   0.309   6.037   6.470  1.2942  0.4699  0.9976
   61MOL   H11527835   0.425   5.915   6.066 -0.9593 -2.1247 -0.2069
   61MOL   H11627836   0.572   5.749   6.161  2.1886  0.7119  2.2860
   61MOL   O11727837   0.165   6.196   6.026  0.2813 -0.0154 -0.1518
   61MOL   C11827838   0.051   6.142   5.969  0.2678 -0.4779  0.0352
   61MOL   C11927839   8.208   6.125   6.063 -0.2764  0.3547 -1.3364
   61MOL   O12027840   8.122   6.021   6.025 -0.3447 -0.2666 -0.4800
   61MOL   C12127841   8.041   6.036   5.919  0.1970  0.2310 -1.4078
   61MOL   O12227842   8.042   6.138   5.847  0.0055 -0.3332 -0.5969
   61MOL   C12327843   7.938   5.927   5.898 -0.2169 -0.7593  0.6466
   61MOL   C12427844   7.840   5.946   5.803  0.5937 -0.0903  0.0515
   61MOL   C12527845   7.738   5.851   5.785  0.5652 -0.0192  0.0178
   61MOL   C12627846   7.742   5.735   5.865  0.7381  0.0475  0.2706
   61MOL   C12727847   7.636   5.626   5.849 -0.9033  0.2131  0.6261
   61MOL   O12827848   7.521   5.664   5.826 -0.2128 -0.0748 -0.1353
   61MOL   O12927849   7.676   5.504   5.876  0.1537  0.1640  0.8164
   61MOL   C13027850   7.845   5.709   5.956  0.0542 -0.0819 -0.3568
   61MOL   C13127851   7.947   5.805   5.974  0.0844  0.5306 -0.0893
   61MOL   H13227852   0.012   6.194   5.882  2.4712 -1.0826 -1.3451
   61MOL   H13327853   0.076   6.051   5.914  1.0240  0.8101 -1.7974
   61MOL   H13427854   8.157   6.219   6.086  1.9690  1.2952  0.0907
   61MOL   H13527855   8.258   6.093   6.154 -2.9503  0.4801  0.2223
   61MOL   H13627856   7.844   6.034   5.740 -0.1837  0.9602  1.4408
   61MOL   H13727857   7.666   5.866   5.706  0.8103  1.7876  0.1138
   61MOL   H13827858   7.858   5.621   6.016 -0.4304  2.5958  3.8674
   61MOL   H13927859   8.032   5.796   6.041 -0.7642 -1.8195  0.7161
   61MOL   O14027860   7.579   5.400   5.852  0.3698 -0.0044 -0.4447
   61MOL   C14127861   7.532   5.358   5.988  0.3480 -0.0345  0.7153
   61MOL   C14227862   7.415   5.262   5.982  0.1812  0.0259 -0.1204
   61MOL   O14327863   7.450   5.125   5.952  0.3787  0.0961  0.0494
   61MOL   C14427864   7.514   5.048   6.041 -0.4693 -0.3955  0.6654
   61MOL   O14527865   7.564   5.090   6.147 -0.1970 -0.4750 -0.0267
   61MOL   C14627866   7.522   4.912   5.999 -0.7288  0.0673 -0.5822
   61MOL   C14727867   7.597   4.815   6.070 -0.2353 -0.2877 -0.2610
   61MOL   C14827868   7.602   4.682   6.028 -0.0026  0.2615  0.3972
   61MOL   C14927869   7.549   4.645   5.903  0.1953 -0.0393 -0.3974
   61MOL   C15027870   7.565   4.509   5.845  0.6723 -0.1945 -0.4991
   61MOL   O15127871   7.534   4.470   5.741  0.3422 -0.1037  0.4562
   61MOL   O15227872   7.625   4.431   5.934 -0.5148  0.5341 -0.9669
   61MOL   C15327873   7.471   4.736   5.829 -0.1473 -0.1812 -0.2933
   61MOL   C15427874   7.458   4.866   5.881 -0.0047  0.7274  0.5335
   61MOL   H15527875   7.617   5.321   6.046 -0.2143 -1.3918  0.6851
   61MOL   H15627876   7.510   5.449   6.044 -1.0004  0.0526  0.0585
   61MOL   H15727877   7.340   5.294   5.909  0.4103 -0.2986 -0.4960
   61MOL   H15827878   7.360   5.266   6.076 -2.0134  1.0208 -1.4114
   61MOL   H15927879   7.657   4.853   6.151 -0.0196  1.8074 -1.3640
   61MOL   H16027880   7.663   4.613   6.085 -1.2387 -0.3019  1.0626
   61MOL   H16127881   7.446   4.719   5.725  2.1903  0.7602 -1.0229
   61MOL   H16227882   7.406   4.933   5.813  1.7786  0.8158 -0.7805
   61MOL   O16327883   7.608   4.289   5.895 -0.1708 -0.1724 -0.3388
   61MOL   C16427884   7.543   4.229   5.994  0.3807 -0.0139 -0.7132
   61MOL   C16527885   7.410   4.184   5.937 -0.2837 -0.7163  0.5717
   61MOL   O16627886   7.330   4.114   6.031 -0.1155  0.8522 -0.1882
   61MOL   C16727887   7.191   4.115   6.011  0.1956 -0.4317 -0.2209
   61MOL   O16827888   7.129   4.171   5.917  0.2101  0.4932  0.0727
   61MOL   C16927889   7.121   4.042   6.118  0.3573  0.3597  0.7244
   61MOL   C17027890   6.981   4.042   6.124  0.4123 -0.2714  0.0376
   61MOL   C17127891   6.905   3.977   6.227  0.3503  0.3032  0.4128
   61MOL   C17227892   6.977   3.899   6.319  0.6981 -0.0119 -0.0428
   61MOL   C17327893   6.899   3.811   6.408  0.1710 -0.4898  0.2612
   61MOL   O17427894   6.792   3.757   6.375 -0.2971  0.1250 -0.1025
   61MOL   O17527895   6.953   3.788   6.529 -0.2006  0.0047 -0.8087
   61MOL   C17627896   7.117   3.901   6.317 -0.3844  0.3294  0.0457
   61MOL   C17727897   7.190   3.966   6.214  0.0887  0.0597  0.0646
   61MOL   H17827898   7.597   4.141   6.029  0.2180 -0.5978 -1.8902
   61MOL   H17927899   7.536   4.285   6.088 -0.5347 -1.0389 -0.1623
   61MOL   H18027900   7.421   4.131   5.842  0.7554  0.7496 -0.1537
   61MOL   H18127901   7.356   4.276   5.912 -1.0605 -1.0130  1.1298
   61MOL   H18227902   6.923   4.092   6.047  1.6122 -1.3764 -1.6390
   61MOL   H18327903   6.797   3.971   6.235  0.4494  0.1669  1.7278
   61MOL   H18427904   7.182   3.851   6.388  0.8881 -0.2150 -1.4581
   61MOL   H18527905   7.298   3.967   6.210  0.2558  2.7458  2.7445
   61MOL   O18627906   6.876   3.687   6.616  0.3916 -0.2414  0.2340
   61MOL   C18727907   6.763   3.757   6.672  0.2130 -0.0702  0.9461
   61MOL   C18827908   6.661   3.647   6.683  0.2349 -0.2461  0.9546
   61MOL   O18927909   6.693   3.556   6.785  0.1675 -0.0910  0.5652
   61MOL   C19027910   6.685   3.592   6.912  0.0203  0.1244  0.1018
   61MOL   O19127911   6.653   3.705   6.953  0.1917 -0.0484  0.1208
   61MOL   C19227912   6.697   3.468   6.992  0.2023 -0.0692 -0.4119
   61MOL   C19327913   6.792   3.373   6.949  0.4579  0.4355 -0.4691
   61MOL   C19427914   6.797   3.247   7.020 -0.3163 -0.0152 -1.0572
   61MOL   C19527915   6.730   3.225   7.140 -0.2693 -0.6019 -0.3774
   61MOL   C19627916   6.755   3.097   7.217 -0.2106  0.7347 -0.2438
   61MOL   O19727917   6.840   3.014   7.183  0.1741 -0.0917  0.3792
   61MOL   O19827918   6.688   3.082   7.327 -0.2965  0.5193 -0.1590
   61MOL   C19927919   6.647   3.328   7.193 -0.1368  0.5947  0.4710
   61MOL   C20027920   6.623   3.444   7.110 -0.1555 -0.8264 -0.2694
   61MOL   H20127921   6.804   3.808   6.759  2.3247  0.7422 -0.4625
   61MOL   H20227922   6.717   3.829   6.604 -0.3962 -1.1925  0.1527
   61MOL   H20327923   6.657   3.601   6.585  0.9092  1.8299 -0.0830
   61MOL   H20427924   6.562   3.692   6.694  0.8979  1.5395 -0.2880
   61MOL   H20527925   6.856   3.391   6.864  1.7684  1.5673  0.7197
   61MOL   H20627926   6.862   3.175   6.973  1.5750  2.2765 -2.0963
   61MOL   H20727927   6.596   3.318   7.288  0.0275 -1.2945  0.3747
   61MOL   H20827928   6.546   3.510   7.147  0.6573 -1.9263  3.5969
   61MOL   O20927929   6.723   2.951   7.404  0.3283 -0.1072 -0.3291
   61MOL   C21027930   6.774   2.984   7.528  0.3133 -0.0290 -0.6152
   61MOL   C21127931   6.837   2.863   7.604 -0.3923  0.3140 -0.6324
   61MOL   O21227932   6.746   2.802   7.694 -0.0619 -0.2096  0.1172
   61MOL   C21327933   6.662   2.709   7.647  0.1983 -0.2928  0.0100
   61MOL   O21427934   6.639   2.674   7.532 -0.1680 -0.0111  0.6026
   61MOL   C21527935   6.590   2.648   7.765  0.0971 -0.6253  0.4382
   61MOL   C21627936   6.578   2.509   7.771 -0.3516  0.5072  0.8685
   61MOL   C21727937   6.505   2.456   7.877 -0.6614  0.0751 -0.7045
   61MOL   C21827938   6.457   2.533   7.983  0.5289 -0.2396 -0.0942
   61MOL   C21927939   6.399   2.466   8.103  0.4620  0.0584 -0.2909
   61MOL   O22027940   6.387   2.343   8.110  0.3924 -0.4591 -0.6713
   61MOL   O22127941   6.347   2.550   8.184 -0.1434  0.5320  0.1633
   61MOL   C22227942   6.459   2.676   7.970  0.1238 -0.8064 -0.3621
   61MOL   C22327943   6.536   2.731   7.867  0.4606 -0.0558 -0.0730
   61MOL   H22427944   6.854   3.054   7.507  1.4670 -0.9020  0.8048
   61MOL   H22527945   6.706   3.042   7.592  1.2761 -0.2460  0.6255
   61MOL   H22627946   6.927   2.887   7.660 -0.9860 -2.3996  1.5700
   61MOL   H22727947   6.871   2.781   7.542 -0.9300  0.3994 -1.0460
   61MOL   H22827948   6.628   2.460   7.688  2.5325  3.2628  0.8931
   61MOL   H22927949   6.499   2.349   7.888  2.7173  0.0230  1.1980
   61MOL   H23027950   6.421   2.747   8.042 -0.1360  0.9926 -2.2064
   61MOL   H23127951   6.546   2.838   7.872  0.7627 -0.0564 -0.6219
   61MOL   O23227952   6.279   2.496   0.031 -0.0302 -0.5597 -0.2744
   61MOL   C23327953   6.140   2.504   0.006 -0.8319  0.1292 -0.1245
   61MOL   C23427954   6.079   2.640   0.003 -0.3902 -0.0377 -0.2606
   61MOL   O23527955   6.100   2.702   8.152 -0.3010 -0.0909  0.8343
   61MOL   C23627956   6.134   2.832   8.137 -0.6013  0.2025 -0.7213
   61MOL   O23727957   6.195   2.890   8.230 -0.0313 -0.0017 -0.3701
   61MOL   C23827958   6.103   2.888   8.000 -0.0446 -0.1412  0.3655
   61MOL   C23927959   6.166   3.001   7.952  0.0608  0.1598  0.3874
   61MOL   C24027960   6.123   3.058   7.831 -0.0970  0.6302 -0.1204
   61MOL   C24127961   6.021   3.003   7.756 -0.4713  0.4260  0.0177
   61MOL   C24227962   5.968   3.073   7.630  0.3600 -0.1951 -0.3460
   61MOL   O24327963   5.867   3.025   7.569 -0.4042  0.0954 -0.2526
   61MOL   O24427964   6.013   3.191   7.622  0.9023 -0.5030  0.3916
   61MOL   C24527965   5.951   2.893   7.809  0.4140  0.1744 -0.1746
   61MOL   C24627966   5.995   2.836   7.929  0.7605  0.8682  0.0531
   61MOL   H24727967   6.123   2.462   8.182 -2.3046  1.1565 -0.3205
   61MOL   H24827968   6.094   2.437   0.079 -2.3603 -1.5840 -2.5616
   61MOL   H24927969   6.119   2.692   0.090  0.8557  0.5210 -1.1434
   61MOL   H25027970   5.971   2.637   0.016 -0.2481  0.0717  1.0681
   61MOL   H25127971   6.250   3.038   8.008  0.2342  0.5360 -0.1172
   61MOL   H25227972   6.165   3.153   7.800 -0.7297  1.1121  0.4638
   61MOL   H25327973   5.862   2.849   7.767  0.6090 -1.2452  0.8622
   61MOL   H25427974   5.939   2.754   7.971 -3.0830  2.4330 -1.7586
   61MOL   O25527975   5.933   3.273   7.525 -0.2388  0.6882 -0.4073
   61MOL   C25627976   6.014   3.317   7.426  0.0075 -0.1542 -0.7272
   61MOL   C25727977   6.055   3.210   7.323  0.2190 -0.9121  0.5452
   61MOL   O25827978   5.945   3.147   7.252  0.3619 -0.7176  0.4587
   61MOL   C25927979   5.942   3.153   7.123 -0.0810  0.5103  0.5655
   61MOL   O26027980   6.030   3.204   7.054 -0.4340  0.1652  0.3359
   61MOL   C26127981   5.822   3.087   7.071  0.2092 -0.4580 -0.0521
   61MOL   C26227982   5.748   3.001   7.154  0.2545  1.0041 -0.0337
   61MOL   C26327983   5.631   2.938   7.103  0.5206  0.3350  0.6734
   61MOL   C26427984   5.581   2.969   6.972 -0.5563 -0.1487 -0.3095
   61MOL   C26527985   5.461   2.898   6.922  0.8256 -0.3279 -0.0008
   61MOL   O26627986   5.403   2.942   6.820 -0.0297  1.0192 -0.0022
   61MOL   O26727987   5.427   2.789   6.996  0.1251  0.6095  0.2389
   61MOL   C26827988   5.650   3.071   6.895 -0.5336 -0.0351  0.2745
   61MOL   C26927989   5.772   3.125   6.943 -0.3219 -0.2192 -0.0670
   61MOL   H27027990   5.950   3.384   7.369 -0.1012  1.2378  0.9786
   61MOL   H27127991   6.105   3.367   7.460  0.5396  0.1480 -2.5584
   61MOL   H27227992   6.104   3.135   7.385  0.9761  0.6067  1.8077
   61MOL   H27327993   6.138   3.247   7.262  0.2137 -0.1137  1.0204
   61MOL   H27427994   5.790   2.965   7.246  0.6438  1.0384 -0.2004
   61MOL   H27527995   5.599   2.852   7.160  2.2648 -1.0148 -0.3395
   61MOL   H27627996   5.612   3.103   6.800  1.1469  4.0667  0.8787
   61MOL   H27727997   5.809   3.212   6.890 -2.0272  1.6819  1.7747
   61MOL   O27827998   5.317   2.715   6.939  0.3572 -0.3457  0.2945
   61MOL   C27927999   5.196   2.746   7.006  0.1560  0.3996 -0.5348
   61MOL   C28028000   5.157   2.669   7.132 -0.1173 -0.4684 -0.3318
   61MOL   O28128001   5.112   2.543   7.101  0.1153 -0.0978 -0.4897
   61MOL   C28228002   5.072   2.469   7.208  0.4276  0.3004  0.1573
   61MOL   O28328003   5.081   2.499   7.327 -0.3732  0.2989 -0.3397
   61MOL   C28428004   5.011   2.344   7.154  0.3405 -0.1462 -0.7127
   61MOL   C28528005   4.998   2.303   7.012 -0.1296 -0.8219 -0.5058
   61MOL   C28628006   4.947   2.177   6.979 -0.4868 -0.2277  0.5176
   61MOL   C28728007   4.897   2.087   7.083  0.4477  0.6310 -0.4876
   61MOL   C28828008   4.840   1.959   7.053 -0.2067 -0.2526 -0.3747
   61MOL   O28928009   4.785   1.890   7.140  0.3388 -0.8264 -0.2885
   61MOL   O29028010   4.853   1.917   6.925  0.1255  0.0451  0.1024
   61MOL   C29128011   4.909   2.120   7.216  0.7438  0.1890 -0.4163
   61MOL   C29228012   4.970   2.244   7.247  0.6499  0.4208 -0.1768
   61MOL   H29328013   5.179   2.853   7.008  0.3696  0.4402 -0.9307
   61MOL   H29428014   5.131   2.707   6.928  0.6436  0.0969 -0.7953
   61MOL   H29528015   5.074   2.728   7.171  0.5041 -1.3232  2.4434
   61MOL   H29628016   5.234   2.669   7.210  2.1091 -0.4933 -2.4829
   61MOL   H29728017   5.022   2.373   6.933 -1.2554  1.5059  1.1632
   61MOL   H29828018   4.950   2.132   6.882 -2.9802  0.6108  0.0303
   61MOL   H29928019   4.869   2.054   7.293 -0.7146  1.5240 -0.0042
   61MOL   H30028020   4.990   2.264   7.351 -0.2781  1.2795 -0.1507
   61MOL   O30128021   4.783   1.792   6.905 -0.3319  0.1375  0.9638
   61MOL   C30228022   4.664   1.811   6.830  0.0028 -0.9159 -0.1925
   61MOL   C30328023   4.552   1.717   6.880 -0.5659 -0.2169  0.8147
   61MOL   O30428024   4.586   1.577   6.881  0.4254  0.3519  0.3601
   61MOL   C30528025   4.620   1.521   6.999  0.2031 -0.1302  0.2669
   61MOL   O30628026   4.616   1.587   7.104 -0.4746  0.3125  0.0127
   61MOL   C30728027   4.674   1.380   6.980 -0.2337  0.3955 -0.1490
   61MOL   C30828028   4.740   1.313   7.081 -0.5784 -1.0038  0.2693
   61MOL   C30928029   4.779   1.179   7.077 -0.2624 -0.0784  0.1028
   61MOL   C31028030   4.756   1.120   6.950 -0.1062 -0.0226  0.4997
   61MOL   C31128031   4.805   0.976   6.932  0.2442 -0.6589 -0.0732
   61MOL   O31228032   4.886   0.929   7.010  0.5032  0.1269 -0.4840
   61MOL   O31328033   4.748   0.903   6.833  0.7168  0.0017  0.3825
   61MOL   C31428034   4.700   1.184   6.841 -0.4623  0.8818 -1.0978
   61MOL   C31528035   4.655   1.315   6.859 -0.7188  0.0430 -0.1822
   61MOL   H31628036   4.638   1.917   6.829 -0.1054 -0.8956  2.8495
   61MOL   H31728037   4.690   1.776   6.729  1.3766 -2.9738  0.8371
   61MOL   H31828038   4.474   1.721   6.804  0.6767  1.8016 -0.3885
   61MOL   H31928039   4.501   1.752   6.969 -1.8706  0.7250 -0.2830
   61MOL   H32028040   4.753   1.373   7.170  0.2895  1.1146 -1.2546
   61MOL   H32128041   4.832   1.138   7.162 -0.2660 -0.4966 -0.0992
   61MOL   H32228042   4.693   1.129   6.749  1.7352 -0.9260 -0.2410
   61MOL   H32328043   4.615   1.361   6.770 -0.0719  0.1535 -0.4177
   61MOL   O32428044   4.800   0.767   6.815  0.1665 -0.1977  0.1243
   61MOL   C32528045   4.888   0.768   6.700  0.2145 -0.0212  0.5819
   61MOL   C32628046   4.979   0.639   6.699 -0.2319  0.4989  0.4588
   61MOL   O32728047   4.924   0.527   6.629 -0.4040  0.3031 -0.3541
   61MOL   C32828048   4.865   0.427   6.695  0.0788 -0.2379  0.5265
   61MOL   O32928049   4.856   0.425   6.817 -0.7190 -0.3161  0.8697
   61MOL   C33028050   4.818   0.320   6.604 -0.1979  0.2906 -0.2109
   61MOL   C33128051   4.810   0.341   6.462 -0.7090 -0.0903 -0.8903
   61MOL   C33228052   4.763   0.233   6.381  0.3221 -0.9345 -0.1781
   61MOL   C33328053   4.733   0.112   6.435  1.0664 -0.3226  0.1372
   61MOL   C33428054   4.708   8.265   6.349 -0.1379 -0.0164  0.4383
   61MOL   O33528055   4.659   8.274   6.233 -0.0909  1.1733 -0.0709
   61MOL   O33628056   4.734   8.147   6.405  0.4127  0.1723 -0.2497
   61MOL   C33728057   4.743   0.091   6.573  0.7554  0.2824  0.0652
   61MOL   C33828058   4.784   0.192   6.661  0.1766 -0.1293 -0.3732
   61MOL   H33928059   4.827   0.788   6.612  0.2726 -0.5104  0.4261
   61MOL   H34028060   4.956   0.853   6.697  0.0414  0.1132  0.4553
   61MOL   H34128061   5.011   0.607   6.798  1.3015 -1.5860 -0.6827
   61MOL   H34228062   5.065   0.657   6.636  0.2554  1.8346  1.4798
   61MOL   H34328063   4.823   0.440   6.420 -0.8882  0.6038  0.6803
   61MOL   H34428064   4.759   0.256   6.276  1.5648  0.7517  0.1266
   61MOL   H34528065   4.715   8.274   6.621  2.0939 -0.3136 -0.2947
   61MOL   H34628066   4.786   0.182   6.768 -2.4643 -0.6860 -0.3375
   61MOL   O34728067   4.677   8.036   6.318 -0.8195 -0.1497 -1.0293
   61MOL   C34828068   4.788   7.964   6.255 -0.0264  0.2369 -0.4878
   61MOL   C34928069   4.863   7.885   6.369 -0.1647 -0.3136 -0.1489
   61MOL   O35028070   4.893   7.749   6.327  0.1990  0.2652  0.4176
   61MOL   C35128071   4.988   7.670   6.380 -0.4613  0.4851 -0.7575
   61MOL   O35228072   5.072   7.699   6.458 -0.4601 -0.2486  0.1982
   61MOL   C35328073   4.976   7.534   6.312 -0.5189  0.3004 -0.1139
   61MOL   C35428074   4.869   7.508   6.224  0.2230 -0.3822  0.7139
   61MOL   C35528075   4.850   7.379   6.172  0.0914 -0.7258  0.2400
   61MOL   C35628076   4.932   7.272   6.217 -0.3543 -0.6285  0.3040
   61MOL   C35728077   4.899   7.135   6.172  0.3434 -1.2763 -0.2821
   61MOL   O35828078   4.821   7.107   6.083 -0.0991  0.1221 -0.3231
   61MOL   O35928079   4.955   7.042   6.255 -0.2593 -0.3781 -0.6555
   61MOL   C36028080   5.031   7.298   6.320 -0.0558  0.3101 -0.0554
   61MOL   C36128081   5.058   7.430   6.358  0.1213 -0.3021  0.0265
   61MOL   H36228082   4.726   7.895   6.197 -0.3955  0.4194 -0.3190
   61MOL   H36328083   4.857   8.012   6.186 -1.2229 -0.1668 -1.9851
   61MOL   H36428084   4.801   7.860   6.454  0.0765 -1.2712 -0.2473
   61MOL   H36528085   4.951   7.945   6.394 -0.8607  0.1803  1.1402
   61MOL   H36628086   4.794   7.580   6.193 -0.3346 -0.8749  0.8921
   61MOL   H36728087   4.771   7.366   6.099  0.5319 -3.5583  0.2152
   61MOL   H36828088   5.079   7.213   6.368 -1.4244 -1.2808 -1.4581
   61MOL   H36928089   5.137   7.454   6.427 -0.6643  0.6007  0.6256
   61MOL   O37028090   4.887   6.911   6.233  0.3321 -0.3963  0.3201
   61MOL   C37128091   4.782   6.895   6.331 -0.8910  0.2735  0.1475
   61MOL   C37228092   4.836   6.900   6.477  0.2256 -0.1843  0.7763
   61MOL   O37328093   4.838   7.037   6.519 -0.1395 -0.2769  0.2111
   61MOL   C37428094   4.899   7.066   6.629  0.1340  0.0733  0.9040
   61MOL   O37528095   4.947   6.979   6.701 -0.6257 -0.3509  0.1861
   61MOL   C37628096   4.894   7.208   6.669  0.2113 -0.1574 -0.4415
   61MOL   C37728097   4.831   7.308   6.592  0.2415 -0.5165 -0.6595
   61MOL   C37828098   4.851   7.443   6.619 -0.4439 -0.0833 -0.3150
   61MOL   C37928099   4.916   7.487   6.734 -0.1036  0.1974  0.0014
   61MOL   C38028100   4.909   7.633   6.763 -0.2868  0.0785  0.5607
   61MOL   O38128101   4.843   7.710   6.701  0.3529  0.0058  0.1546
   61MOL   O38228102   4.983   7.660   6.873  0.0006  0.2485  0.2559
   61MOL   C38328103   4.966   7.387   6.822 -0.3599  0.1334 -0.2322
   61MOL   C38428104   4.958   7.251   6.790 -0.8393 -0.1956 -0.3071
   61MOL   H38528105   4.705   6.972   6.319  0.6515  1.8234 -0.0043
   61MOL   H38628106   4.730   6.800   6.322  0.0778 -0.3194  0.7276
   61MOL   H38728107   4.923   6.837   6.489 -0.2474 -0.5356  2.6049
   61MOL   H38828108   4.762   6.851   6.540 -0.3242 -0.2745  0.0613
   61MOL   H38928109   4.782   7.281   6.499  1.3557 -3.9809 -0.2936
   61MOL   H39028110   4.807   7.515   6.551 -1.4219  0.1380  0.5307
   61MOL   H39128111   5.018   7.412   6.913 -2.0985  0.6075  0.6632
   61MOL   H39228112   5.003   7.175   6.852  1.3188  0.7861 -0.6200
   61MOL   O39328113   5.002   7.804   6.910 -0.4369 -0.1902 -0.5635
   61MOL   C39428114   5.120   7.853   6.848  0.0670 -0.4710  0.8441
   61MOL   C39528115   5.083   7.919   6.714  0.3119  0.9791 -0.9397
   61MOL   O39628116   5.125   8.058   6.718 -0.6335 -0.4398 -0.0109
   61MOL   C39728117   5.088   8.144   6.619 -0.4233  0.4313 -1.2738
   61MOL   O39828118   5.024   8.112   6.516 -0.5627  0.1044 -0.4238
   61MOL   C39928119   5.144   0.007   6.643  0.0147  0.2660 -0.4303
   61MOL   C40028120   5.225   0.032   6.757 -0.5323  0.2383  0.5585
   61MOL   C40128121   5.294   0.154   6.783 -0.0005  0.0442 -0.4583
   61MOL   C40228122   5.262   0.265   6.697  0.7151 -0.3345  0.2253
   61MOL   C40328123   5.312   0.407   6.723  1.3671 -0.1484 -0.0480
   61MOL   O40428124   5.284   0.505   6.657 -0.1994 -0.1018  0.0967
   61MOL   O40528125   5.406   0.414   6.820  0.0770 -0.8783  0.1772
   61MOL   C40628126   5.175   0.239   6.586 -0.5243 -0.2736  0.2903
   61MOL   C40728127   5.119   0.118   6.552  0.5483  0.0266  0.5353
   61MOL   H40828128   5.173   7.922   6.914 -2.8259  1.7342  0.9718
   61MOL   H40928129   5.188   7.771   6.826  2.2942  1.9752 -1.9667
   61MOL   H41028130   4.976   7.913   6.698  0.6114  0.0636 -2.6485
   61MOL   H41128131   5.131   7.859   6.637 -0.5818 -1.2023  0.1313
   61MOL   H41228132   5.257   8.229   6.824 -0.2659 -0.9018 -0.8898
   61MOL   H41328133   5.345   0.169   6.877  1.4158  0.4527 -1.2755
   61MOL   H41428134   5.159   0.323   6.520 -0.4007  0.5814  1.3392
   61MOL   H41528135   5.049   0.106   6.471  3.0694 -0.0581 -1.7389
   61MOL   O41628136   5.455   0.551   6.863  0.4871  0.4450  0.2706
   61MOL   C41728137   5.391   0.587   6.982 -0.6055 -0.5650  0.4529
   61MOL   C41828138   5.425   0.487   7.093 -0.4082  0.4468  0.5991
   61MOL   O41928139   5.402   0.549   7.221  0.1737  0.1175 -0.3800
   61MOL   C42028140   5.513   0.581   7.303 -0.0227  0.2166 -0.2815
   61MOL   O42128141   5.633   0.568   7.263 -0.1806 -0.5435  0.2136
   61MOL   C42228142   5.476   0.652   7.434 -0.5670 -0.2586 -0.0611
   61MOL   C42328143   5.338   0.669   7.463 -0.7122 -0.0762 -0.2311
   61MOL   C42428144   5.306   0.726   7.585 -0.1754  0.0475 -0.1282
   61MOL   C42528145   5.406   0.756   7.683  0.3754 -0.2015 -0.0397
   61MOL   C42628146   5.373   0.812   7.819 -0.7564  0.2659  0.2082
   61MOL   O42728147   5.454   0.824   7.910 -0.1685  0.0423  0.0244
   61MOL   O42828148   5.243   0.841   7.828  0.5666  0.6292 -0.0247
   61MOL   C42928149   5.544   0.736   7.652  0.1381  0.4889  0.0712
   61MOL   C43028150   5.578   0.683   7.529 -0.4765  0.6555  0.3143
   61MOL   H43128151   5.445   0.675   7.017 -0.4912 -0.5351  0.2022
   61MOL   H43228152   5.285   0.609   6.970  0.1217  2.2464 -1.0624
   61MOL   H43328153   5.528   0.452   7.086 -0.4250  0.0468  2.1025
   61MOL   H43428154   5.365   0.397   7.101 -0.9077  0.9598  3.1940
   61MOL   H43528155   5.268   0.621   7.396  0.7706 -1.9905 -0.4791
   61MOL   H43628156   5.202   0.740   7.609  0.0122  1.4483 -0.0628
   61MOL   H43728157   5.629   0.760   7.713  1.7822  0.2695 -2.0470
   61MOL   H43828158   5.683   0.667   7.513 -0.2153 -2.6565  4.4192
   61MOL   O43928159   5.223   0.942   7.929  0.2142  0.2239 -0.1616
   61MOL   C44028160   5.173   1.062   7.865 -0.0866 -0.4340  0.5131
   61MOL   C44128161   5.265   1.132   7.775 -0.1440  0.3703 -0.6021
   61MOL   O44228162   5.253   1.095   7.641  0.0552 -0.5141  0.4610
   61MOL   C44328163   5.148   1.140   7.562 -1.0129 -0.6770 -0.4843
   61MOL   O44428164   5.063   1.218   7.597 -0.1310 -0.3439 -0.1873
   61MOL   C44528165   5.162   1.097   7.418  0.3022 -0.2575  0.7196
   61MOL   C44628166   5.086   1.164   7.320 -0.6797  0.3710  0.0890
   61MOL   C44728167   5.103   1.134   7.186 -0.3946  0.3702 -0.0417
   61MOL   C44828168   5.191   1.035   7.145  0.0242 -0.4228  0.2373
   61MOL   C44928169   5.204   1.002   6.995 -0.3304 -0.5469  0.0877
   61MOL   O45028170   5.250   0.894   6.961  0.1681 -0.5048  0.5601
   61MOL   O45128171   5.177   1.114   6.922 -0.3311 -0.0678  0.0718
   61MOL   C45228172   5.264   0.962   7.239 -0.2263 -0.0281  0.5198
   61MOL   C45328173   5.249   0.996   7.376 -0.0677 -0.0171 -0.3905
   61MOL   H45428174   5.078   1.046   7.813 -0.5391  3.0898  0.1698
   61MOL   H45528175   5.145   1.138   7.937  0.4384  1.2761 -1.0352
   61MOL   H45628176   5.362   1.099   7.812  0.2707  1.7608 -0.4216
   61MOL   H45728177   5.243   1.238   7.786  3.2203  0.9847  0.5767
   61MOL   H45828178   5.012   1.239   7.346 -0.8508  0.4262 -0.5270
   61MOL   H45928179   5.050   1.200   7.120 -2.5765 -0.8901  0.4254
   61MOL   H46028180   5.345   0.892   7.225  0.4032  0.6794  0.5635
   61MOL   H46128181   5.297   0.941   7.455  0.6045  0.7757 -0.2495
   61MOL   H46228182   5.195   1.107   6.829 -1.2830 -2.2364  0.0270
   62MOL     O128183   0.722   8.230   5.570 -0.3681 -0.0563  0.0402
   62MOL     C228184   0.594   8.196   5.578  0.0954  0.5287 -0.2101
   62MOL     C328185   0.572   8.050   5.624 -0.4803  0.0979 -0.5614
   62MOL     O428186   0.585   7.967   5.515  0.0291 -0.0524 -0.3570
   62MOL     C528187   0.683   7.870   5.514  0.8440 -0.0609  1.0097
   62MOL     O628188   0.774   7.868   5.601  0.3928  0.2021  0.5917
   62MOL     C728189   0.667   7.775   5.399  0.2561  0.0581 -0.4409
   62MOL     C828190   0.573   7.786   5.302  0.0176  0.4769 -0.0620
   62MOL     C928191   0.551   7.690   5.202  0.6963  0.7136 -0.7030
   62MOL    C1028192   0.634   7.579   5.202  0.1864 -0.1691  0.5009
   62MOL    C1128193   0.611   7.483   5.090  0.5963  1.0001 -0.2298
   62MOL    O1228194   0.515   7.491   5.016  0.5205  0.4268  0.1468
   62MOL    O1328195   0.712   7.389   5.077  0.4556  0.1070  0.1887
   62MOL    C1428196   0.744   7.570   5.290  0.3134 -0.3740  0.4432
   62MOL    C1528197   0.755   7.668   5.389 -0.1269  0.4342 -0.3461
   62MOL    H1628198   0.547   8.263   5.650 -0.0999 -0.0711  0.2292
   62MOL    H1728199   0.537   8.218   5.488  2.4540 -0.8535 -2.0944
   62MOL    H1828200   0.468   8.024   5.646 -0.3189 -2.0081 -2.0876
   62MOL    H1928201   0.633   8.016   5.708 -0.3434 -0.4518 -0.8772
   62MOL    H2028202   0.509   7.873   5.305  1.7423  1.7606 -0.1643
   62MOL    H2128203   0.464   7.699   5.137 -0.0172 -0.0630  0.1286
   62MOL    H2228204   0.811   7.485   5.293  0.3962 -0.3486 -0.4034
   62MOL    H2328205   0.832   7.660   5.464 -0.7775  0.4148  0.3300
   62MOL    H2428206   0.759   8.195   5.490 -0.4922  0.3256 -0.1832
   62MOL    O2528207   0.685   7.295   4.966  0.6141 -0.4335  0.0570
   62MOL    C2628208   0.647   7.170   5.024 -0.4898 -0.5628  0.3097
   62MOL    C2728209   0.769   7.079   5.057 -0.3098 -0.3712  0.0735
   62MOL    O2828210   0.834   7.125   5.172  0.7042 -0.1364  0.9517
   62MOL    C2928211   0.811   7.091   5.298  0.0202  0.2598  0.1739
   62MOL    O3028212   0.714   7.020   5.330  0.0684 -0.8652  0.0189
   62MOL    C3128213   0.907   7.141   5.392  0.7517  0.8303 -0.1375
   62MOL    C3228214   0.990   7.251   5.351  0.6463 -0.2931 -0.2698
   62MOL    C3328215   1.072   7.306   5.454 -0.9341  0.0129  0.0341
   62MOL    C3428216   1.066   7.268   5.591 -0.1039  0.4466  0.3719
   62MOL    C3528217   1.136   7.336   5.707 -0.5213  0.8360  0.1527
   62MOL    O3628218   1.155   7.290   5.822  0.0618  0.5207 -0.4426
   62MOL    O3728219   1.187   7.453   5.669 -0.1955  0.1268 -0.4228
   62MOL    C3828220   0.984   7.158   5.623 -0.1634  0.3387 -0.0490
   62MOL    C3928221   0.903   7.097   5.522 -0.5383  0.1451  0.2745
   62MOL    H4028222   0.587   7.182   5.114 -1.3950 -1.6579 -0.1320
   62MOL    H4128223   0.577   7.129   4.951  1.3215 -0.3287 -1.6056
   62MOL    H4228224   0.839   7.090   4.974  0.9840  2.1228  1.4287
   62MOL    H4328225   0.748   6.973   5.067  0.5348 -0.5944 -0.4501
   62MOL    H4428226   1.002   7.280   5.247 -1.5585 -0.0532 -0.4789
   62MOL    H4528227   1.141   7.379   5.414 -0.1845 -1.5639 -1.6100
   62MOL    H4628228   0.975   7.130   5.727 -1.4939  0.4898 -0.1128
   62MOL    H4728229   0.841   7.011   5.543  1.4104 -1.1831  0.7438
   62MOL    O4828230   1.280   7.518   5.765  0.6676 -0.1568  0.2913
   62MOL    C4928231   1.214   7.611   5.844  0.1342 -0.3864  0.7408
   62MOL    C5028232   1.315   7.697   5.920 -0.0505 -0.6433  0.3861
   62MOL    O5128233   1.399   7.780   5.840 -0.5301 -0.0225  0.7773
   62MOL    C5228234   1.526   7.753   5.803 -0.6948 -0.2209 -0.5523
   62MOL    O5328235   1.594   7.659   5.844 -0.2298 -0.0387 -0.2316
   62MOL    C5428236   1.585   7.860   5.716 -0.3181  0.1965  0.1370
   62MOL    C5528237   1.711   7.830   5.655  0.0057 -0.1119  0.7683
   62MOL    C5628238   1.768   7.910   5.557  0.4423 -0.5247 -0.3840
   62MOL    C5728239   1.693   8.024   5.511 -0.5340  0.2453 -0.2540
   62MOL    C5828240   1.729   8.098   5.391 -0.3221 -0.2017 -0.1055
   62MOL    O5928241   1.698   8.212   5.358  0.3842  0.3767 -0.5757
   62MOL    O6028242   1.814   8.033   5.319 -0.2935 -0.0092 -0.3928
   62MOL    C6128243   1.572   8.057   5.582  0.1034  0.1723  0.3411
   62MOL    C6228244   1.513   7.967   5.672 -0.1501 -0.1439 -0.6503
   62MOL    H6328245   1.152   7.678   5.784  2.2148 -0.5473 -1.6988
   62MOL    H6428246   1.143   7.556   5.906 -0.3898 -2.0655 -1.2713
   62MOL    H6528247   1.382   7.625   5.968  1.1357  0.3357  0.2388
   62MOL    H6628248   1.269   7.755   5.999 -0.3481 -0.5464  0.1389
   62MOL    H6728249   1.761   7.737   5.680 -1.2662 -1.5297 -1.7932
   62MOL    H6828250   1.861   7.875   5.514  1.0682 -0.0899  0.6012
   62MOL    H6928251   1.507   8.135   5.547  2.2846  1.0167 -1.9597
   62MOL    H7028252   1.417   7.995   5.714  0.5008 -0.1656  0.9151
   62MOL    O7128253   1.848   8.083   5.183  0.5559  0.1293  0.3128
   62MOL    C7228254   1.983   8.120   5.183 -0.0010  0.2485  0.0413
   62MOL    C7328255   2.081   8.015   5.253  0.2014  0.0835  0.2630
   62MOL    O7428256   2.057   7.881   5.205 -0.1832 -0.1300 -0.0012
   62MOL    C7528257   2.114   7.828   5.086 -0.2667  0.1450 -0.0061
   62MOL    O7628258   2.183   7.897   5.018 -0.8543  0.3682  0.1792
   62MOL    C7728259   2.088   7.684   5.059 -0.4698  0.1991  0.6645
   62MOL    C7828260   2.045   7.598   5.159 -0.3810  0.3485  0.4069
   62MOL    C7928261   2.030   7.457   5.128  0.3462 -0.0651  0.7159
   62MOL    C8028262   2.046   7.414   4.999 -0.1447 -0.7521 -0.7027
   62MOL    C8128263   2.049   7.271   4.973 -0.7169 -0.0956 -0.0953
   62MOL    O8228264   2.083   7.220   4.866  0.1012 -0.3816  0.3441
   62MOL    O8328265   1.980   7.198   5.065  0.2185  0.3341 -0.0500
   62MOL    C8428266   2.076   7.502   4.893  0.6433  0.1955  0.2087
   62MOL    C8528267   2.100   7.639   4.924  0.4906  0.1300 -0.5820
   62MOL    H8628268   2.005   8.149   5.081  2.0766 -1.3261  0.0149
   62MOL    H8728269   1.984   8.215   5.238 -0.1292  0.1293  0.2520
   62MOL    H8828270   2.071   8.008   5.361 -0.4164 -2.1316  0.0863
   62MOL    H8928271   2.187   8.043   5.245 -1.0031  4.9116 -0.3240
   62MOL    H9028272   2.020   7.632   5.259 -1.7134 -0.3064  0.3125
   62MOL    H9128273   1.997   7.384   5.200 -1.3713 -1.8076 -1.7380
   62MOL    H9228274   2.084   7.458   4.795  1.3912 -0.2699  0.4722
   62MOL    H9328275   2.132   7.705   4.845  1.2122 -1.6745 -1.8137
   62MOL    O9428276   1.959   7.059   5.025  0.2385 -0.5089  0.1576
   62MOL    C9528277   2.031   6.976   5.114 -0.7400  0.3753  0.0511
   62MOL    C9628278   2.028   6.828   5.061  0.5052  0.2460  0.5689
   62MOL    O9728279   1.980   6.750   5.168  0.5294  0.1896  0.1338
   62MOL    C9828280   1.852   6.730   5.184  0.4885 -0.5567  0.0567
   62MOL    O9928281   1.768   6.749   5.094  0.1198  0.3847  0.1925
   62MOL   C10028282   1.821   6.651   5.303 -0.6713 -0.5364 -0.1684
   62MOL   C10128283   1.692   6.593   5.324 -0.4115  0.9427  0.4762
   62MOL   C10228284   1.658   6.533   5.445  0.5474 -0.3530 -0.0804
   62MOL   C10328285   1.752   6.522   5.546 -0.3391  0.6605  0.3744
   62MOL   C10428286   1.717   6.466   5.683 -0.4157  0.2126 -0.3534
   62MOL   O10528287   1.792   6.459   5.780 -0.0396  0.0885  0.6398
   62MOL   O10628288   1.583   6.433   5.689 -0.1573 -0.4559 -0.0496
   62MOL   C10728289   1.882   6.574   5.525  0.3514  0.2159  0.9813
   62MOL   C10828290   1.914   6.641   5.407 -1.0619  0.6928  0.5760
   62MOL   H10928291   2.138   6.994   5.121 -0.6860 -0.2949  1.0601
   62MOL   H11028292   1.995   6.987   5.216 -0.6174 -1.9131  0.3517
   62MOL   H11128293   2.132   6.802   5.040 -0.3053 -1.2653 -1.6847
   62MOL   H11228294   1.978   6.816   4.965 -1.7839 -1.9878  1.9757
   62MOL   H11328295   1.618   6.591   5.245  0.4530 -0.3247 -0.3306
   62MOL   H11428296   1.560   6.488   5.456  0.4524  0.4116  2.4137
   62MOL   H11528297   1.960   6.573   5.600 -0.3525  1.5236  1.7426
   62MOL   H11628298   2.012   6.684   5.399 -2.0297  2.3450 -4.0617
   62MOL   O11728299   1.557   6.374   5.821 -0.2891  0.2100  0.5188
   62MOL   C11828300   1.516   6.472   5.915  0.1308 -0.0456 -0.0992
   62MOL   C11928301   1.465   6.394   6.035 -0.1869  0.4641 -0.7209
   62MOL   O12028302   1.467   6.474   6.152  0.3584  0.3090  0.7730
   62MOL   C12128303   1.358   6.542   6.189  0.4764 -0.4776 -0.3398
   62MOL   O12228304   1.258   6.559   6.124 -0.0211 -0.1106 -0.7401
   62MOL   C12328305   1.369   6.592   6.333 -0.0540 -0.6691  0.5511
   62MOL   C12428306   1.259   6.624   6.406  0.2426  0.0836 -1.0331
   62MOL   C12528307   1.270   6.664   6.541  0.1741 -0.9706  0.3417
   62MOL   C12628308   1.394   6.670   6.605 -0.3464 -0.1860 -0.1766
   62MOL   C12728309   1.410   6.697   6.753  0.9889  0.3396  0.9934
   62MOL   O12828310   1.489   6.770   6.810  0.0811  0.1800 -0.2452
   62MOL   O12928311   1.320   6.635   6.815 -1.1510 -0.1227 -0.5790
   62MOL   C13028312   1.511   6.626   6.532  0.4903 -0.2133 -0.4778
   62MOL   C13128313   1.495   6.596   6.398 -0.1794  0.0688  0.2770
   62MOL   H13228314   1.594   6.540   5.946  0.7803 -0.8735  0.1069
   62MOL   H13328315   1.440   6.537   5.870  1.9081  1.3406 -1.1813
   62MOL   H13428316   1.542   6.318   6.050 -2.0692 -1.7499 -1.8733
   62MOL   H13528317   1.373   6.341   6.009  0.8218 -0.2024 -3.1166
   62MOL   H13628318   1.165   6.608   6.355  1.1460 -0.4306 -2.5767
   62MOL   H13728319   1.186   6.681   6.607 -1.0576 -2.3600 -0.8307
   62MOL   H13828320   1.609   6.621   6.577  0.4185  1.4459 -0.1162
   62MOL   H13928321   1.583   6.562   6.345 -1.7552 -0.3005 -2.2408
   62MOL   O14028322   1.326   6.617   6.960  0.8584  0.2861 -0.5877
   62MOL   C14128323   1.363   6.482   6.999 -0.6760  0.5918 -0.3458
   62MOL   C14228324   1.520   6.478   7.016  0.0166 -0.7759  0.4695
   62MOL   O14328325   1.574   6.351   7.020  0.1999 -0.2825  0.5694
   62MOL   C14428326   1.596   6.281   6.912 -0.7779 -0.3118  0.0415
   62MOL   O14528327   1.558   6.315   6.799  0.8157 -0.5427 -0.5528
   62MOL   C14628328   1.664   6.149   6.935  0.2643  0.4020  0.0884
   62MOL   C14728329   1.675   6.092   7.063 -0.5615  0.4512  0.2768
   62MOL   C14828330   1.739   5.966   7.073 -0.2237  0.2687  0.4630
   62MOL   C14928331   1.793   5.903   6.958 -0.0446 -0.0655 -0.7376
   62MOL   C15028332   1.872   5.773   6.965 -0.4199  0.1898 -0.1915
   62MOL   O15128333   1.925   5.713   6.870  0.2884  0.2768  0.0217
   62MOL   O15228334   1.890   5.733   7.091  0.3435  0.1158  0.1213
   62MOL   C15328335   1.787   5.968   6.835 -0.8557  0.0072  0.4237
   62MOL   C15428336   1.723   6.092   6.826 -1.0798  0.3482 -0.0637
   62MOL   H15528337   1.315   6.456   7.094  1.1179  0.5594  0.5633
   62MOL   H15628338   1.323   6.408   6.930  0.4032  0.7660 -1.1636
   62MOL   H15728339   1.549   6.526   7.109 -0.4321 -0.0768  0.2504
   62MOL   H15828340   1.574   6.531   6.937  1.3934  0.1638  2.0223
   62MOL   H15928341   1.628   6.140   7.147 -0.9864  0.8119 -0.1609
   62MOL   H16028342   1.736   5.917   7.170 -0.8685 -0.1916  0.2202
   62MOL   H16128343   1.826   5.931   6.741  1.6852 -1.2964  1.9333
   62MOL   H16228344   1.728   6.137   6.728 -0.2117 -0.0624 -0.2102
   62MOL   O16328345   1.985   5.621   7.102 -0.3601  0.4441 -0.2273
   62MOL   C16428346   2.109   5.683   7.133 -0.0309  0.6650  0.1368
   62MOL   C16528347   2.105   5.726   7.280  0.8038 -0.8527 -0.3162
   62MOL   O16628348   2.143   5.620   7.363 -0.3878  0.1331  0.4403
   62MOL   C16728349   2.265   5.605   7.409 -0.4848  0.5642  0.1718
   62MOL   O16828350   2.358   5.671   7.367 -0.5309 -0.6686  0.1375
   62MOL   C16928351   2.285   5.472   7.483 -0.0921  0.3999 -0.0653
   62MOL   C17028352   2.415   5.452   7.530  0.5854  0.4138 -0.2050
   62MOL   C17128353   2.446   5.326   7.590 -0.2996  0.0795  0.3382
   62MOL   C17228354   2.347   5.230   7.609 -0.4182 -0.4106 -0.3969
   62MOL   C17328355   2.368   5.105   7.680 -0.1673 -0.2152 -0.4495
   62MOL   O17428356   2.472   5.083   7.746  0.1707 -0.1043  0.2218
   62MOL   O17528357   2.270   5.010   7.668 -0.5880 -0.1357 -0.2455
   62MOL   C17628358   2.218   5.255   7.563 -0.0602  0.1160  0.3672
   62MOL   C17728359   2.187   5.373   7.495  0.3882 -0.1801  0.2887
   62MOL   H17828360   2.191   5.615   7.108  0.8066  3.1296 -4.1929
   62MOL   H17928361   2.133   5.760   7.060  1.0845 -1.3169 -1.6425
   62MOL   H18028362   2.017   5.781   7.314  1.9218  0.3363  0.7045
   62MOL   H18128363   2.178   5.805   7.293  1.7461 -1.6508 -0.6560
   62MOL   H18228364   2.493   5.525   7.513  3.1445 -1.8236  1.5557
   62MOL   H18328365   2.550   5.307   7.613 -0.6939 -0.0780  2.0491
   62MOL   H18428366   2.135   5.187   7.575 -0.8798  0.9423 -0.5509
   62MOL   H18528367   2.088   5.398   7.458  0.7796  1.3440  0.2356
   62MOL   O18628368   2.309   4.876   7.734  0.2670 -0.2660 -0.0644
   62MOL   C18728369   2.225   4.869   7.846  0.9759 -0.3799 -0.1520
   62MOL   C18828370   2.217   4.732   7.916 -0.5342 -1.2136 -0.3609
   62MOL   O18928371   2.101   4.720   7.992 -0.1470  0.5972  0.1264
   62MOL   C19028372   1.998   4.655   7.941 -0.1224 -0.1468  0.0985
   62MOL   O19128373   1.991   4.574   7.844 -0.3642 -0.1089  0.4775
   62MOL   C19228374   1.874   4.688   8.019 -0.1903  0.3369 -0.7179
   62MOL   C19328375   1.871   4.789   8.115 -0.2350 -0.9990  0.2712
   62MOL   C19428376   1.754   4.818   8.194 -0.3679 -0.0088  1.0556
   62MOL   C19528377   1.639   4.744   8.171  0.0968  1.1931  0.4006
   62MOL   C19628378   1.521   4.786   8.253 -0.2591  0.1335 -0.2610
   62MOL   O19728379   1.527   4.850   0.083 -0.2875  0.9000 -0.2192
   62MOL   O19828380   1.410   4.765   8.180  0.3397  0.6176  0.4272
   62MOL   C19928381   1.643   4.647   8.069  0.2821  0.7239  0.4722
   62MOL   C20028382   1.755   4.611   7.993  0.5212 -0.3513  0.1997
   62MOL   H20128383   2.251   4.945   7.920  0.1564  0.6989 -0.9547
   62MOL   H20228384   2.124   4.897   7.815  0.2194 -1.0916  1.5982
   62MOL   H20328385   2.294   4.716   7.992 -0.1713  1.5884 -0.0481
   62MOL   H20428386   2.220   4.660   7.835  0.4706 -3.2744  1.4365
   62MOL   H20528387   1.956   4.853   8.133 -0.2712 -1.1460  0.9845
   62MOL   H20628388   1.755   4.894   8.271 -0.2508 -1.7550  2.7984
   62MOL   H20728389   1.552   4.590   8.057 -0.1282  1.2485  1.1099
   62MOL   H20828390   1.752   4.535   7.916 -0.9981 -2.8684  2.6547
   62MOL   O20928391   1.283   4.791   8.259  0.4296 -0.5858 -0.1387
   62MOL   C21028392   1.241   4.668   0.039  0.8117  0.0510  0.5217
   62MOL   C21128393   1.146   4.589   8.226 -0.5362  0.7570 -0.6210
   62MOL   O21228394   1.033   4.668   8.212 -0.2622  0.3122  0.0641
   62MOL   C21328395   0.915   4.614   8.208 -0.0339 -0.4418  0.5747
   62MOL   O21428396   0.895   4.495   8.182 -0.0733 -0.2176  0.3223
   62MOL   C21528397   0.805   4.710   8.240  0.2917 -0.7308  0.6488
   62MOL   C21628398   0.827   4.844   0.000  0.0395  0.5973  0.0655
   62MOL   C21728399   0.716   4.935   0.008  0.0553 -0.2420 -0.5836
   62MOL   C21828400   0.582   4.890   8.263  0.3327 -0.9478 -0.6694
   62MOL   C21928401   0.466   4.987   8.264  0.0793 -0.4576 -0.8962
   62MOL   O22028402   0.487   5.109   0.006  0.3225  0.0841  0.6543
   62MOL   O22128403   0.349   4.931   8.252  0.6346  0.4400 -0.1391
   62MOL   C22228404   0.564   4.754   8.235 -0.3139  0.2102 -0.1366
   62MOL   C22328405   0.672   4.664   8.225 -0.1640  0.2726 -0.0192
   62MOL   H22428406   1.322   4.605   0.077  0.2488 -0.4111  0.9513
   62MOL   H22528407   1.177   4.674   0.127 -0.8537  0.7114 -0.7259
   62MOL   H22628408   1.124   4.491   8.269  0.3511  1.0407  0.4877
   62MOL   H22728409   1.201   4.577   8.133  0.2974  0.4318 -0.0979
   62MOL   H22828410   0.927   4.884   0.011 -0.6393  2.2571  0.3541
   62MOL   H22928411   0.737   5.040   0.020  0.0303 -0.3598  0.6180
   62MOL   H23028412   0.463   4.717   8.224 -0.1400  0.5319 -3.4539
   62MOL   H23128413   0.658   4.559   8.205  3.9254  0.2930 -3.6139
   62MOL   O23228414   0.229   5.023   8.236  0.0106  0.3569 -0.3555
   62MOL   C23328415   0.207   5.027   8.095 -0.0244 -0.0057  0.2160
   62MOL   C23428416   0.095   5.126   8.080  0.1187  0.6371  0.1498
   62MOL   O23528417   0.057   5.139   7.944 -0.0034 -1.1819 -0.3268
   62MOL   C23628418   0.141   5.222   7.865  0.1756 -0.5491  0.2488
   62MOL   O23728419   0.246   5.273   7.905 -0.5265  0.1827 -0.0838
   62MOL   C23828420   0.088   5.253   7.721  0.3489 -0.0196  0.2307
   62MOL   C23928421   8.252   5.185   7.661 -0.2890  0.0491 -0.0906
   62MOL   C24028422   8.208   5.221   7.531 -1.0316 -0.9974 -0.2565
   62MOL   C24128423   0.003   5.316   7.454 -0.0509  0.2186  0.5733
   62MOL   C24228424   8.235   5.345   7.316  0.4824  0.5877  0.4662
   62MOL   O24328425   8.142   5.280   7.266 -0.2514  0.3045  0.4078
   62MOL   O24428426   0.022   5.451   7.258 -0.1373 -0.2387  0.0394
   62MOL   C24528427   0.117   5.376   7.516 -0.2183 -0.2071 -0.1965
   62MOL   C24628428   0.160   5.352   7.647 -0.2233 -0.3650  0.4083
   62MOL   H24728429   0.291   5.063   8.036 -0.8192 -0.4275 -1.2043
   62MOL   H24828430   0.184   4.929   8.054 -0.9783  0.9769 -1.6419
   62MOL   H24928431   0.137   5.212   8.131  1.0681  0.0771  0.3372
   62MOL   H25028432   0.010   5.077   8.127 -0.0332  0.0160 -0.7560
   62MOL   H25128433   8.199   5.107   7.714  0.1458 -0.6278 -0.6420
   62MOL   H25228434   8.121   5.176   7.486 -0.2892 -1.6862 -1.0137
   62MOL   H25328435   0.176   5.442   7.454 -1.8236  0.9110 -0.5873
   62MOL   H25428436   0.243   5.407   7.688 -0.9084  0.4732  0.6729
   62MOL   O25528437   8.250   5.492   7.119  0.3050  0.2885  0.2142
   62MOL   C25628438   8.164   5.600   7.134  0.5423 -0.3101  0.3671
   62MOL   C25728439   8.151   5.667   6.996  0.7113 -0.7061 -0.0023
   62MOL   O25828440   8.015   5.704   6.968 -0.4244  0.0575 -0.6133
   62MOL   C25928441   7.983   5.767   6.856  0.3999 -0.3188  0.1002
   62MOL   O26028442   8.059   5.787   6.762  0.7256  0.2116 -0.1148
   62MOL   C26128443   7.839   5.811   6.865  0.1314  0.7846  0.2974
   62MOL   C26228444   7.786   5.853   6.743  0.6222  0.2715  0.4025
   62MOL   C26328445   7.652   5.893   6.724 -0.2074 -1.2276 -0.6195
   62MOL   C26428446   7.568   5.871   6.835 -0.3118  0.2010 -0.8997
   62MOL   C26528447   7.421   5.879   6.824  0.1795  0.4420 -0.0736
   62MOL   O26628448   7.358   5.866   6.715  0.7730 -0.6866  0.0959
   62MOL   O26728449   7.361   5.918   6.942  0.7094  0.1395  0.0834
   62MOL   C26828450   7.611   5.820   6.961 -0.2871  0.2526  0.0208
   62MOL   C26928451   7.754   5.789   6.972  0.3912 -0.7084 -0.1863
   62MOL   H27028452   8.069   5.563   7.173 -1.1055  3.9011  0.6292
   62MOL   H27128453   8.193   5.678   7.204 -0.2183 -1.3861  1.9241
   62MOL   H27228454   8.176   5.605   6.911  2.7475 -0.5158  0.4263
   62MOL   H27328455   8.227   5.744   6.980  1.4928 -1.7400 -1.3078
   62MOL   H27428456   7.853   5.887   6.666  0.0019  0.2120 -0.1714
   62MOL   H27528457   7.620   5.944   6.634  1.4443 -2.1592 -1.7521
   62MOL   H27628458   7.549   5.804   7.047 -0.6910 -0.2918 -0.3655
   62MOL   H27728459   7.796   5.745   7.061 -2.0317  0.6053  1.6478
   62MOL   O27828460   7.214   5.937   6.938  0.0935 -0.2373 -0.6203
   62MOL   C27928461   7.182   6.076   6.930 -0.2725  0.4396 -0.7402
   62MOL   C28028462   7.216   6.142   6.801  0.2878 -0.2040 -0.1980
   62MOL   O28128463   7.344   6.202   6.799  0.7108  0.2069 -0.4591
   62MOL   C28228464   7.400   6.225   6.676  0.1964  0.3451 -0.2212
   62MOL   O28328465   7.336   6.230   6.572 -0.0741 -0.0333 -0.2836
   62MOL   C28428466   7.548   6.244   6.673 -0.1484 -0.5495 -0.0095
   62MOL   C28528467   7.628   6.255   6.789 -0.2643 -0.1772 -0.0670
   62MOL   C28628468   7.766   6.277   6.788 -0.0117 -0.4099 -0.2515
   62MOL   C28728469   7.836   6.289   6.668  0.9233 -0.1160 -0.0194
   62MOL   C28828470   7.979   6.336   6.662 -0.1309  0.0973  0.3700
   62MOL   O28928471   8.048   6.361   6.761  0.5560 -0.3442 -0.1647
   62MOL   O29028472   8.022   6.370   6.538  0.2283  0.3960 -0.0741
   62MOL   C29128473   7.760   6.267   6.548 -0.4575 -0.4157 -0.3205
   62MOL   C29228474   7.621   6.241   6.547  0.7171  0.3153 -1.2320
   62MOL   H29328475   7.073   6.077   6.942 -0.2055  1.0704 -0.1609
   62MOL   H29428476   7.219   6.130   7.017 -0.8837 -0.6755  0.2326
   62MOL   H29528477   7.138   6.213   6.772  0.0981 -1.1097 -2.0288
   62MOL   H29628478   7.215   6.063   6.725  0.4650 -0.0779 -0.3313
   62MOL   H29728479   7.582   6.238   6.885  0.6751 -2.3557  0.0372
   62MOL   H29828480   7.814   6.303   6.881  2.5395 -1.7768 -1.1352
   62MOL   H29928481   7.815   6.284   6.456  0.7891  2.3422  0.8799
   62MOL   H30028482   7.566   6.234   6.454  0.4800  1.0719 -1.1550
   62MOL   O30128483   8.152   6.431   6.535 -0.0153  0.1793 -0.5132
   62MOL   C30228484   8.251   6.334   6.507 -0.1329 -0.0615 -0.4920
   62MOL   C30328485   0.106   6.403   6.537  0.0487 -0.4716  0.0191
   62MOL   O30428486   0.118   6.416   6.679 -0.2035  0.0201  0.0716
   62MOL   C30528487   0.120   6.546   6.724 -0.0295 -0.0245 -0.1221
   62MOL   O30628488   0.078   6.642   6.661  0.5496  0.4083 -0.1144
   62MOL   C30728489   0.163   6.572   6.865  0.0575  0.5386 -0.2818
   62MOL   C30828490   0.157   6.700   6.915  0.3463  0.4995 -0.0470
   62MOL   C30928491   0.190   6.725   7.050  0.2319 -0.5254  0.2136
   62MOL   C31028492   0.229   6.621   7.133 -1.3212 -0.2423 -0.5517
   62MOL   C31128493   0.267   6.642   7.275  0.0099 -0.1186 -0.2699
   62MOL   O31228494   0.303   6.548   7.348  0.0619  0.1732 -0.9092
   62MOL   O31328495   0.260   6.773   7.304 -0.2470 -0.1264  0.5893
   62MOL   C31428496   0.244   6.489   7.085  0.0347 -0.2808  0.6261
   62MOL   C31528497   0.201   6.465   6.952  0.4313 -0.0207 -0.9873
   62MOL   H31628498   8.249   6.244   6.569 -1.0128  0.9569  1.0039
   62MOL   H31728499   8.233   6.304   6.404  0.9241 -2.1079 -0.1105
   62MOL   H31828500   0.117   6.493   6.476  0.2880 -0.4794  0.0477
   62MOL   H31928501   0.185   6.334   6.506 -0.7171 -1.3829  0.0871
   62MOL   H32028502   0.131   6.778   6.844 -0.1511  0.5179  0.1512
   62MOL   H32128503   0.187   6.827   7.086 -3.0189 -0.3581 -0.3403
   62MOL   H32228504   0.277   6.406   7.145 -0.1145  0.3391  1.5718
   62MOL   H32328505   0.196   6.363   6.918  1.1885 -0.6636  0.7979
   62MOL   O32428506   0.301   6.817   7.445  0.1642  0.1473 -0.2390
   62MOL   C32528507   0.436   6.845   7.449 -0.0080  0.7490 -0.7061
   62MOL   C32628508   0.460   6.913   7.582 -0.1191 -0.0549 -0.0371
   62MOL   O32728509   0.465   6.814   7.684 -1.0811 -0.6860 -0.2573
   62MOL   C32828510   0.539   6.833   7.797 -0.0576 -0.0220  0.4644
   62MOL   O32928511   0.578   6.941   7.835 -0.2109  0.3974  0.2632
   62MOL   C33028512   0.558   6.699   7.855  0.4670  0.2232 -0.6475
   62MOL   C33128513   0.500   6.579   7.807 -0.5493  0.2533 -0.3968
   62MOL   C33228514   0.536   6.453   7.869 -0.5979 -0.4703 -0.3950
   62MOL   C33328515   0.638   6.449   7.962  0.3331  0.1920  0.3577
   62MOL   C33428516   0.684   6.318   8.009  0.2289 -0.0406 -0.8631
   62MOL   O33528517   0.612   6.219   7.988 -0.1266 -0.5453 -0.0071
   62MOL   O33628518   0.788   6.318   8.094 -0.1620  0.1822  0.0641
   62MOL   C33728519   0.697   6.565   8.012 -0.3406  0.6128 -0.3404
   62MOL   C33828520   0.650   6.686   7.968 -0.2583  0.6588 -0.5369
   62MOL   H33928521   0.489   6.751   7.438  0.4622  0.8632  0.4867
   62MOL   H34028522   0.468   6.902   7.362 -0.0638  0.1894 -1.0924
   62MOL   H34128523   0.371   6.965   7.619 -0.9278 -1.4492  0.0132
   62MOL   H34228524   0.555   6.966   7.581 -0.1296 -0.0020 -2.1165
   62MOL   H34328525   0.431   6.585   7.725  1.9349  0.4183 -2.5592
   62MOL   H34428526   0.485   6.361   7.841 -0.8926 -0.5129  0.2860
   62MOL   H34528527   0.779   6.563   8.081  1.0779  1.1747 -1.9583
   62MOL   H34628528   0.703   6.770   8.009 -0.9941  1.4464 -1.1635
   62MOL   O34728529   0.822   6.181   8.152 -0.0853  1.1115  0.4404
   62MOL   C34828530   0.782   6.180   0.008 -0.6171 -1.2159  0.0638
   62MOL   C34928531   0.893   6.243   0.083  0.7881 -0.2134  0.2067
   62MOL   O35028532   0.880   6.205   0.220 -0.3889 -0.6445 -0.4357
   62MOL   C35128533   0.967   6.257   0.305  1.0144  0.1454 -0.5513
   62MOL   O35228534   1.056   6.336   0.274  0.1093 -0.4687 -0.6048
   62MOL   C35328535   0.941   6.216   0.453 -0.2503  0.3123 -0.4044
   62MOL   C35428536   1.017   6.277   0.555 -0.8340 -0.0077  0.7007
   62MOL   C35528537   1.013   6.229   0.686 -0.3240 -0.2709 -0.1443
   62MOL   C35628538   0.921   6.130   0.721  0.1723 -0.3101  0.2122
   62MOL   C35728539   0.907   6.098   0.871  0.1453  0.3982  0.6220
   62MOL   O35828540   0.994   6.127   0.953  0.4748  0.3283 -0.0858
   62MOL   O35928541   0.795   6.021   0.909 -0.2744  0.5439 -0.0626
   62MOL   C36028542   0.839   6.076   0.621  0.2877  0.1110  0.1759
   62MOL   C36128543   0.855   6.112   0.489  0.8441  0.6295  0.2161
   62MOL   H36228544   0.683   6.223   0.023 -0.8560 -2.0532  0.9396
   62MOL   H36328545   0.763   6.076   0.035  2.4887 -1.4652  1.4751
   62MOL   H36428546   0.879   6.350   0.068 -0.0473 -0.6319 -2.2499
   62MOL   H36528547   0.993   6.211   0.053  0.1340 -2.9517  0.7962
   62MOL   H36628548   1.080   6.361   0.530 -0.0524 -0.2362  1.8637
   62MOL   H36728549   1.076   6.265   0.767 -2.3920 -0.3647  1.5589
   62MOL   H36828550   0.763   6.007   0.655  1.1329 -1.2116 -0.5803
   62MOL   H36928551   0.795   6.067   0.411  1.6593  1.0978 -0.6912
   62MOL   O37028552   0.761   6.030   1.055  0.1133  0.0878  0.3794
   62MOL   C37128553   0.756   5.902   1.111 -0.6708  0.2139 -0.1707
   62MOL   C37228554   0.681   5.908   1.245 -0.2991  0.1372  0.4710
   62MOL   O37328555   0.779   5.860   1.336 -0.7229 -0.7614 -0.3211
   62MOL   C37428556   0.745   5.816   1.458  0.2415  0.3377  0.3986
   62MOL   O37528557   0.631   5.821   1.506 -0.5449 -0.0381  0.3294
   62MOL   C37628558   0.862   5.772   1.545  0.4403  0.1195  0.0653
   62MOL   C37728559   0.842   5.730   1.674 -0.6340 -0.2239 -0.7058
   62MOL   C37828560   0.954   5.688   1.758 -0.2873 -0.3033 -0.8878
   62MOL   C37928561   1.085   5.688   1.708  0.4891  0.2753 -0.0472
   62MOL   C38028562   1.204   5.663   1.791 -0.8063 -0.0613 -0.9637
   62MOL   O38128563   1.197   5.617   1.903  0.3269  0.1013 -0.4006
   62MOL   O38228564   1.323   5.677   1.728 -0.6657  0.4587  0.2591
   62MOL   C38328565   1.099   5.729   1.573 -0.0841 -0.1997  0.3602
   62MOL   C38428566   0.994   5.776   1.493 -0.1295  0.3366  0.1349
   62MOL   H38528567   0.715   5.822   1.051 -0.9514  0.6997 -0.6261
   62MOL   H38628568   0.859   5.870   1.127 -1.0384 -0.8877  0.0434
   62MOL   H38728569   0.597   5.841   1.222 -0.1208 -0.2218  0.8778
   62MOL   H38828570   0.641   6.005   1.274  0.2048  0.2183  0.8988
   62MOL   H38928571   0.743   5.717   1.716 -0.3954  1.5298  0.4073
   62MOL   H39028572   0.932   5.668   1.862 -0.7975  0.2520 -0.8846
   62MOL   H39128573   1.198   5.727   1.529  0.1049 -1.1542  0.8204
   62MOL   H39228574   1.015   5.816   1.395  1.3425  1.6857  0.9771
   62MOL   O39328575   1.437   5.613   1.800 -0.1313 -0.2168  0.4110
   62MOL   C39428576   1.541   5.715   1.816  0.0767 -0.0342  0.1748
   62MOL   C39528577   1.620   5.738   1.679  0.3450 -0.4107  0.3472
   62MOL   O39628578   1.536   5.812   1.585  0.3583 -1.1696 -0.4139
   62MOL   C39728579   1.544   5.951   1.571  0.4082  0.2622  0.5223
   62MOL   O39828580   1.592   6.020   1.657 -0.1100 -0.0331  0.1474
   62MOL   C39928581   1.488   5.997   1.435  0.8556 -0.1851  0.3143
   62MOL   C40028582   1.462   6.135   1.424 -0.0296  0.1757 -0.3282
   62MOL   C40128583   1.414   6.186   1.304 -0.0719 -0.2990  0.3295
   62MOL   C40228584   1.402   6.110   1.186 -0.4371  0.9405  0.1443
   62MOL   C40328585   1.346   6.167   1.055  0.1330  0.3825 -0.6864
   62MOL   O40428586   1.307   6.089   0.963 -0.1383  0.0631  0.3848
   62MOL   O40528587   1.347   6.310   1.054 -0.0386  0.5822 -1.6833
   62MOL   C40628588   1.431   5.971   1.196  1.1179 -0.4374  0.2719
   62MOL   C40728589   1.478   5.917   1.324  0.3489  0.4934  0.1370
   62MOL   H40828590   1.492   5.807   1.850 -0.7387 -0.2475 -0.4009
   62MOL   H40928591   1.611   5.678   1.891  1.7104  1.1204 -0.7485
   62MOL   H41028592   1.649   5.643   1.634 -1.2730 -0.4773 -0.5795
   62MOL   H41128593   1.704   5.805   1.700 -0.2960  0.8787 -1.1479
   62MOL   H41228594   1.471   6.189   1.517 -3.3863 -0.2765  0.3241
   62MOL   H41328595   1.367   6.283   1.302  0.7021  0.0581 -2.0974
   62MOL   H41428596   1.423   5.915   1.104  1.6412  0.3284 -0.2405
   62MOL   H41528597   1.503   5.812   1.330 -0.3867  0.1923 -1.7733
   62MOL   O41628598   1.255   6.370   0.954  0.2066  0.0889 -0.2307
   62MOL   C41728599   1.144   6.425   1.028 -0.0151  0.2265 -0.1002
   62MOL   C41828600   1.053   6.514   0.937 -0.4376 -0.7341 -0.5920
   62MOL   O41928601   1.128   6.628   0.892 -0.2808 -0.1180 -0.1193
   62MOL   C42028602   1.167   6.633   0.764  0.3734  0.8852  0.4982
   62MOL   O42128603   1.174   6.537   0.693  0.5148  0.4695 -0.1418
   62MOL   C42228604   1.220   6.775   0.723  0.6507  0.5339 -0.7414
   62MOL   C42328605   1.240   6.875   0.826 -0.5870 -0.0355  0.4537
   62MOL   C42428606   1.288   7.003   0.797 -0.6743 -0.1920  0.4539
   62MOL   C42528607   1.322   7.033   0.660  0.9863 -0.2249  0.5059
   62MOL   C42628608   1.370   7.170   0.614 -0.2175  0.2153 -0.6495
   62MOL   O42728609   1.429   7.250   0.685  0.1846 -0.2584 -0.2688
   62MOL   O42828610   1.333   7.194   0.490 -0.4481  0.0207 -0.0458
   62MOL   C42928611   1.305   6.938   0.556  1.5305 -0.3157  0.5979
   62MOL   C43028612   1.260   6.810   0.592 -0.5882  0.7816 -0.1345
   62MOL   H43128613   1.082   6.346   1.070  0.1086 -0.5486 -1.3428
   62MOL   H43228614   1.188   6.490   1.104  1.8449 -0.1295 -0.8562
   62MOL   H43328615   0.985   6.563   1.006  0.8760  0.2610  0.0110
   62MOL   H43428616   1.006   6.463   0.853 -0.0762 -1.0756 -0.5861
   62MOL   H43528617   1.230   6.865   0.933 -0.0833  1.3857  0.6370
   62MOL   H43628618   1.287   7.075   0.878 -0.2345  0.6134 -0.2459
   62MOL   H43728619   1.347   6.955   0.458 -2.3257  0.9358 -0.9170
   62MOL   H43828620   1.242   6.739   0.512 -1.8166  0.2583  0.5895
   62MOL   O43928621   1.373   7.330   0.443 -0.4913  0.5680  0.5478
   62MOL   C44028622   1.256   7.416   0.445  0.0452 -0.0326 -0.2674
   62MOL   C44128623   1.168   7.399   0.313 -0.2437  0.8388 -0.0698
   62MOL   O44228624   1.129   7.261   0.297  0.0622 -0.1283 -0.3818
   62MOL   C44328625   1.034   7.224   0.212  0.0045  0.1347  0.2201
   62MOL   O44428626   0.959   7.298   0.150  0.7645 -0.0974  0.6086
   62MOL   C44528627   1.034   7.075   0.194  0.0569 -0.2362 -0.7309
   62MOL   C44628628   0.943   7.019   0.110 -0.1116  0.4767  0.7614
   62MOL   C44728629   0.943   6.883   0.080 -0.4713  0.4407  0.5071
   62MOL   C44828630   1.028   6.795   0.153  0.1313  0.0468 -0.6423
   62MOL   C44928631   1.036   6.647   0.121 -0.3043  0.0176  0.0036
   62MOL   O45028632   0.943   6.593   0.064  0.6926 -0.0339  0.2070
   62MOL   O45128633   1.140   6.578   0.171 -0.1038 -0.0382 -0.2871
   62MOL   C45228634   1.123   6.851   0.240  0.5814  0.3935  0.0390
   62MOL   C45328635   1.128   6.991   0.253 -0.1622  0.2243 -0.6388
   62MOL   H45428636   1.195   7.411   0.535  2.1287  2.0323  1.3207
   62MOL   H45528637   1.292   7.519   0.440 -0.3437  0.2191  1.6994
   62MOL   H45628638   1.228   7.437   0.230  0.5299  1.4872  0.7746
   62MOL   H45728639   1.074   7.453   0.325  0.3930  2.2321 -1.1160
   62MOL   H45828640   0.874   7.085   0.060  0.3976  0.2855 -0.2113
   62MOL   H45928641   0.873   6.833   0.014  2.1976 -0.9785 -1.3600
   62MOL   H46028642   1.197   6.787   0.285  0.8043  0.5908 -0.0478
   62MOL   H46128643   1.211   7.040   0.301  0.4669 -1.3357 -0.1220
   62MOL   H46228644   1.123   6.489   0.195 -0.2208  0.0770  0.0649
   63MOL     O128645   1.266   3.973   0.501  0.0096  0.2245 -0.7780
   63MOL     C228646   1.314   4.097   0.553 -0.1408  0.6481  0.5481
   63MOL     C328647   1.448   4.073   0.633  0.4662 -0.6852  0.1190
   63MOL     O428648   1.542   4.034   0.532 -0.2886 -0.3984  0.2134
   63MOL     C528649   1.592   3.906   0.520 -0.1663  0.6929  0.6748
   63MOL     O628650   1.560   3.813   0.592  0.4082  0.5823  0.6502
   63MOL     C728651   1.698   3.898   0.415  0.1410 -0.9796  0.7481
   63MOL     C828652   1.757   3.773   0.389 -0.2715  0.8264 -0.6367
   63MOL     C928653   1.859   3.770   0.296 -1.0333 -0.1425  0.7490
   63MOL    C1028654   1.905   3.887   0.233 -0.3863  0.2306 -0.4905
   63MOL    C1128655   1.997   3.874   0.120 -0.5666  0.3329  0.7679
   63MOL    O1228656   1.981   3.953   0.025  0.4766 -0.6845 -0.2131
   63MOL    O1328657   2.085   3.780   0.116 -0.0353  0.1310  0.2792
   63MOL    C1428658   1.853   4.014   0.260  0.7450  0.0160 -0.0698
   63MOL    C1528659   1.752   4.020   0.356  0.9549  0.8387  0.1704
   63MOL    H1628660   1.316   4.175   0.477 -0.3959  0.4675  0.3511
   63MOL    H1728661   1.233   4.131   0.618  0.3040  3.4205 -0.2937
   63MOL    H1828662   1.439   3.986   0.698  0.1067 -1.4859 -0.9997
   63MOL    H1928663   1.483   4.161   0.687 -0.0457 -1.9999  2.7021
   63MOL    H2028664   1.722   3.683   0.436 -0.3582  0.9150 -0.5308
   63MOL    H2128665   1.898   3.672   0.271 -1.0494  0.4724 -1.7432
   63MOL    H2228666   1.891   4.100   0.205  0.3968  1.3819  1.7680
   63MOL    H2328667   1.705   4.116   0.372  0.5506  0.3513  1.9636
   63MOL    H2428668   1.293   3.900   0.555  1.3440  2.2721  1.4164
   63MOL    O2528669   2.136   3.741   8.250 -0.2863  0.9307 -0.1380
   63MOL    C2628670   2.262   3.794   8.232 -0.5402  0.1719 -0.3909
   63MOL    C2728671   2.277   3.809   8.084  0.6510 -0.2231 -0.8879
   63MOL    O2828672   2.387   3.910   8.048 -0.3335  0.0327  0.2482
   63MOL    C2928673   2.370   3.967   7.920  0.4230  0.1093  0.3614
   63MOL    O3028674   2.278   3.930   7.846 -0.6765 -0.5364 -0.1231
   63MOL    C3128675   2.477   4.066   7.876 -0.1621 -0.3962  0.2627
   63MOL    C3228676   2.560   4.132   7.973 -0.0779 -0.5931  0.4760
   63MOL    C3328677   2.656   4.223   7.928  0.3894  0.0583 -0.7169
   63MOL    C3428678   2.679   4.244   7.787 -0.0115  0.8335 -0.2748
   63MOL    C3528679   2.784   4.336   7.735 -0.4568  0.1214 -0.5141
   63MOL    O3628680   2.810   4.342   7.613 -0.7744  0.2298 -0.0583
   63MOL    O3728681   2.852   4.393   7.831 -0.1228  0.2225  0.3244
   63MOL    C3828682   2.598   4.170   7.701 -0.8538  1.1976  0.2620
   63MOL    C3928683   2.485   4.091   7.741  0.1578  0.1798  0.4284
   63MOL    H4028684   2.272   3.887   0.012 -1.9060 -0.3405  0.7675
   63MOL    H4128685   2.328   3.725   0.009 -0.5435  0.0507 -0.5454
   63MOL    H4228686   2.186   3.857   8.048 -0.5576 -1.0546  0.9429
   63MOL    H4328687   2.281   3.709   8.041 -3.2641 -0.0708 -1.7573
   63MOL    H4428688   2.537   4.109   8.075 -1.0587  1.1491  0.6744
   63MOL    H4528689   2.713   4.281   8.000  1.7196  0.0035 -1.6972
   63MOL    H4628690   2.615   4.196   7.598 -1.9922  0.8219 -0.0268
   63MOL    H4728691   2.423   4.037   7.671  0.9485 -0.5911  0.3147
   63MOL    O4828692   2.951   4.490   7.784 -0.0994 -0.6884 -0.6278
   63MOL    C4928693   3.082   4.458   7.817  0.4525  0.0660 -0.2423
   63MOL    C5028694   3.164   4.585   7.807 -0.3398  0.1731 -0.4524
   63MOL    O5128695   3.189   4.617   7.667  0.4982  0.0063  0.6649
   63MOL    C5228696   3.289   4.555   7.599 -0.1420 -0.0002 -0.2773
   63MOL    O5328697   3.347   4.453   7.647 -0.0215 -0.3944  0.6076
   63MOL    C5428698   3.314   4.613   7.459 -0.3445  0.0980 -0.6227
   63MOL    C5528699   3.266   4.738   7.419 -0.2925  0.0918 -0.0832
   63MOL    C5628700   3.300   4.787   7.294  0.3386  0.0947  0.1000
   63MOL    C5728701   3.383   4.722   7.204 -0.4526 -0.5627 -0.1911
   63MOL    C5828702   3.410   4.766   7.064  0.9425  0.8036  0.2665
   63MOL    O5928703   3.494   4.710   6.996 -0.4459  0.4244  0.3991
   63MOL    O6028704   3.341   4.875   7.020 -0.5024  0.0723  0.7693
   63MOL    C6128705   3.436   4.597   7.246  0.0369  0.8163 -0.3484
   63MOL    C6228706   3.393   4.540   7.370  0.2569 -0.7016  0.2748
   63MOL    H6328707   3.086   4.412   7.915 -1.8469 -0.5179 -0.4047
   63MOL    H6428708   3.122   4.391   7.741  0.3746  0.6623 -0.8132
   63MOL    H6528709   3.260   4.575   7.857 -1.5176 -0.3985  1.7526
   63MOL    H6628710   3.106   4.654   7.868  0.7858  2.2275 -1.6784
   63MOL    H6728711   3.209   4.799   7.487 -2.3678  0.0260 -1.6954
   63MOL    H6828712   3.265   4.883   7.259  2.8487  0.5191 -1.3792
   63MOL    H6928713   3.511   4.548   7.186 -0.1178  0.4589 -0.2545
   63MOL    H7028714   3.438   4.445   7.396  0.9459 -0.3650  0.2937
   63MOL    O7128715   3.358   4.913   6.875 -0.3727 -0.2261  0.2860
   63MOL    C7228716   3.439   5.028   6.872  0.1175 -0.3911  0.5280
   63MOL    C7328717   3.350   5.151   6.899  0.0467  0.2279 -0.5565
   63MOL    O7428718   3.436   5.264   6.897  0.1851 -0.2523 -0.0451
   63MOL    C7528719   3.496   5.294   7.006 -0.6208  0.0192  0.4396
   63MOL    O7628720   3.470   5.240   7.117  0.1257  0.4797  0.3698
   63MOL    C7728721   3.594   5.407   6.992 -0.3813  0.6022  0.1907
   63MOL    C7828722   3.667   5.456   7.105 -0.0707 -0.6318 -0.4029
   63MOL    C7928723   3.754   5.563   7.100  0.5147  0.0826  0.6519
   63MOL    C8028724   3.770   5.625   6.976 -0.0660 -0.7541 -0.0073
   63MOL    C8128725   3.867   5.744   6.970  0.8749 -0.2793 -0.4908
   63MOL    O8228726   3.940   5.770   7.059 -0.1986  0.2032  0.1408
   63MOL    O8328727   3.862   5.810   6.853  0.6552  0.5494  0.1330
   63MOL    C8428728   3.695   5.584   6.865 -0.3641  0.2145 -0.2981
   63MOL    C8528729   3.608   5.479   6.875  0.1692 -0.0125  0.7817
   63MOL    H8628730   3.516   5.014   6.947  1.3377 -0.3217 -0.7031
   63MOL    H8728731   3.478   5.025   6.771  0.7140  0.1898  0.7402
   63MOL    H8828732   3.289   5.139   6.989 -0.1545 -1.9184 -0.9463
   63MOL    H8928733   3.282   5.163   6.815  2.0950  0.1605 -2.2502
   63MOL    H9028734   3.661   5.397   7.196 -2.2206 -0.2536 -0.2753
   63MOL    H9128735   3.804   5.599   7.189  0.5023  1.9016 -0.0425
   63MOL    H9228736   3.709   5.624   6.765 -2.3936  1.8055  0.0302
   63MOL    H9328737   3.558   5.450   6.783  0.5504  0.3708  0.4498
   63MOL    O9428738   3.947   5.931   6.853  0.2636  0.4325 -0.9686
   63MOL    C9528739   3.989   5.963   6.728 -0.3458 -0.0658 -0.7049
   63MOL    C9628740   3.876   6.023   6.641  0.6032  0.0447 -1.0258
   63MOL    O9728741   3.789   5.917   6.587 -0.3655  0.2803  0.1476
   63MOL    C9828742   3.663   5.947   6.536  0.0152  0.1223 -0.0466
   63MOL    O9928743   3.630   6.061   6.494  0.5375  0.2177  0.0669
   63MOL   C10028744   3.577   5.823   6.524  0.0068  0.6833 -0.1911
   63MOL   C10128745   3.632   5.693   6.517 -0.1352  0.3514  0.2441
   63MOL   C10228746   3.541   5.583   6.514  0.1246  0.2862  0.7851
   63MOL   C10328747   3.403   5.605   6.532  0.2665  0.3081 -0.2418
   63MOL   C10428748   3.319   5.491   6.548 -0.7170  0.1500  0.3400
   63MOL   O10528749   3.364   5.376   6.543  0.3364 -0.1606 -0.4722
   63MOL   O10628750   3.190   5.523   6.549  0.6526  0.0392  0.1555
   63MOL   C10728751   3.352   5.738   6.550  0.5798  0.7832 -0.0553
   63MOL   C10828752   3.437   5.845   6.529  0.1244 -0.3628  0.1047
   63MOL   H10928753   4.053   6.047   6.754  0.5481 -0.8698 -0.2878
   63MOL   H11028754   4.056   5.893   6.679  3.0184  1.8758  0.9768
   63MOL   H11128755   3.938   6.074   6.567  0.1878  2.8497  0.4891
   63MOL   H11228756   3.829   6.099   6.703  0.8254 -0.2559 -0.4806
   63MOL   H11328757   3.739   5.679   6.515 -0.4244 -1.7576 -2.2854
   63MOL   H11428758   3.581   5.483   6.505 -1.6730 -0.3678 -0.4919
   63MOL   H11528759   3.247   5.754   6.570  0.0721 -1.7049 -0.5894
   63MOL   H11628760   3.393   5.943   6.522  0.4562  0.0342  3.1766
   63MOL   O11728761   3.102   5.408   6.604  0.1702 -0.3068  0.5964
   63MOL   C11828762   3.076   5.436   6.741  0.6031  0.1071 -0.2080
   63MOL   C11928763   2.945   5.521   6.760 -0.7118 -0.7079  0.1544
   63MOL   O12028764   2.970   5.662   6.745  0.2181  0.5248 -0.3243
   63MOL   C12128765   3.016   5.734   6.846 -0.5236 -0.4538  0.0886
   63MOL   O12228766   3.012   5.698   6.963  0.0449  0.4807 -0.3053
   63MOL   C12328767   3.079   5.863   6.801  0.5447 -0.2072  0.4059
   63MOL   C12428768   3.145   5.946   6.890 -0.6158  0.1808 -0.0925
   63MOL   C12528769   3.209   6.064   6.856  0.0318  0.4113 -0.2484
   63MOL   C12628770   3.200   6.114   6.728 -0.0329  0.3623  0.0801
   63MOL   C12728771   3.260   6.246   6.705  0.1843 -0.1612 -0.6013
   63MOL   O12828772   3.319   6.311   6.789 -0.3723 -0.2800  0.2020
   63MOL   O12928773   3.243   6.288   6.572 -0.3581  0.1292  0.1262
   63MOL   C13028774   3.132   6.035   6.633 -0.3644 -0.1126  0.5385
   63MOL   C13128775   3.073   5.910   6.669  0.5610 -0.1232 -0.1219
   63MOL   H13228776   3.070   5.337   6.786  2.5022  1.2556  2.7066
   63MOL   H13328777   3.165   5.473   6.792  0.0475  1.3350 -0.0987
   63MOL   H13428778   2.897   5.495   6.854 -0.3130  0.9047  0.8244
   63MOL   H13528779   2.872   5.483   6.689 -0.3795 -0.4400 -0.3372
   63MOL   H13628780   3.149   5.928   6.996  1.3437 -2.5856 -0.6026
   63MOL   H13728781   3.251   6.121   6.937  1.1755 -1.1338  0.2791
   63MOL   H13828782   3.121   6.073   6.533 -0.2666 -0.1786  0.5019
   63MOL   H13928783   3.006   5.866   6.597 -0.3988 -0.6530  1.0727
   63MOL   O14028784   3.305   6.426   6.552  0.4701 -0.1962 -0.8964
   63MOL   C14128785   3.203   6.517   6.526 -0.3644 -0.1429 -0.4500
   63MOL   C14228786   3.089   6.530   6.630 -0.0006  0.5760 -0.0857
   63MOL   O14328787   3.138   6.567   6.760 -0.2291 -0.1886 -0.0869
   63MOL   C14428788   3.067   6.539   6.870 -0.9792 -0.7779  0.6709
   63MOL   O14528789   2.982   6.456   6.874  0.1307  0.0259 -0.0863
   63MOL   C14628790   3.130   6.598   6.993  0.2350  0.7459  0.1725
   63MOL   C14728791   3.250   6.674   6.986  0.2677  0.3312  0.5511
   63MOL   C14828792   3.315   6.715   7.100 -0.2714  0.7515  0.2025
   63MOL   C14928793   3.257   6.686   7.226 -0.3585  0.3936  0.1058
   63MOL   C15028794   3.301   6.747   7.354 -0.5854  0.3496  0.0159
   63MOL   O15128795   3.251   6.724   7.462 -0.1778 -0.4210  0.0345
   63MOL   O15228796   3.414   6.819   7.343 -0.0864  0.0661  0.5832
   63MOL   C15328797   3.137   6.610   7.232  0.7738  0.5167 -0.6854
   63MOL   C15428798   3.072   6.563   7.118  0.5148  0.1382 -0.1295
   63MOL   H15528799   3.248   6.616   6.517 -1.3137  0.3543  0.2612
   63MOL   H15628800   3.164   6.489   6.429 -0.2462  0.8432 -0.7898
   63MOL   H15728801   3.030   6.439   6.632  1.7450 -0.6554 -1.9406
   63MOL   H15828802   3.024   6.616   6.615 -0.2714  0.2811 -0.6329
   63MOL   H15928803   3.291   6.695   6.889  2.1096 -2.1889  0.7434
   63MOL   H16028804   3.407   6.773   7.097  0.2757 -0.1194  0.0970
   63MOL   H16128805   3.090   6.600   7.328  1.7813 -1.4709 -0.3656
   63MOL   H16228806   2.988   6.497   7.113 -0.5520  1.3559  1.2495
   63MOL   O16328807   3.437   6.903   7.464  0.0949  0.2874  0.5112
   63MOL   C16428808   3.546   6.858   7.548 -0.3997  0.0598  0.7557
   63MOL   C16528809   3.581   6.973   7.648  0.0841  0.0225 -0.8652
   63MOL   O16628810   3.720   6.969   7.678  0.1990  0.1757 -0.6262
   63MOL   C16728811   3.777   6.860   7.743 -0.2807  0.6631  0.5171
   63MOL   O16828812   3.724   6.749   7.752  0.0918  0.5321 -0.0103
   63MOL   C16928813   3.914   6.894   7.787 -0.2323 -0.6505  0.7634
   63MOL   C17028814   3.990   6.805   7.867  0.2686 -0.1999  0.2022
   63MOL   C17128815   4.127   6.831   7.889 -0.3056  0.3648  0.0115
   63MOL   C17228816   4.188   6.947   7.837  0.0319  0.8617  0.5116
   63MOL   C17328817   4.323   6.978   7.880 -0.4441 -0.3706 -0.7778
   63MOL   O17428818   4.402   6.909   7.943 -0.0233  0.2543  0.2298
   63MOL   O17528819   4.373   7.098   7.835  0.4430 -0.4577  0.2198
   63MOL   C17628820   4.109   7.039   7.770  0.4793 -0.0966  0.7628
   63MOL   C17728821   3.974   7.018   7.758 -0.2466  0.4598  0.0099
   63MOL   H17828822   3.513   6.771   7.604 -0.1498 -0.0584  0.7194
   63MOL   H17928823   3.630   6.828   7.486  0.2151  0.8399  1.1918
   63MOL   H18028824   3.510   6.957   7.729  2.2245  2.9140  1.7222
   63MOL   H18128825   3.566   7.069   7.597 -2.4270  0.3643  0.4248
   63MOL   H18228826   3.939   6.719   7.907  2.7716 -1.5991  0.4485
   63MOL   H18328827   4.187   6.769   7.955 -1.5583 -1.0478 -0.1516
   63MOL   H18428828   4.146   7.137   7.744 -1.3844  0.3253 -0.3846
   63MOL   H18528829   3.912   7.094   7.714 -0.4570  0.9768  1.1835
   63MOL   O18628830   4.518   7.114   7.861 -0.1045  0.2682 -0.8807
   63MOL   C18728831   4.547   7.216   7.948 -0.1116  1.1768 -0.4574
   63MOL   C18828832   4.583   7.161   8.086 -0.0448 -0.2568  0.5296
   63MOL   O18928833   4.587   7.265   8.189 -0.1795  0.2673  0.0954
   63MOL   C19028834   4.475   7.309   8.240 -0.5272  0.1802 -0.3316
   63MOL   O19128835   4.366   7.282   8.190 -0.1614  0.1091  0.4531
   63MOL   C19228836   4.492   7.396   0.089  0.4009  0.2528 -0.0235
   63MOL   C19328837   4.376   7.469   0.132  0.5466  0.4993 -0.3033
   63MOL   C19428838   4.376   7.545   0.251  0.1429 -0.1404  1.0156
   63MOL   C19528839   4.500   7.571   0.318  0.4530 -0.4875 -0.0440
   63MOL   C19628840   4.495   7.649   0.440 -0.3399  0.0991 -0.1675
   63MOL   O19728841   4.420   7.745   0.452 -0.5636 -0.3118  0.3839
   63MOL   O19828842   4.590   7.613   0.539 -0.5411  0.4285 -0.1904
   63MOL   C19928843   4.615   7.503   0.268 -0.2495  0.0862 -0.2704
   63MOL   C20028844   4.612   7.418   0.160 -0.5938 -0.3944 -0.1062
   63MOL   H20128845   4.637   7.272   7.920  0.3501 -0.2493 -1.9258
   63MOL   H20228846   4.470   7.293   7.941 -0.0290  1.2558 -0.5195
   63MOL   H20328847   4.683   7.117   8.078  0.7429  1.8306 -1.4904
   63MOL   H20428848   4.518   7.081   8.122  1.2912 -2.3376 -1.4698
   63MOL   H20528849   4.284   7.436   0.086 -0.5853 -0.1571  2.3472
   63MOL   H20628850   4.286   7.588   0.294 -0.8415 -0.2722 -0.8362
   63MOL   H20728851   4.707   7.522   0.321 -0.4068  0.7007 -0.2138
   63MOL   H20828852   4.703   7.367   0.131 -0.3289 -1.6196  2.6435
   63MOL   O20928853   4.559   7.673   0.671  0.2653 -0.5392  0.3683
   63MOL   C21028854   4.642   7.788   0.688  0.3101 -0.7044 -0.9706
   63MOL   C21128855   4.731   7.785   0.810  0.4955  0.0752  0.0596
   63MOL   O21228856   4.861   7.840   0.773 -0.4032  0.3259 -0.4575
   63MOL   C21328857   4.951   7.761   0.694  0.3677  0.2821  0.2006
   63MOL   O21428858   4.920   7.663   0.635 -0.9009  0.7341 -0.3356
   63MOL   C21528859   5.094   7.816   0.690  0.7347  0.1463 -0.2676
   63MOL   C21628860   5.204   7.736   0.649  0.4248  0.0728 -0.4892
   63MOL   C21728861   5.331   7.797   0.631  0.3000  0.1731 -0.2288
   63MOL   C21828862   5.351   7.934   0.655  0.2323  0.4828  0.4871
   63MOL   C21928863   5.491   7.995   0.632 -0.6289  0.3003 -0.0578
   63MOL   O22028864   5.518   8.104   0.674 -0.3817  0.1198  0.1888
   63MOL   O22128865   5.579   7.916   0.575  0.0577 -0.5186  0.3511
   63MOL   C22228866   5.244   8.010   0.706  0.0485 -0.6491  0.4729
   63MOL   C22328867   5.117   7.953   0.726 -0.2310 -0.1400 -0.4993
   63MOL   H22428868   4.695   7.797   0.593  0.4921 -1.0104 -0.8966
   63MOL   H22528869   4.568   7.869   0.687  2.0042  0.8699 -1.9339
   63MOL   H22628870   4.735   7.680   0.839 -0.2169 -0.4218 -1.5768
   63MOL   H22728871   4.676   7.836   0.890 -1.1059  0.3810 -1.2066
   63MOL   H22828872   5.187   7.631   0.634  1.6756 -0.3273  0.7623
   63MOL   H22928873   5.407   7.730   0.593 -0.9698 -2.5605  1.8704
   63MOL   H23028874   5.263   8.114   0.725  1.4737 -0.3859 -2.0976
   63MOL   H23128875   5.036   8.020   0.749 -0.2283 -0.0623 -0.7226
   63MOL   O23228876   5.716   7.976   0.557 -0.4555  0.2018  0.1017
   63MOL   C23328877   5.730   7.995   0.417  0.3246  0.0977  0.2054
   63MOL   C23428878   5.865   8.069   0.404  0.3092  0.1785 -0.1935
   63MOL   O23528879   5.971   7.977   0.400  0.1748  0.3209 -0.4939
   63MOL   C23628880   6.090   8.030   0.390 -0.6389  0.2282 -0.8377
   63MOL   O23728881   6.119   8.150   0.393  0.3220  0.0113  0.1047
   63MOL   C23828882   6.193   7.921   0.373  0.0287 -0.2215 -0.0850
   63MOL   C23928883   6.163   7.784   0.368 -0.3733 -0.3286  0.3848
   63MOL   C24028884   6.260   7.678   0.358 -0.6814  0.4642 -0.2438
   63MOL   C24128885   6.395   7.708   0.357  0.0610 -0.4955 -0.1435
   63MOL   C24228886   6.501   7.610   0.322 -0.0211  0.1949  0.1072
   63MOL   O24328887   6.598   7.640   0.254  0.1908 -0.5338 -0.3164
   63MOL   O24428888   6.483   7.497   0.390 -0.0719 -0.0843 -0.8008
   63MOL   C24528889   6.432   7.850   0.359 -1.3313 -0.5628 -0.0347
   63MOL   C24628890   6.335   7.951   0.362 -0.2407  0.0270 -0.1095
   63MOL   H24728891   5.742   7.906   0.355  1.4538  0.2551  0.1818
   63MOL   H24828892   5.652   8.052   0.368  0.2745  0.4917  0.7470
   63MOL   H24928893   5.877   8.137   0.488  0.3508 -0.7321  0.5470
   63MOL   H25028894   5.861   8.122   0.309 -1.9506  1.8678  0.7896
   63MOL   H25128895   6.060   7.757   0.353 -0.4643  0.9020 -1.3455
   63MOL   H25228896   6.229   7.577   0.336 -0.7460  0.2684  0.7448
   63MOL   H25328897   6.538   7.868   0.351 -1.1839 -2.2815 -2.9949
   63MOL   H25428898   6.364   8.055   0.372 -0.7858  0.4345 -2.2986
   63MOL   O25528899   6.598   7.405   0.372 -0.2270  0.7684  0.1001
   63MOL   C25628900   6.656   7.372   0.499 -0.1581  0.6830 -0.4435
   63MOL   C25728901   6.563   7.278   0.579 -0.5852  0.4000  0.4467
   63MOL   O25828902   6.572   7.153   0.510  0.5501 -0.0113  0.3410
   63MOL   C25928903   6.478   7.061   0.514 -0.2487 -0.0024 -0.3200
   63MOL   O26028904   6.363   7.077   0.561 -0.1255  0.3269 -0.4256
   63MOL   C26128905   6.529   6.939   0.441 -0.2055  0.8094 -0.2550
   63MOL   C26228906   6.442   6.840   0.396  0.4352 -0.2835 -0.3726
   63MOL   C26328907   6.476   6.738   0.314 -0.3716  0.0878 -0.3736
   63MOL   C26428908   6.609   6.729   0.266  0.5963  0.4975  0.3127
   63MOL   C26528909   6.647   6.624   0.160 -0.6734 -0.2390 -0.0410
   63MOL   O26628910   6.572   6.533   0.128  0.1691 -0.0565  0.0088
   63MOL   O26728911   6.770   6.637   0.110  0.1266  0.1677  0.3701
   63MOL   C26828912   6.702   6.827   0.303 -0.5428 -0.2080 -0.1947
   63MOL   C26928913   6.664   6.929   0.396 -0.4376  0.5305  0.0749
   63MOL   H27028914   6.753   7.323   0.493 -1.0330 -1.3145  0.8615
   63MOL   H27128915   6.667   7.463   0.557 -2.5904  0.9542 -0.3748
   63MOL   H27228916   6.460   7.314   0.586 -1.2359 -1.7546  2.7297
   63MOL   H27328917   6.612   7.272   0.676  0.3454 -1.1098 -0.1103
   63MOL   H27428918   6.340   6.848   0.430  0.6168  2.4701 -0.3489
   63MOL   H27528919   6.408   6.657   0.293 -2.1420  1.8345 -1.5579
   63MOL   H27628920   6.805   6.831   0.272  0.1420 -1.8122  1.7668
   63MOL   H27728921   6.740   6.995   0.434 -0.5054 -0.9325  2.8892
   63MOL   O27828922   6.810   6.547   0.001  0.1147 -0.3452  0.3632
   63MOL   C27928923   6.933   6.491   0.033 -0.0700 -0.0819  0.5855
   63MOL   C28028924   6.989   6.424   8.181 -0.1185  0.0873  0.2848
   63MOL   O28128925   7.051   6.521   8.103 -0.6775  0.2384  0.3049
   63MOL   C28228926   7.083   6.503   7.970  0.5458 -0.1052  0.4577
   63MOL   O28328927   7.082   6.392   7.913  0.4185  0.1123 -0.3782
   63MOL   C28428928   7.093   6.632   7.902  0.2142 -0.2559 -0.0303
   63MOL   C28528929   7.043   6.746   7.960 -0.0380  0.1013 -0.1868
   63MOL   C28628930   7.041   6.867   7.893 -0.3321 -0.5814 -0.1513
   63MOL   C28728931   7.097   6.880   7.767 -0.1250 -0.0899 -0.5645
   63MOL   C28828932   7.094   7.019   7.702  0.9934  0.2945  0.1049
   63MOL   O28928933   7.031   7.117   7.747  0.4797  0.7333 -0.5278
   63MOL   O29028934   7.159   7.020   7.588 -0.1497  0.0314  0.4850
   63MOL   C29128935   7.150   6.765   7.706  0.6672 -0.1633  0.9469
   63MOL   C29228936   7.147   6.641   7.772 -0.3256 -0.4004 -0.1363
   63MOL   H29328937   7.004   6.573   0.048  2.1249 -1.5169 -1.4986
   63MOL   H29428938   6.936   6.424   0.118  1.2636 -0.4140  0.2986
   63MOL   H29528939   6.909   6.379   8.122  0.2267  0.7705 -0.7263
   63MOL   H29628940   7.062   6.345   8.201  0.8806  0.9788  0.1591
   63MOL   H29728941   6.992   6.751   8.055  2.4210 -2.0869  1.3121
   63MOL   H29828942   7.001   6.953   7.945  2.6009  0.1288  1.0342
   63MOL   H29928943   7.198   6.764   7.609 -0.0483  2.1883  0.5281
   63MOL   H30028944   7.183   6.551   7.725  0.0612 -1.0043  1.2712
   63MOL   O30128945   7.147   7.148   7.509 -0.2912 -0.1496 -0.4059
   63MOL   C30228946   7.030   7.145   7.427  0.2443  0.5197 -0.7610
   63MOL   C30328947   6.900   7.216   7.483 -0.0442  0.6262  0.2054
   63MOL   O30428948   6.799   7.227   7.386 -0.0285  0.6328 -0.4854
   63MOL   C30528949   6.717   7.123   7.367 -0.5402  0.2374  0.3015
   63MOL   O30628950   6.732   7.006   7.409 -0.3699 -0.7573 -0.1794
   63MOL   C30728951   6.609   7.157   7.271  0.0490 -0.7546  0.0196
   63MOL   C30828952   6.601   7.280   7.204  0.4305 -0.1404  0.6708
   63MOL   C30928953   6.497   7.300   7.105 -0.2584 -0.3141 -0.0182
   63MOL   C31028954   6.407   7.192   7.067 -0.1953  0.0725 -0.0170
   63MOL   C31128955   6.309   7.211   6.951  0.1972 -0.9101 -0.1772
   63MOL   O31228956   6.273   7.314   6.897 -0.1234 -0.5762 -0.0098
   63MOL   O31328957   6.251   7.099   6.913  0.3405  0.6049 -0.6842
   63MOL   C31428958   6.414   7.078   7.145  0.5554 -0.1382 -0.0828
   63MOL   C31528959   6.511   7.059   7.243  0.0616  0.4290  0.4229
   63MOL   H31628960   7.064   7.198   7.339  2.9944 -0.5586 -0.3942
   63MOL   H31728961   7.014   7.042   7.395  1.4808  0.5011 -1.3654
   63MOL   H31828962   6.930   7.316   7.515  0.7057  0.6569 -0.5683
   63MOL   H31928963   6.871   7.148   7.563 -0.9302 -2.1718 -2.4096
   63MOL   H32028964   6.685   7.349   7.203 -1.4618  2.2149 -1.2468
   63MOL   H32128965   6.501   7.386   7.040  1.5170 -2.0657 -2.2949
   63MOL   H32228966   6.346   6.997   7.122  1.9801 -1.4606  0.2896
   63MOL   H32328967   6.511   6.964   7.294 -0.0569 -1.4451 -2.9020
   63MOL   O32428968   6.138   7.114   6.809 -0.1599 -0.4220  0.1433
   63MOL   C32528969   6.205   7.098   6.683  0.2235 -0.7438  0.8605
   63MOL   C32628970   6.177   6.953   6.637  0.1850  0.1668  0.1300
   63MOL   O32728971   6.240   6.933   6.510 -0.0974 -0.0302 -0.0665
   63MOL   C32828972   6.375   6.903   6.499  0.0417 -0.0588  0.0250
   63MOL   O32928973   6.450   6.893   6.601 -0.6666  0.0810 -1.0855
   63MOL   C33028974   6.420   6.897   6.353  0.4223 -0.5921 -0.2633
   63MOL   C33128975   6.339   6.936   6.244 -0.4588 -0.2756 -0.9035
   63MOL   C33228976   6.385   6.937   6.109 -0.2881 -0.0566 -0.5843
   63MOL   C33328977   6.510   6.881   6.081 -0.0315  0.2708  0.5694
   63MOL   C33428978   6.560   6.898   5.944 -0.2892  0.1800  0.2516
   63MOL   O33528979   6.659   6.833   5.903 -0.3026  0.0956 -0.6500
   63MOL   O33628980   6.492   6.987   5.870 -0.4307  0.7791 -0.1672
   63MOL   C33728981   6.589   6.830   6.186 -0.0646 -0.7365  0.1897
   63MOL   C33828982   6.543   6.840   6.323  0.4548 -0.1767  0.1634
   63MOL   H33928983   6.168   7.178   6.618  2.0211  1.6421  2.6727
   63MOL   H34028984   6.309   7.129   6.677 -0.4158  1.2565 -0.5542
   63MOL   H34128985   6.076   6.914   6.638  1.5715 -3.5941  0.3722
   63MOL   H34228986   6.234   6.895   6.710  1.8187  2.3407  0.6465
   63MOL   H34328987   6.239   6.971   6.267 -0.2601 -1.1064  1.3203
   63MOL   H34428988   6.316   6.972   6.033 -1.2580  0.6574  0.5886
   63MOL   H34528989   6.683   6.788   6.154 -0.1580  0.5754 -1.9740
   63MOL   H34628990   6.614   6.800   6.394  2.0667  0.8483 -0.8602
   63MOL   O34728991   6.569   7.046   5.762  0.1032  0.9650  0.5957
   63MOL   C34828992   6.571   7.186   5.781 -0.3336  0.3172 -0.2011
   63MOL   C34928993   6.645   7.255   5.668  0.1895 -0.2828  0.2591
   63MOL   O35028994   6.646   7.395   5.681  0.5376  0.0383  0.4236
   63MOL   C35128995   6.699   7.464   5.788  0.1884  0.1965  0.0109
   63MOL   O35228996   6.761   7.407   5.879 -0.2583  0.2143  0.4765
   63MOL   C35328997   6.654   7.609   5.794  0.0027  0.7922  0.4902
   63MOL   C35428998   6.596   7.666   5.681  0.3399 -0.0788 -0.3061
   63MOL   C35528999   6.538   7.792   5.681 -0.0777 -0.4496 -0.8464
   63MOL   C35629000   6.541   7.868   5.804  0.1725 -0.4691  0.0579
   63MOL   C35729001   6.482   8.003   5.809 -0.6622 -0.1284 -0.4624
   63MOL   O35829002   6.486   8.075   5.904 -0.1774  0.4612  0.1226
   63MOL   O35929003   6.424   8.037   5.697 -0.0223 -0.0649 -0.4494
   63MOL   C36029004   6.617   7.817   5.911  0.1743  0.0629 -0.2769
   63MOL   C36129005   6.674   7.687   5.907 -0.5219  0.5118  0.3221
   63MOL   H36229006   6.476   7.237   5.798 -0.8448 -0.5745 -0.3950
   63MOL   H36329007   6.626   7.203   5.874 -3.2353  1.6453  1.3476
   63MOL   H36429008   6.600   7.239   5.570 -1.1137 -0.8203  0.9298
   63MOL   H36529009   6.748   7.222   5.661  0.8477  1.6799  0.4058
   63MOL   H36629010   6.599   7.608   5.590 -1.0533 -2.7194  1.2740
   63MOL   H36729011   6.490   7.835   5.595  0.1607  0.6078 -0.4612
   63MOL   H36829012   6.621   7.883   5.996  0.7454  0.1984 -0.4072
   63MOL   H36929013   6.725   7.638   5.988 -1.3133 -0.5474  0.1831
   63MOL   O37029014   6.331   8.149   5.722 -0.1568  0.3420 -0.1531
   63MOL   C37129015   6.204   8.097   5.770 -0.3556  0.0627 -0.3825
   63MOL   C37229016   6.126   8.032   5.649 -0.3845  0.2508 -0.7438
   63MOL   O37329017   6.107   8.116   5.536  0.2325 -0.1433 -0.8222
   63MOL   C37429018   5.986   8.160   5.501 -0.0258  0.1876 -0.4032
   63MOL   O37529019   5.879   8.137   5.560 -0.1849 -0.7753 -0.0032
   63MOL   C37629020   5.985   8.240   5.372 -0.0899  0.7057  0.0220
   63MOL   C37729021   6.108   0.025   5.329 -0.5633  0.0835 -0.8623
   63MOL   C37829022   6.111   0.079   5.201 -0.7405 -0.6929 -0.4211
   63MOL   C37929023   5.992   0.092   5.123  0.2962 -0.4949 -0.2273
   63MOL   C38029024   5.987   0.152   4.988  0.5448  0.4203 -0.0229
   63MOL   O38129025   5.883   0.154   4.923  0.1422 -0.0140  0.2444
   63MOL   O38229026   6.097   0.208   4.938 -0.1131 -0.1056 -0.4033
   63MOL   C38329027   5.871   0.044   5.178 -0.1452  0.2035  0.0161
   63MOL   C38429028   5.871   8.261   5.304 -0.7058  0.2372 -0.2220
   63MOL   H38529029   6.220   8.022   5.848 -1.7718 -1.4659 -1.5197
   63MOL   H38629030   6.158   8.179   5.825 -1.2366  0.0731 -1.1273
   63MOL   H38729031   6.026   8.007   5.686 -0.4213 -1.0909 -1.7170
   63MOL   H38829032   6.171   7.937   5.619 -0.6928  0.0974 -0.7302
   63MOL   H38929033   6.197   0.012   5.389 -2.3301  0.0330  1.8524
   63MOL   H39029034   6.207   0.112   5.163 -0.2288  0.1649  1.5603
   63MOL   H39129035   5.776   0.049   5.125 -0.0312  0.6836 -0.1507
   63MOL   H39229036   5.783   8.228   5.358 -1.8361  2.4550 -0.6410
   63MOL   O39329037   6.083   0.302   4.817 -0.2470  0.0251 -0.2907
   63MOL   C39429038   6.103   0.224   4.698  0.8248  0.9244 -0.1667
   63MOL   C39529039   6.146   0.296   4.572  0.5189 -0.3036 -0.4983
   63MOL   O39629040   6.287   0.327   4.605 -0.2008 -0.2717  0.4080
   63MOL   C39729041   6.326   0.457   4.600 -0.0193 -0.1428  0.2694
   63MOL   O39829042   6.262   0.547   4.540  0.1132  0.2957  0.0610
   63MOL   C39929043   6.450   0.477   4.679  0.4269 -0.4996 -0.7674
   63MOL   C40029044   6.504   0.382   4.772 -0.8290 -0.4672 -0.0105
   63MOL   C40129045   6.630   0.414   4.831 -1.3250 -0.1650  0.1422
   63MOL   C40229046   6.701   0.532   4.811 -0.1204 -0.1516 -0.2506
   63MOL   C40329047   6.838   0.555   4.863 -0.5149  0.0180  0.6332
   63MOL   O40429048   6.906   0.644   4.813 -0.2682 -0.1468 -0.6775
   63MOL   O40529049   6.888   0.462   4.948  0.1523 -0.1944 -0.1087
   63MOL   C40629050   6.646   0.621   4.717 -0.4212 -0.3675  0.1952
   63MOL   C40729051   6.523   0.598   4.661 -0.1943  0.2983  0.0162
   63MOL   H40829052   6.180   0.150   4.718 -2.4571 -2.9711 -1.2358
   63MOL   H40929053   6.016   0.158   4.689  2.3822 -1.1439 -0.4130
   63MOL   H41029054   6.081   0.383   4.562 -0.4689 -0.8510  0.9021
   63MOL   H41129055   6.138   0.243   4.476  1.2039  0.0740 -0.7618
   63MOL   H41229056   6.455   0.289   4.796 -1.3816  0.3808  2.3000
   63MOL   H41329057   6.670   0.337   4.896  3.3734  1.6642 -0.4160
   63MOL   H41429058   6.683   0.721   4.700 -0.5244 -0.3424  0.1145
   63MOL   H41529059   6.476   0.677   4.604 -0.5463  0.5941  0.7122
   63MOL   O41629060   7.036   0.486   4.984 -0.6654 -0.0522 -0.1932
   63MOL   C41729061   7.107   0.398   4.892 -0.7231 -0.2448  0.1992
   63MOL   C41829062   7.253   0.355   4.933  0.6366 -0.0549 -0.6511
   63MOL   O41929063   7.244   0.278   5.054  0.5801 -0.7401  0.3277
   63MOL   C42029064   7.221   0.145   5.054 -0.1375 -0.5591 -0.3361
   63MOL   O42129065   7.208   0.074   4.952  0.0015 -0.9264  0.0372
   63MOL   C42229066   7.210   0.081   5.182  1.0271 -0.2625  0.4378
   63MOL   C42329067   7.194   8.215   5.189 -0.4141  0.3821  0.2141
   63MOL   C42429068   7.211   8.147   5.315  0.2264  0.5282  0.1829
   63MOL   C42529069   7.206   8.219   5.436  0.4483 -0.0774  0.3363
   63MOL   C42629070   7.203   8.147   5.562 -0.4491 -0.1854 -0.6489
   63MOL   O42729071   7.244   8.033   5.578  1.0378  0.2086  0.7749
   63MOL   O42829072   7.142   8.227   5.663 -0.5037  0.0813  0.0949
   63MOL   C42929073   7.202   0.082   5.431  0.1038  0.8114 -1.5607
   63MOL   C43029074   7.201   0.151   5.305 -0.7457  0.1629  0.4411
   63MOL   H43129075   7.049   0.306   4.879  1.8558 -1.6842 -1.3458
   63MOL   H43229076   7.109   0.432   4.789 -1.9431  1.7845  0.8250
   63MOL   H43329077   7.318   0.440   4.953 -0.0197 -0.1003  1.8802
   63MOL   H43429078   7.301   0.301   4.851  0.2317 -2.0886  0.4105
   63MOL   H43529079   7.202   8.158   5.098 -0.7614  2.4883 -1.1523
   63MOL   H43629080   7.213   8.039   5.316  1.3994  0.5477  0.4191
   63MOL   H43729081   7.187   0.137   5.523 -3.1476  0.8790 -2.0631
   63MOL   H43829082   7.202   0.258   5.292  0.6235  0.1645  0.4962
   63MOL   O43929083   7.136   8.156   5.789 -0.4373  0.4544 -0.5514
   63MOL   C44029084   7.216   8.217   5.890  0.7251  0.6215 -0.1845
   63MOL   C44129085   7.190   8.142   6.032  0.0823  0.2449  0.4567
   63MOL   O44229086   7.084   8.216   6.086 -0.1173 -0.4391 -0.2412
   63MOL   C44329087   6.952   8.175   6.080 -0.0135  0.2681 -0.2752
   63MOL   O44429088   6.924   8.062   6.043  0.7595  0.7507 -0.2592
   63MOL   C44529089   6.860   0.009   6.109  0.1775  0.1082 -0.5726
   63MOL   C44629090   6.901   0.124   6.179 -0.6639  0.3795  0.2039
   63MOL   C44729091   6.812   0.223   6.222 -0.2809  0.1727 -0.2299
   63MOL   C44829092   6.677   0.213   6.183  0.1339 -0.4553  0.5966
   63MOL   C44929093   6.579   0.320   6.209  0.1209  0.4499  0.2057
   63MOL   O45029094   6.468   0.324   6.152  0.7836  0.2910 -0.4337
   63MOL   O45129095   6.607   0.393   6.315  0.8440  0.6460 -0.2269
   63MOL   C45229096   6.636   0.092   6.117 -0.7999  0.0109  0.2076
   63MOL   C45329097   6.723   8.269   6.075 -0.4911  0.1397  0.3883
   63MOL   H45429098   7.317   8.200   5.853  0.9646 -0.8096  1.0432
   63MOL   H45529099   7.201   0.049   5.899 -1.1733  0.3567  0.1127
   63MOL   H45629100   7.274   8.145   6.101  0.2713 -2.0491  0.3577
   63MOL   H45729101   7.168   8.038   6.011 -1.5742  0.6661 -0.0081
   63MOL   H45829102   7.004   0.146   6.202 -0.1982  0.5939 -2.0183
   63MOL   H45929103   6.843   0.307   6.282  0.0507  1.0625 -1.6139
   63MOL   H46029104   6.529   0.080   6.108 -0.7555 -0.2525  0.0473
   63MOL   H46129105   6.687   8.185   6.017 -1.1357  0.4601  0.3186
   63MOL   H46229106   6.525   0.426   6.347  0.5829  0.1373 -0.3591
   64MOL     O129107   6.739   1.767   6.439  0.0315 -0.2573  0.7460
   64MOL     C229108   6.663   1.654   6.474  0.3808  0.3897 -0.3233
   64MOL     C329109   6.752   1.552   6.540 -0.3605  0.2950 -0.2185
   64MOL     O429110   6.669   1.433   6.552 -0.5801 -0.4714  0.4581
   64MOL     C529111   6.673   1.357   6.660  0.5923  0.2777 -0.1778
   64MOL     O629112   6.747   1.388   6.752  0.1687  0.1299  0.6080
   64MOL     C729113   6.589   1.230   6.660  0.3361 -0.1994  0.0633
   64MOL     C829114   6.501   1.209   6.554  0.0837 -0.2190  0.7348
   64MOL     C929115   6.422   1.090   6.563  0.1801  1.1542 -0.5902
   64MOL    C1029116   6.442   0.998   6.668 -0.2790 -0.2265  0.4632
   64MOL    C1129117   6.363   0.885   6.686 -0.0285  0.2309 -0.2545
   64MOL    O1229118   6.394   0.780   6.750 -0.7291 -0.4225 -0.3190
   64MOL    O1329119   6.247   0.889   6.629 -0.0290  0.3839 -0.0229
   64MOL    C1429120   6.541   1.012   6.764  0.1453 -0.0033  0.9263
   64MOL    C1529121   6.615   1.131   6.757  0.8093  0.4246 -0.0388
   64MOL    H1629122   6.572   1.674   6.529  1.3970 -0.8588  1.8577
   64MOL    H1729123   6.631   1.610   6.379 -0.8553  0.4625  0.0526
   64MOL    H1829124   6.789   1.591   6.634  0.0627 -1.9559  0.5731
   64MOL    H1929125   6.844   1.540   6.483 -0.7962  1.5338 -1.2229
   64MOL    H2029126   6.491   1.272   6.467  1.2483 -1.3665 -0.2395
   64MOL    H2129127   6.343   1.067   6.493 -0.0372 -0.6115  0.2233
   64MOL    H2229128   6.551   0.958   6.857  0.2010  0.5513  1.2406
   64MOL    H2329129   6.692   1.152   6.830 -0.5897 -0.7318  1.8351
   64MOL    H2429130   6.767   1.812   6.517 -0.1230  3.4891 -1.2141
   64MOL    O2529131   6.145   0.800   6.689 -0.1321 -0.0449  0.6093
   64MOL    C2629132   6.054   0.882   6.760 -0.0576  0.1326  0.0325
   64MOL    C2729133   6.101   0.905   6.909 -0.1277 -0.2155 -0.1851
   64MOL    O2829134   6.185   1.016   6.931  0.0076  0.1664 -0.3482
   64MOL    C2929135   6.254   1.015   7.052  0.2259 -1.3302  0.3186
   64MOL    O3029136   6.236   0.937   7.140  0.2991 -0.1637  0.0493
   64MOL    C3129137   6.350   1.129   7.069 -0.3678  0.0659  1.2268
   64MOL    C3229138   6.368   1.228   6.960 -0.5465 -0.5420 -0.2974
   64MOL    C3329139   6.452   1.341   6.979 -0.8273  0.3007 -0.0565
   64MOL    C3429140   6.521   1.361   7.098  0.6366  0.2199 -0.2123
   64MOL    C3529141   6.621   1.472   7.115  0.3223  0.3894 -0.7822
   64MOL    O3629142   6.700   1.477   7.209 -0.2572 -0.3122  0.0372
   64MOL    O3729143   6.629   1.557   7.008 -0.5099 -0.4472 -0.2393
   64MOL    C3829144   6.496   1.270   7.205  0.1867  0.8785  0.0024
   64MOL    C3929145   6.409   1.154   7.193 -0.2221  0.1108 -0.1577
   64MOL    H4029146   6.049   0.978   6.707 -1.3424 -0.9583 -1.8928
   64MOL    H4129147   5.954   0.838   6.766 -0.6634  1.0331 -2.6022
   64MOL    H4229148   6.146   0.812   6.943 -1.0011 -0.8684 -0.7861
   64MOL    H4329149   6.010   0.925   6.965  0.2795 -0.3995  0.5467
   64MOL    H4429150   6.322   1.212   6.864 -1.2750 -1.7994  0.2415
   64MOL    H4529151   6.470   1.409   6.898  2.7083  0.4690  0.7916
   64MOL    H4629152   6.551   1.297   7.294 -0.0769 -1.1646  0.8139
   64MOL    H4729153   6.392   1.106   7.288  4.0818  0.7943  1.0674
   64MOL    O4829154   6.735   1.662   7.029 -0.6353 -0.2997 -0.1977
   64MOL    C4929155   6.823   1.647   6.923 -0.0761 -0.0734 -0.5195
   64MOL    C5029156   6.920   1.764   6.931 -0.6692 -0.4747  0.5631
   64MOL    O5129157   6.863   1.889   6.893 -0.6780 -0.4476 -0.6532
   64MOL    C5229158   6.825   1.928   6.774 -0.1938 -0.1275 -0.1866
   64MOL    O5329159   6.839   1.852   6.679  0.7097 -0.1724  0.1938
   64MOL    C5429160   6.786   2.065   6.761 -0.7642  0.4335 -0.5417
   64MOL    C5529161   6.771   2.119   6.632  0.4769  0.3249 -0.0507
   64MOL    C5629162   6.737   2.251   6.617  0.2140 -0.2605  0.5980
   64MOL    C5729163   6.722   2.342   6.727 -0.4442 -0.2918 -0.0403
   64MOL    C5829164   6.687   2.483   6.710  0.5826  0.1852  0.3112
   64MOL    O5929165   6.704   2.540   6.600 -0.3024 -0.8014  0.3827
   64MOL    O6029166   6.629   2.531   6.818 -0.5931  0.5781 -0.4051
   64MOL    C6129167   6.739   2.286   6.860  0.8684 -0.4351  0.0441
   64MOL    C6229168   6.767   2.150   6.874  0.8755  0.3806 -0.4175
   64MOL    H6329169   6.872   1.550   6.931  0.2683  0.2899  2.0694
   64MOL    H6429170   6.768   1.638   6.829 -1.6823  0.4821  0.3541
   64MOL    H6529171   7.011   1.749   6.872 -0.9157  0.3978 -0.0459
   64MOL    H6629172   6.958   1.756   7.033  0.8675  2.0367  0.2283
   64MOL    H6729173   6.782   2.055   6.546  0.8438  0.9940 -0.5044
   64MOL    H6829174   6.732   2.294   6.518  0.1273 -1.3075  0.1476
   64MOL    H6929175   6.725   2.356   6.941 -0.5167 -1.1614  0.4319
   64MOL    H7029176   6.776   2.112   6.974 -1.6984  1.7199  0.3686
   64MOL    O7129177   6.586   2.679   6.800  0.3839  0.5607  1.0362
   64MOL    C7229178   6.457   2.683   6.746 -0.2855  0.0903  0.3880
   64MOL    C7329179   6.428   2.813   6.667  0.6058 -0.0489 -0.4277
   64MOL    O7429180   6.529   2.850   6.578  0.2257  0.0222  0.3140
   64MOL    C7529181   6.548   2.782   6.467  0.0986  0.2447 -0.3712
   64MOL    O7629182   6.462   2.706   6.421 -0.2125  0.4370  0.3994
   64MOL    C7729183   6.672   2.807   6.393 -0.1557 -0.3344 -0.0684
   64MOL    C7829184   6.673   2.780   6.256 -0.7685  0.9018  0.0833
   64MOL    C7929185   6.795   2.805   6.186 -0.0185 -0.1994 -0.2502
   64MOL    C8029186   6.912   2.852   6.247 -0.3581  0.0143 -0.1327
   64MOL    C8129187   7.037   2.869   6.168  0.0617  0.4902  0.0051
   64MOL    O8229188   7.035   2.841   6.048 -0.0968  0.3691  0.4360
   64MOL    O8329189   7.143   2.907   6.240 -0.3166 -0.6031 -0.2105
   64MOL    C8429190   6.911   2.888   6.380  0.4701  0.5249  0.7983
   64MOL    C8529191   6.791   2.858   6.451 -0.0044  0.2797  0.1960
   64MOL    H8629192   6.441   2.601   6.677 -1.7903  0.6973  0.0127
   64MOL    H8729193   6.393   2.658   6.831  1.3669 -1.0461  1.3397
   64MOL    H8829194   6.410   2.898   6.733 -2.2824 -1.8564  1.2313
   64MOL    H8929195   6.330   2.808   6.620 -0.2422 -0.8235  1.3627
   64MOL    H9029196   6.592   2.726   6.210  0.1408  1.0518 -1.7464
   64MOL    H9129197   6.801   2.791   6.079  1.5073 -1.4519 -0.0134
   64MOL    H9229198   6.995   2.933   6.432  0.5416 -0.2187  1.3348
   64MOL    H9329199   6.783   2.887   6.554 -1.6133  1.8385 -0.3296
   64MOL    O9429200   7.261   2.944   6.154 -0.8105  0.0460 -0.2745
   64MOL    C9529201   7.254   3.087   6.127 -0.0909  0.3178  0.0102
   64MOL    C9629202   7.287   3.171   6.247  0.0115  0.6111  0.0758
   64MOL    O9729203   7.172   3.221   6.318 -0.3854  0.5310 -0.1943
   64MOL    C9829204   7.149   3.180   6.440 -0.9123 -0.7448  0.2220
   64MOL    O9929205   7.227   3.111   6.509  0.8915  0.2410 -0.2907
   64MOL   C10029206   7.003   3.204   6.467 -0.1098 -0.0024 -0.3975
   64MOL   C10129207   6.970   3.166   6.601  0.5805  0.1110 -0.0502
   64MOL   C10229208   6.830   3.177   6.640  0.4103  0.0709  1.0382
   64MOL   C10329209   6.738   3.230   6.551 -0.1224  0.1068  0.0914
   64MOL   C10429210   6.594   3.246   6.599 -0.2574  0.0572  0.4754
   64MOL   O10529211   6.508   3.314   6.543  0.0677 -0.4594 -0.5242
   64MOL   O10629212   6.556   3.176   6.709  0.0723  0.7348  0.2365
   64MOL   C10729213   6.774   3.277   6.426 -0.0371  0.8043  0.4539
   64MOL   C10829214   6.907   3.265   6.382 -0.0589 -0.0145 -0.3113
   64MOL   H10929215   7.329   3.114   6.052  0.4218 -1.8742 -0.3088
   64MOL   H11029216   7.161   3.119   6.081 -0.3321 -1.6407 -0.8971
   64MOL   H11129217   7.350   3.248   6.203  2.0186 -1.6197 -1.1223
   64MOL   H11229218   7.361   3.119   6.308 -0.0018  0.4949 -0.0060
   64MOL   H11329219   7.041   3.130   6.674 -0.5188 -1.3655  0.3228
   64MOL   H11429220   6.796   3.157   6.741 -0.1583  1.9291  1.2549
   64MOL   H11529221   6.700   3.341   6.381 -1.3433 -0.5139  0.7053
   64MOL   H11629222   6.930   3.303   6.283  0.7236 -0.7378 -0.4161
   64MOL   O11729223   6.417   3.196   6.752  0.7304 -0.6456  0.6408
   64MOL   C11829224   6.419   3.291   6.853  0.2433  0.2143  0.2825
   64MOL   C11929225   6.275   3.306   6.920  0.4667 -0.5889 -0.2331
   64MOL   O12029226   6.264   3.444   6.949 -0.5014 -0.2787 -0.2803
   64MOL   C12129227   6.253   3.500   7.067  0.2123 -0.0293 -0.2385
   64MOL   O12229228   6.255   3.441   7.175  0.4751 -0.0385 -0.4191
   64MOL   C12329229   6.247   3.650   7.057  0.1935  0.2475 -0.8987
   64MOL   C12429230   6.206   3.723   7.168 -0.0011 -0.5264  0.4421
   64MOL   C12529231   6.219   3.859   7.169 -0.3732  0.0114  0.1700
   64MOL   C12629232   6.273   3.932   7.064  0.0809 -1.1955 -0.3211
   64MOL   C12729233   6.299   4.078   7.073  0.4260  0.0996 -0.3415
   64MOL   O12829234   6.358   4.141   6.990 -0.2064 -0.1949  0.3084
   64MOL   O12929235   6.242   4.140   7.186 -0.1270  0.4596  0.0802
   64MOL   C13029236   6.312   3.863   6.952 -0.6995 -0.0325  0.0502
   64MOL   C13129237   6.295   3.728   6.943 -0.5493  0.5863 -0.0348
   64MOL   H13229238   6.479   3.248   6.934 -1.4286 -1.9808  0.3970
   64MOL   H13329239   6.457   3.389   6.824 -0.3715  0.0511 -1.1034
   64MOL   H13429240   6.262   3.239   7.004 -1.7304  1.2817  0.9945
   64MOL   H13529241   6.199   3.281   6.846 -2.8418 -0.3170  2.9310
   64MOL   H13629242   6.168   3.674   7.256  0.7967  1.9502  2.2180
   64MOL   H13729243   6.185   3.907   7.260  2.4297  0.1830  1.1607
   64MOL   H13829244   6.353   3.912   6.865  1.6235 -1.3411  0.3644
   64MOL   H13929245   6.318   3.668   6.857  3.7186  1.7838  0.1782
   64MOL   O14029246   6.276   4.288   7.185 -0.5006  0.0221 -0.1325
   64MOL   C14129247   6.155   4.362   7.156  0.6528  1.0733  0.3722
   64MOL   C14229248   6.048   4.344   7.265 -0.3313  0.2555  0.3187
   64MOL   O14329249   5.987   4.212   7.267 -0.3561  0.2622  0.0725
   64MOL   C14429250   5.869   4.180   7.207 -0.4342  0.1934 -0.8137
   64MOL   O14529251   5.801   4.257   7.142 -0.4228  0.7178 -0.2078
   64MOL   C14629252   5.825   4.039   7.234 -0.5115  0.6270 -0.0619
   64MOL   C14729253   5.886   3.961   7.338  0.3477  0.3196 -0.4921
   64MOL   C14829254   5.831   3.833   7.375  0.1890 -0.1866  0.6863
   64MOL   C14929255   5.731   3.777   7.294 -0.2789  0.1351  0.0081
   64MOL   C15029256   5.674   3.641   7.328  0.4750  0.5445 -0.0731
   64MOL   O15129257   5.722   3.568   7.419  0.2402 -0.2099 -0.3874
   64MOL   O15229258   5.580   3.600   7.238  0.0263 -0.4982 -0.0177
   64MOL   C15329259   5.675   3.851   7.188  0.7128  0.6610 -0.4622
   64MOL   C15429260   5.723   3.980   7.161 -0.2496  0.5477 -0.0586
   64MOL   H15529261   6.192   4.465   7.164  0.7374  1.2283 -1.5957
   64MOL   H15629262   6.114   4.341   7.057  0.6143 -0.1889  0.6476
   64MOL   H15729263   5.984   4.431   7.254 -0.5368  0.0519 -0.0998
   64MOL   H15829264   6.095   4.357   7.362 -1.5293  0.2276  0.9011
   64MOL   H15929265   5.967   4.000   7.397  1.2179 -0.5835 -1.0763
   64MOL   H16029266   5.869   3.778   7.460 -1.9457 -0.0220  1.7799
   64MOL   H16129267   5.605   3.812   7.116 -0.5669  2.4593 -0.2193
   64MOL   H16229268   5.690   4.038   7.076  1.9632 -0.7039 -1.8359
   64MOL   O16329269   5.551   3.447   7.242 -0.2423 -0.0899 -0.3298
   64MOL   C16429270   5.642   3.382   7.152  0.4428 -0.2729  0.5382
   64MOL   C16529271   5.591   3.399   7.007 -0.2316  0.5219 -0.1047
   64MOL   O16629272   5.580   3.534   6.957 -0.8615 -0.2147 -0.0493
   64MOL   C16729273   5.454   3.581   6.934  0.1360  0.2008 -0.4733
   64MOL   O16829274   5.352   3.521   6.964  0.0461  0.4188 -0.1068
   64MOL   C16929275   5.457   3.719   6.883  0.4425 -0.4247 -1.0492
   64MOL   C17029276   5.333   3.786   6.886  0.2357 -0.0813  0.0116
   64MOL   C17129277   5.330   3.923   6.858 -0.7019 -0.1025 -0.4700
   64MOL   C17229278   5.448   3.999   6.822 -0.0382  0.3722  0.0279
   64MOL   C17329279   5.438   4.144   6.775  0.6900 -0.0679  0.2353
   64MOL   O17429280   5.342   4.217   6.800  0.1286  0.3207  0.0823
   64MOL   O17529281   5.552   4.192   6.714  0.7807 -0.0977 -0.1497
   64MOL   C17629282   5.572   3.926   6.812  0.3003 -0.4778  0.3327
   64MOL   C17729283   5.576   3.793   6.844 -0.0218 -0.4064  0.1281
   64MOL   H17829284   5.749   3.403   7.161  0.3864  0.7809 -0.9379
   64MOL   H17929285   5.646   3.274   7.168  2.1449 -0.1732  0.8901
   64MOL   H18029286   5.502   3.336   7.002 -0.5600  1.0401 -0.8590
   64MOL   H18129287   5.665   3.350   6.945  0.7523 -0.1143  1.5630
   64MOL   H18229288   5.242   3.729   6.902 -1.6223  2.5169 -0.9418
   64MOL   H18329289   5.236   3.970   6.885 -1.1097 -1.1814  0.0013
   64MOL   H18429290   5.663   3.969   6.772 -0.9309  0.3087 -1.7178
   64MOL   H18529291   5.671   3.743   6.850  0.5360  0.8189  1.5751
   64MOL   O18629292   5.534   4.335   6.661  0.3941  0.2010 -0.5924
   64MOL   C18729293   5.575   4.426   6.760  0.4785 -0.0185  0.6108
   64MOL   C18829294   5.595   4.569   6.697  0.3409 -0.2089 -0.0455
   64MOL   O18929295   5.472   4.636   6.687  0.4756 -0.2238  0.0559
   64MOL   C19029296   5.436   4.752   6.753 -0.3275  0.7705 -0.6106
   64MOL   O19129297   5.493   4.783   6.856 -0.2281  0.3472  0.6901
   64MOL   C19229298   5.313   4.826   6.705  0.1080  0.0628 -0.4810
   64MOL   C19329299   5.273   4.940   6.785  0.1601 -0.6175 -0.0367
   64MOL   C19429300   5.162   5.013   6.752 -0.3602  0.5180 -0.0406
   64MOL   C19529301   5.090   4.988   6.634  0.6476  0.2632 -0.0227
   64MOL   C19629302   4.960   5.070   6.604  1.1820 -0.6089 -0.2026
   64MOL   O19729303   4.937   5.190   6.637 -0.0042 -0.2391 -0.0436
   64MOL   O19829304   4.865   4.995   6.543  0.0695 -0.1378 -0.3919
   64MOL   C19929305   5.128   4.877   6.556 -0.3387 -0.0734 -0.4939
   64MOL   C20029306   5.238   4.797   6.584  0.1730 -0.6305  0.0401
   64MOL   H20129307   5.509   4.431   6.847 -1.0472 -0.1238 -0.5087
   64MOL   H20229308   5.674   4.399   6.797 -0.7376 -3.6521  1.4578
   64MOL   H20329309   5.639   4.569   6.597 -1.3529  1.0598 -0.8090
   64MOL   H20429310   5.645   4.635   6.769 -1.4563 -0.5859  1.5549
   64MOL   H20529311   5.323   4.971   6.876  0.5682  1.5100 -0.9654
   64MOL   H20629312   5.126   5.096   6.810 -0.5492  0.2378  0.2398
   64MOL   H20729313   5.069   4.856   6.468  1.5493 -0.9586 -1.5636
   64MOL   H20829314   5.259   4.714   6.518 -0.6652  0.8067 -2.0785
   64MOL   O20929315   4.722   5.033   6.569  0.0034  0.3796  0.0316
   64MOL   C21029316   4.686   4.970   6.694 -0.0957  0.2584 -0.0428
   64MOL   C21129317   4.532   4.978   6.711 -1.0740  0.4382  0.4748
   64MOL   O21229318   4.494   5.106   6.761 -0.1370 -0.2007 -0.1841
   64MOL   C21329319   4.472   5.211   6.681 -0.4689  0.1157 -0.5281
   64MOL   O21429320   4.461   5.196   6.558 -0.4539  0.0430 -0.6553
   64MOL   C21529321   4.451   5.342   6.748  0.1822  0.1698 -0.3147
   64MOL   C21629322   4.406   5.444   6.663  0.3379 -0.0690  0.3030
   64MOL   C21729323   4.370   5.569   6.717  0.9536 -0.1593 -1.1280
   64MOL   C21829324   4.381   5.597   6.855 -0.2310 -0.2252 -0.3139
   64MOL   C21929325   4.360   5.736   6.904  0.3998 -0.5081  0.3712
   64MOL   O22029326   4.304   5.821   6.836 -1.1978 -0.1108  0.3131
   64MOL   O22129327   4.407   5.743   7.037  0.0301  0.5036 -0.0644
   64MOL   C22229328   4.415   5.491   6.943 -0.0804 -0.1336 -0.2286
   64MOL   C22329329   4.464   5.370   6.887 -0.1329 -0.4474 -0.1515
   64MOL   H22429330   4.714   4.865   6.688 -1.1403  0.1236 -4.0285
   64MOL   H22529331   4.733   5.027   6.774  0.8486 -2.8532  1.7426
   64MOL   H22629332   4.490   4.902   6.777 -0.9083  0.3234  0.4490
   64MOL   H22729333   4.485   4.957   6.614  1.9678 -0.9419 -0.7546
   64MOL   H22829334   4.401   5.425   6.557 -1.8554 -1.9940  0.7218
   64MOL   H22929335   4.329   5.645   6.652 -0.0048  0.2146 -0.0978
   64MOL   H23029336   4.424   5.509   7.049 -1.0338  1.9093 -0.4623
   64MOL   H23129337   4.477   5.291   6.958  1.0958  0.9259  1.1785
   64MOL   O23229338   4.383   5.870   7.103 -0.1922 -0.0900  0.4239
   64MOL   C23329339   4.267   5.857   7.184  0.1658  0.3271 -0.8373
   64MOL   C23429340   4.239   5.989   7.257  0.8720  0.1018 -0.2180
   64MOL   O23529341   4.215   5.974   7.394 -0.0973 -0.3510  0.3168
   64MOL   C23629342   4.312   5.954   7.494 -0.1945 -0.1028  0.6677
   64MOL   O23729343   4.433   5.944   7.471 -0.7104  0.4888 -0.1223
   64MOL   C23829344   4.261   5.969   7.630  0.2182  0.0816  0.0990
   64MOL   C23929345   4.331   5.914   7.738  0.7988 -0.1269  0.7918
   64MOL   C24029346   4.288   5.926   7.869 -0.1247  0.3553  0.8014
   64MOL   C24129347   4.163   5.987   7.899  0.0128  0.2573 -0.1072
   64MOL   C24229348   4.103   5.997   8.034  0.1690 -0.1428  0.1403
   64MOL   O24329349   3.994   6.047   8.058  0.4623  0.2353  0.5918
   64MOL   O24429350   4.184   5.951   8.131 -0.5486 -0.1413  0.3737
   64MOL   C24529351   4.093   6.048   7.785  0.4266 -0.2488  0.1799
   64MOL   C24629352   4.143   6.041   7.655 -0.3731  0.2714 -0.3600
   64MOL   H24729353   4.182   5.799   7.146  0.6225 -0.6030 -0.4550
   64MOL   H24829354   4.296   5.783   7.258 -0.7596  1.0597  0.2730
   64MOL   H24929355   4.157   6.039   7.207  1.7197  1.2625 -0.4714
   64MOL   H25029356   4.319   6.061   7.240 -1.3739  2.0966 -2.7445
   64MOL   H25129357   4.428   5.870   7.720  0.2913 -0.5272 -1.0140
   64MOL   H25229358   4.353   5.895   7.949  2.0043 -1.6991 -1.6008
   64MOL   H25329359   4.000   6.101   7.799 -0.9589 -2.6669  0.4158
   64MOL   H25429360   4.095   6.088   7.570  1.5619  0.2235 -1.4948
   64MOL   O25529361   4.124   5.983   8.266  0.4475 -0.0087  0.6193
   64MOL   C25629362   4.058   5.862   0.038 -0.4866  0.0172  0.3675
   64MOL   C25729363   3.939   5.892   0.137 -0.2954 -0.2473 -0.3011
   64MOL   O25829364   3.998   5.953   0.252 -0.0830 -0.0478 -0.3750
   64MOL   C25929365   3.935   6.044   0.322  0.9324 -0.0414  0.1151
   64MOL   O26029366   3.816   6.077   0.295  0.2741 -0.0069 -0.4947
   64MOL   C26129367   4.015   6.108   0.431  0.4716 -0.1484 -0.2035
   64MOL   C26229368   3.947   6.210   0.514  0.1422  0.7171  0.1094
   64MOL   C26329369   4.029   6.289   0.604 -0.1249  0.1744  0.3091
   64MOL   C26429370   4.169   6.250   0.626  0.7931  0.4065 -0.6127
   64MOL   C26529371   4.248   6.331   0.727  0.2792 -1.3060  0.2081
   64MOL   O26629372   4.194   6.416   0.796 -0.9105  0.9276  0.1433
   64MOL   O26729373   4.381   6.296   0.731  0.0377  0.1180  0.2921
   64MOL   C26829374   4.231   6.157   0.543 -0.5384  0.1369  0.2248
   64MOL   C26929375   4.155   6.085   0.450 -0.6625  0.7412 -0.1628
   64MOL   H27029376   4.022   5.812   8.224 -0.4318  0.9471 -0.1812
   64MOL   H27129377   4.117   5.787   0.091 -0.2820 -1.0602 -1.3594
   64MOL   H27229378   3.885   5.804   0.172  0.5169 -0.3422  0.7414
   64MOL   H27329379   3.871   5.961   0.087 -1.0586 -0.9569 -0.2456
   64MOL   H27429380   3.841   6.231   0.511 -0.0526 -0.2996 -0.1703
   64MOL   H27529381   3.986   6.358   0.674 -1.9477  0.9377 -1.5228
   64MOL   H27629382   4.337   6.135   0.544 -0.2778  1.3707  0.2034
   64MOL   H27729383   4.214   6.020   0.388 -1.5281  1.8186 -2.1910
   64MOL   O27829384   4.460   6.377   0.831  0.1254  0.2828  0.2489
   64MOL   C27929385   4.486   6.295   0.947 -0.7388  0.3485  0.1264
   64MOL   C28029386   4.520   6.396   1.055  0.4425 -0.3174  0.2675
   64MOL   O28129387   4.643   6.468   1.043  0.3810  0.4359  0.6703
   64MOL   C28229388   4.691   6.567   1.134  0.0251  0.3586  0.1956
   64MOL   O28329389   4.627   6.605   1.231 -0.3119  0.0664 -0.1590
   64MOL   C28429390   4.821   6.626   1.096  0.1092 -0.7250 -0.5417
   64MOL   C28529391   4.882   6.720   1.185  0.2881 -0.0895  0.6090
   64MOL   C28629392   4.995   6.792   1.137 -0.1207 -0.1184  0.4222
   64MOL   C28729393   5.058   6.764   1.017  0.4190 -0.8890  0.5466
   64MOL   C28829394   5.183   6.831   0.975 -0.4531  0.0493  0.2181
   64MOL   O28929395   5.219   6.841   0.856 -0.2240 -0.0092 -0.4173
   64MOL   O29029396   5.241   6.889   1.083  0.1620 -0.5181  0.1820
   64MOL   C29129397   5.001   6.662   0.938 -0.2328  0.2567 -0.3971
   64MOL   C29229398   4.884   6.603   0.971  0.4152  0.2938 -0.1708
   64MOL   H29329399   4.389   6.254   0.975 -1.1861  2.4178  1.6955
   64MOL   H29429400   4.555   6.212   0.932 -1.1900 -0.0395  0.1732
   64MOL   H29529401   4.542   6.335   1.143 -0.2384  0.3270  0.8914
   64MOL   H29629402   4.429   6.445   1.090  0.5978  0.4243 -0.3643
   64MOL   H29729403   4.830   6.737   1.278 -0.8066  0.5173 -0.0957
   64MOL   H29829404   5.029   6.875   1.196 -0.4637  0.2185  0.1438
   64MOL   H29929405   5.048   6.639   0.843 -0.9466  0.3169 -0.7704
   64MOL   H30029406   4.834   6.539   0.899 -1.8709  1.0091  0.7404
   64MOL   O30129407   5.352   6.987   1.057 -0.0939  0.1754  0.6848
   64MOL   C30229408   5.469   6.922   1.110 -0.8527  1.1113  0.5995
   64MOL   C30329409   5.485   6.925   1.262 -0.5231 -0.2486 -0.2846
   64MOL   O30429410   5.595   6.842   1.308 -0.0872  0.2340  0.0818
   64MOL   C30529411   5.722   6.884   1.295  0.7377 -0.4397  0.6648
   64MOL   O30629412   5.745   6.997   1.242  0.4505 -0.3820 -0.5849
   64MOL   C30729413   5.829   6.794   1.345  0.5124  0.1583  0.3910
   64MOL   C30829414   5.817   6.657   1.362 -0.1040  0.2943 -0.1131
   64MOL   C30929415   5.916   6.579   1.418 -0.0860 -0.2192  0.6064
   64MOL   C31029416   6.033   6.639   1.469  0.6216  0.5315  0.1037
   64MOL   C31129417   6.142   6.556   1.525  0.1228 -0.1659  0.3257
   64MOL   O31229418   6.148   6.441   1.495 -0.3877 -0.3537 -0.8978
   64MOL   O31329419   6.238   6.629   1.574 -0.2243  0.3038  0.5585
   64MOL   C31429420   6.055   6.777   1.441  0.4605  0.3744  0.1710
   64MOL   C31529421   5.949   6.854   1.382  0.1095 -0.1677 -0.5796
   64MOL   H31629422   5.477   6.819   1.075 -0.5571  1.9895 -2.0613
   64MOL   H31729423   5.560   6.970   1.073  0.4888 -0.6506  1.5810
   64MOL   H31829424   5.388   6.891   1.299 -1.7255  2.7703 -0.5558
   64MOL   H31929425   5.490   7.029   1.292 -0.4420 -0.7187  1.3900
   64MOL   H32029426   5.725   6.611   1.330 -1.7079  1.5777  2.4899
   64MOL   H32129427   5.901   6.473   1.434  1.1130 -0.2051  1.9360
   64MOL   H32229428   6.143   6.836   1.462 -0.3767  2.1098 -1.1022
   64MOL   H32329429   5.971   6.958   1.363  1.5264 -0.3113  0.2097
   64MOL   O32429430   6.370   6.571   1.558  0.5811  0.6189 -0.5025
   64MOL   C32529431   6.417   6.523   1.688  0.1902  0.1294  0.1698
   64MOL   C32629432   6.548   6.446   1.677 -0.1737  0.4552 -0.0012
   64MOL   O32729433   6.620   6.453   1.792  0.3428 -0.0046 -0.5954
   64MOL   C32829434   6.690   6.563   1.826  0.4301  0.1581 -0.3859
   64MOL   O32929435   6.698   6.670   1.763 -0.2953  0.3747  0.5440
   64MOL   C33029436   6.729   6.554   1.974  0.1437  0.2441  0.1553
   64MOL   C33129437   6.741   6.428   2.042  0.1551 -0.0168 -0.1609
   64MOL   C33229438   6.744   6.426   2.183  0.1870  0.1413 -0.0150
   64MOL   C33329439   6.759   6.546   2.252  0.2075 -0.8211 -0.6400
   64MOL   C33429440   6.765   6.540   2.407 -0.3257 -0.5317  0.1152
   64MOL   O33529441   6.760   6.435   2.473 -0.3272  0.1944  0.0969
   64MOL   O33629442   6.785   6.661   2.470 -0.1920 -0.0992  0.8109
   64MOL   C33729443   6.775   6.669   2.179 -0.3763 -0.1461 -0.6085
   64MOL   C33829444   6.751   6.675   2.045  0.1534  0.2649  0.4398
   64MOL   H33929445   6.417   6.605   1.759 -0.5091 -0.7605  1.2226
   64MOL   H34029446   6.334   6.466   1.730  1.1341 -0.8688  0.7036
   64MOL   H34129447   6.604   6.499   1.599 -0.5149  2.2692  0.9504
   64MOL   H34229448   6.529   6.345   1.641 -0.1435 -0.3576  2.1939
   64MOL   H34329449   6.720   6.338   1.987  0.5735 -0.5192  0.5037
   64MOL   H34429450   6.731   6.335   2.239  0.7283  1.0481  1.6227
   64MOL   H34529451   6.774   6.769   2.221 -3.1944 -0.7538  0.9002
   64MOL   H34629452   6.755   6.766   1.988  1.9010 -1.6855 -2.7277
   64MOL   O34729453   6.736   6.663   2.613 -0.2591  0.2832 -0.2564
   64MOL   C34829454   6.846   6.626   2.701  0.2152  0.2515 -0.0434
   64MOL   C34929455   6.771   6.641   2.841 -0.3007  0.7787  0.0777
   64MOL   O35029456   6.864   6.622   2.940  0.4973 -0.5429 -0.3033
   64MOL   C35129457   6.966   6.711   2.963 -0.6631 -1.2786 -0.1160
   64MOL   O35229458   6.986   6.817   2.906 -0.0880 -0.3206 -0.3676
   64MOL   C35329459   7.052   6.657   3.068  0.1816  0.1526 -0.0010
   64MOL   C35429460   7.173   6.723   3.103 -0.2013  0.8945  0.1231
   64MOL   C35529461   7.264   6.666   3.196  0.1332 -0.1136  0.3381
   64MOL   C35629462   7.227   6.544   3.262 -0.3466  0.1345  0.4343
   64MOL   C35729463   7.323   6.483   3.355 -0.4995 -0.0934 -0.5415
   64MOL   O35829464   7.287   6.423   3.455 -0.0001  0.1073 -0.3304
   64MOL   O35929465   7.448   6.497   3.314 -0.2729  0.4449  0.3365
   64MOL   C36029466   7.101   6.481   3.235 -0.0033 -0.1955  0.0447
   64MOL   C36129467   7.024   6.532   3.136  1.0863 -0.1705 -0.2205
   64MOL   H36229468   6.884   6.525   2.681  0.9175  0.2180  1.4034
   64MOL   H36329469   6.917   6.706   2.681 -1.0474  1.1557 -1.0184
   64MOL   H36429470   6.696   6.563   2.845 -1.8367  2.2798  1.2950
   64MOL   H36529471   6.723   6.737   2.857  0.0114  1.1063 -0.9103
   64MOL   H36629472   7.200   6.824   3.074  1.2608  0.0590 -1.5489
   64MOL   H36729473   7.359   6.713   3.218  0.7206 -1.9323  1.8274
   64MOL   H36829474   7.065   6.395   3.290  2.1296 -1.7968 -1.0129
   64MOL   H36929475   6.930   6.482   3.116  0.2880  1.1682  0.1093
   64MOL   O37029476   7.551   6.446   3.415 -0.0435  0.3067  0.2507
   64MOL   C37129477   7.607   6.552   3.491  0.2041  0.5111  0.8900
   64MOL   C37229478   7.519   6.612   3.601  0.0772 -0.6859 -0.0202
   64MOL   O37329479   7.502   6.747   3.592 -0.5024  0.0787 -0.4095
   64MOL   C37429480   7.397   6.806   3.638  0.5201  0.2158 -0.1578
   64MOL   O37529481   7.309   6.747   3.706  0.3894 -0.3650  0.4862
   64MOL   C37629482   7.387   6.946   3.597  0.5657 -1.1990 -0.3101
   64MOL   C37729483   7.278   7.031   3.633 -0.1697 -0.0279 -0.8971
   64MOL   C37829484   7.270   7.160   3.589 -0.3935  0.0308  0.1554
   64MOL   C37929485   7.366   7.217   3.500 -0.0278  0.3952  0.1059
   64MOL   C38029486   7.351   7.350   3.448  0.7218 -0.4687 -0.7496
   64MOL   O38129487   7.267   7.429   3.490  0.0234  0.3556 -0.1411
   64MOL   O38229488   7.428   7.378   3.344  0.0322 -0.2205  0.0803
   64MOL   C38329489   7.482   7.139   3.471  0.2140  0.2772 -0.4257
   64MOL   C38429490   7.490   7.007   3.523 -0.0767  0.1142 -0.4041
   64MOL   H38529491   7.694   6.518   3.548  1.9852  3.2901 -0.0666
   64MOL   H38629492   7.630   6.632   3.421 -2.3185  1.2205  0.8489
   64MOL   H38729493   7.555   6.578   3.698  1.4893 -0.4996 -0.4682
   64MOL   H38829494   7.426   6.555   3.595 -0.4036  0.0148  0.7399
   64MOL   H38929495   7.200   6.986   3.692  0.1372  2.7960  1.8011
   64MOL   H39029496   7.188   7.224   3.621 -2.4460 -2.4976  0.0905
   64MOL   H39129497   7.562   7.186   3.416 -0.4517  1.2169 -0.6146
   64MOL   H39229498   7.582   6.952   3.508 -0.8749 -1.7010  1.2010
   64MOL   O39329499   7.410   7.523   3.302 -0.6785 -0.5525  0.6402
   64MOL   C39429500   7.520   7.598   3.349  0.5349 -0.0261 -0.9253
   64MOL   C39529501   7.623   7.597   3.242 -0.3280 -0.2889  0.1584
   64MOL   O39629502   7.585   7.690   3.140  0.2917  0.7039  0.5908
   64MOL   C39729503   7.682   7.760   3.078  0.1200  0.2716 -0.2496
   64MOL   O39829504   7.804   7.737   3.081 -0.2952  0.2169  0.2932
   64MOL   C39929505   7.625   7.871   3.003  0.1652 -0.0698  0.6154
   64MOL   C40029506   7.713   7.955   2.931  0.3628  0.4501 -0.2808
   64MOL   C40129507   7.670   8.073   2.863 -0.5559  0.2669 -0.1138
   64MOL   C40229508   7.528   8.097   2.863 -0.5300  0.0513  0.3505
   64MOL   C40329509   7.476   8.225   2.798  0.0930 -0.1972 -0.0913
   64MOL   O40429510   7.549   0.032   2.730  0.5419  0.7271  0.0021
   64MOL   O40529511   7.347   8.248   2.809  0.3650 -0.4340 -0.2509
   64MOL   C40629512   7.438   8.011   2.928  0.0168  0.0024 -0.1114
   64MOL   C40729513   7.487   7.905   2.999  0.4185  0.4307 -0.0059
   64MOL   H40829514   7.487   7.700   3.366  0.9134  0.2085 -1.5713
   64MOL   H40929515   7.554   7.559   3.445  0.9862  1.0190 -0.6533
   64MOL   H41029516   7.629   7.495   3.202 -2.4939 -0.2080 -0.4494
   64MOL   H41129517   7.711   7.640   3.290 -1.8583  0.9947  1.8590
   64MOL   H41229518   7.820   7.936   2.932  0.7151  2.3832  0.0722
   64MOL   H41329519   7.749   8.138   2.827 -1.2827  0.9645 -0.4474
   64MOL   H41429520   7.332   8.031   2.928 -0.2380 -1.2243 -1.6011
   64MOL   H41529521   7.419   7.838   3.049  0.6765  0.0278 -0.1899
   64MOL   O41629522   7.299   0.123   2.809 -0.1169 -0.5359  0.2236
   64MOL   C41729523   7.260   0.166   2.938 -0.5029  0.5532  0.0843
   64MOL   C41829524   7.126   0.105   2.980 -0.4020 -0.7015 -0.2182
   64MOL   O41929525   7.151   0.005   3.074  0.2905 -0.4857 -0.0292
   64MOL   C42029526   7.041   8.226   3.140 -0.3018  0.2871  0.1456
   64MOL   O42129527   6.932   0.002   3.137 -0.4048  0.4170 -0.0782
   64MOL   C42229528   7.074   8.107   3.214 -0.5387 -0.0650 -0.2888
   64MOL   C42329529   7.205   8.077   3.253 -0.3772  0.1643  0.2310
   64MOL   C42429530   7.231   7.988   3.358  0.3852  0.6737  0.5579
   64MOL   C42529531   7.125   7.920   3.422  0.6164  0.0005  0.4780
   64MOL   C42629532   7.153   7.825   3.534  0.0077 -0.8401  0.1687
   64MOL   O42729533   7.265   7.798   3.578 -0.3808  0.2618  0.4467
   64MOL   O42829534   7.036   7.755   3.583 -0.0430  0.3066  0.3874
   64MOL   C42929535   6.995   7.941   3.369 -0.0278  0.5470  0.0454
   64MOL   C43029536   6.964   8.031   3.259 -0.4853  0.2383 -0.2674
   64MOL   H43129537   7.341   0.165   3.010  0.7336  0.5834 -1.2803
   64MOL   H43229538   7.244   0.273   2.927 -2.6013 -0.0232 -3.3936
   64MOL   H43329539   7.073   0.064   2.894  0.0655 -1.4398 -0.1566
   64MOL   H43429540   7.054   0.183   3.005  0.2919 -0.1505  0.0748
   64MOL   H43529541   7.287   8.126   3.203 -1.0489  3.9467  2.6771
   64MOL   H43629542   7.331   7.956   3.380  0.5665  0.4936 -0.5518
   64MOL   H43729543   6.915   7.877   3.403  0.1171  0.2662 -0.1424
   64MOL   H43829544   6.860   8.041   3.232  0.4260  1.4414 -3.6980
   64MOL   O43929545   7.039   7.714   3.725 -0.2619 -0.2336 -0.4102
   64MOL   C44029546   7.082   7.579   3.736  0.2424 -0.3330 -0.0390
   64MOL   C44129547   6.987   7.487   3.668 -0.1556 -0.0145 -0.1474
   64MOL   O44229548   6.989   7.362   3.735 -0.1054 -0.1618 -0.2144
   64MOL   C44329549   6.900   7.267   3.693 -0.2142  0.3117  0.3724
   64MOL   O44429550   6.831   7.285   3.595  0.5528 -0.1513 -0.2868
   64MOL   C44529551   6.886   7.143   3.774 -0.7797 -0.6765 -0.0431
   64MOL   C44629552   6.822   7.027   3.729 -0.1438 -0.3560  0.8970
   64MOL   C44729553   6.825   6.908   3.806  0.3800 -0.1553  0.2383
   64MOL   C44829554   6.895   6.908   3.923  0.2054  0.6394 -0.9789
   64MOL   C44929555   6.892   6.796   4.018 -0.3185  0.1821 -0.0435
   64MOL   O45029556   6.997   6.758   4.076 -0.1156 -0.2679 -0.2092
   64MOL   O45129557   6.774   6.727   4.027  0.2922 -0.0638 -0.3098
   64MOL   C45229558   6.958   7.025   3.974 -0.1400  0.3557 -0.2807
   64MOL   C45329559   6.957   7.144   3.900 -0.0399 -0.3821  0.1086
   64MOL   H45429560   7.187   7.569   3.706 -0.0022 -0.8225 -0.7356
   64MOL   H45529561   7.094   7.552   3.841  0.9643  1.9268  0.5017
   64MOL   H45629562   6.996   7.477   3.560  3.2210  1.7782 -0.1058
   64MOL   H45729563   6.885   7.521   3.681  0.6777  2.2151  0.7976
   64MOL   H45829564   6.768   7.025   3.636  0.5756  3.1288  0.3536
   64MOL   H45929565   6.769   6.820   3.777  1.9103 -0.3418 -2.3293
   64MOL   H46029566   7.005   7.026   4.072  2.4765 -1.3872 -1.4701
   64MOL   H46129567   7.007   7.229   3.944 -0.0409  0.0142 -0.6420
   64MOL   H46229568   6.795   6.658   4.089  0.8117  0.6334  0.3034
   65MOL     O129569   1.286   5.255   0.092  0.2284  0.2504 -0.1878
   65MOL     C229570   1.334   5.154   0.011 -0.3733  0.6389  0.3528
   65MOL     C329571   1.354   5.213   8.147  0.6364  0.4435  0.8587
   65MOL     O429572   1.445   5.138   8.068 -0.4481  0.5464  0.5154
   65MOL     C529573   1.407   5.025   8.018 -0.0862 -0.3463  0.2135
   65MOL     O629574   1.293   4.989   8.016 -0.2723 -0.4892 -0.2833
   65MOL     C729575   1.514   4.961   7.931 -0.2115  0.1291 -0.2844
   65MOL     C829576   1.476   4.849   7.855  0.5745 -0.3914  0.3732
   65MOL     C929577   1.555   4.796   7.756 -0.5695  0.0597  0.4953
   65MOL    C1029578   1.691   4.839   7.745 -0.0053  0.2653  0.2718
   65MOL    C1129579   1.779   4.779   7.639 -0.1813  0.2118  0.6054
   65MOL    O1229580   1.742   4.685   7.569  0.0927 -0.1894 -0.2483
   65MOL    O1329581   1.902   4.823   7.628  0.2854 -0.1157  0.3737
   65MOL    C1429582   1.734   4.945   7.827  0.3092  0.0633  0.0296
   65MOL    C1529583   1.645   5.006   7.921 -0.4429  0.1930  0.6899
   65MOL    H1629584   1.439   5.139   0.038  0.0074  1.2010 -0.7710
   65MOL    H1729585   1.268   5.068   0.020 -0.8859  0.8922 -0.8218
   65MOL    H1829586   1.404   5.309   8.146 -0.2790  0.9348 -1.2245
   65MOL    H1929587   1.255   5.216   8.100  0.9535 -1.6500 -0.0316
   65MOL    H2029588   1.376   4.819   7.881  0.5231  1.2948  2.2709
   65MOL    H2129589   1.522   4.716   7.692  1.9808  0.1844 -1.0682
   65MOL    H2229590   1.838   4.969   7.815  0.1452  0.3574 -0.8936
   65MOL    H2329591   1.674   5.085   7.989 -0.9145 -1.7026  3.1702
   65MOL    H2429592   1.341   5.330   0.105  0.7070 -0.3952  1.7330
   65MOL    O2529593   1.973   4.785   7.493 -0.1259  0.2356  0.6262
   65MOL    C2629594   2.059   4.671   7.510 -0.2431  0.2768 -0.7937
   65MOL    C2729595   2.141   4.651   7.378 -0.0538 -0.7998 -0.3766
   65MOL    O2829596   2.260   4.721   7.386  0.1423  0.0229  0.4186
   65MOL    C2929597   2.353   4.712   7.288  0.5599 -0.1963 -0.1577
   65MOL    O3029598   2.365   4.615   7.214 -0.0625  0.6640  0.1768
   65MOL    C3129599   2.444   4.826   7.280 -0.3936 -0.5457 -1.6911
   65MOL    C3229600   2.438   4.933   7.371 -0.6515  0.1902  0.6327
   65MOL    C3329601   2.519   5.047   7.348  0.2120  0.1341 -0.4621
   65MOL    C3429602   2.606   5.054   7.239 -0.0552 -0.2665  0.9222
   65MOL    C3529603   2.706   5.166   7.223 -0.0719 -0.6166 -0.4177
   65MOL    O3629604   2.806   5.162   7.156 -0.5073  0.2502  0.2500
   65MOL    O3729605   2.681   5.279   7.302 -0.5711  0.0700  0.3551
   65MOL    C3829606   2.622   4.940   7.163  0.4728  0.0705  1.0748
   65MOL    C3929607   2.531   4.832   7.177  0.3228 -0.4694  0.0243
   65MOL    H4029608   2.114   4.664   7.604 -2.1601  0.7870  0.3859
   65MOL    H4129609   1.995   4.583   7.519  1.7792 -1.1562  0.2070
   65MOL    H4229610   2.082   4.675   7.290 -1.5215  0.4267  0.8993
   65MOL    H4329611   2.170   4.547   7.367 -0.1346 -0.9941  1.0668
   65MOL    H4429612   2.370   4.932   7.455  0.8957  2.7072  1.9691
   65MOL    H4529613   2.502   5.118   7.427 -1.3256 -0.2388 -0.4484
   65MOL    H4629614   2.690   4.941   7.079 -2.1362 -2.4381 -1.1911
   65MOL    H4729615   2.530   4.755   7.101 -0.2925 -0.8946  0.4650
   65MOL    O4829616   2.776   5.392   7.276  1.2329 -0.3757 -0.0104
   65MOL    C4929617   2.701   5.496   7.207 -0.5794  0.3959 -0.2275
   65MOL    C5029618   2.669   5.447   7.062  0.4167  0.2148 -0.0314
   65MOL    O5129619   2.655   5.555   6.973  0.8115 -0.6078  0.5522
   65MOL    C5229620   2.533   5.624   6.974  0.5290 -0.1626 -0.6284
   65MOL    O5329621   2.439   5.590   7.045 -0.7121  0.1375  0.1355
   65MOL    C5429622   2.521   5.733   6.868  0.3545  0.0994 -0.4835
   65MOL    C5529623   2.414   5.821   6.865 -0.2590  0.2453 -0.7103
   65MOL    C5629624   2.404   5.928   6.772  0.2761  0.1968  0.4889
   65MOL    C5729625   2.500   5.934   6.667  0.7834  0.9609  0.4163
   65MOL    C5829626   2.493   6.054   6.580 -0.4775 -0.4088 -0.6510
   65MOL    O5929627   2.423   6.153   6.603  0.8834 -0.1999  0.0581
   65MOL    O6029628   2.567   6.028   6.470 -0.5754 -0.3004  0.6527
   65MOL    C6129629   2.599   5.835   6.658 -0.1665  0.2462 -0.0458
   65MOL    C6229630   2.612   5.737   6.756  0.3993  0.7099 -0.1213
   65MOL    H6329631   2.612   5.522   7.264 -1.3906 -0.8651 -0.8915
   65MOL    H6429632   2.769   5.580   7.191 -1.0290  0.6421 -0.8597
   65MOL    H6529633   2.577   5.390   7.052  0.4018  0.2359 -0.0188
   65MOL    H6629634   2.739   5.375   7.021 -1.3126 -0.1692 -2.3721
   65MOL    H6729635   2.337   5.814   6.940  0.4950 -3.9441 -0.2089
   65MOL    H6829636   2.326   6.000   6.788  1.5559  2.1853 -1.7996
   65MOL    H6929637   2.670   5.829   6.577 -0.3195 -1.5986 -0.0690
   65MOL    H7029638   2.698   5.672   6.752 -1.7545 -2.4360  2.0514
   65MOL    O7129639   2.607   6.151   6.387 -0.4119  0.3393  0.1182
   65MOL    C7229640   2.755   6.146   6.388  0.0316  0.2315  0.4391
   65MOL    C7329641   2.810   6.257   6.483  0.3787  0.0889 -0.7873
   65MOL    O7429642   2.835   6.214   6.617  0.4119  0.1463  0.5012
   65MOL    C7529643   2.791   6.289   6.716 -0.0925  0.3118  0.5969
   65MOL    O7629644   2.771   6.408   6.695  0.7189 -0.3242 -0.7452
   65MOL    C7729645   2.764   6.202   6.834  0.1042  0.3329  0.1214
   65MOL    C7829646   2.772   6.058   6.828 -0.5334 -0.1044 -0.1883
   65MOL    C7929647   2.736   5.986   6.942 -0.2895 -0.3316 -0.7585
   65MOL    C8029648   2.682   6.049   7.056  1.4315 -0.3767 -0.5963
   65MOL    C8129649   2.650   5.965   7.173  0.9081  0.0935 -0.2895
   65MOL    O8229650   2.662   5.839   7.176 -0.0248 -0.2808 -0.2309
   65MOL    O8329651   2.599   6.041   7.279  0.6136 -0.3553  0.0481
   65MOL    C8429652   2.672   6.189   7.059  0.7292  0.2915  0.3781
   65MOL    C8529653   2.726   6.266   6.953 -0.5661  0.6924 -0.2863
   65MOL    H8629654   2.806   6.053   6.410 -1.0697 -1.0879 -2.4755
   65MOL    H8729655   2.789   6.158   6.286  1.7020  0.3563  0.9968
   65MOL    H8829656   2.746   6.345   6.471 -0.0321 -0.1848 -0.6319
   65MOL    H8929657   2.907   6.278   6.438  0.4205  1.8041  0.0331
   65MOL    H9029658   2.808   6.002   6.743  3.4146  0.8899  0.7499
   65MOL    H9129659   2.751   5.879   6.945  1.4624 -0.0868  0.9138
   65MOL    H9229660   2.641   6.245   7.146  0.5689  0.0056  0.5024
   65MOL    H9329661   2.720   6.373   6.966 -2.0073  0.6542 -0.5143
   65MOL    O9429662   2.573   5.956   7.402 -0.0964  0.0059  0.1493
   65MOL    C9529663   2.661   6.006   7.503 -0.0349 -0.2670  0.7106
   65MOL    C9629664   2.630   6.157   7.533 -0.1250  0.0765 -0.1248
   65MOL    O9729665   2.736   6.228   7.594  0.5192 -0.1284  0.0962
   65MOL    C9829666   2.836   6.285   7.516  0.4419  0.4752  0.0123
   65MOL    O9929667   2.839   6.267   7.394  0.2460 -0.1898  0.0822
   65MOL   C10029668   2.951   6.334   7.594 -0.1497 -0.0101  0.2906
   65MOL   C10129669   2.948   6.355   7.733 -0.2461  0.1024  0.2767
   65MOL   C10229670   3.060   6.415   7.792 -0.4123 -0.2206  0.0445
   65MOL   C10329671   3.180   6.439   7.725 -0.1437 -0.6850  0.2601
   65MOL   C10429672   3.307   6.470   7.794  0.4053 -0.5655  0.0070
   65MOL   O10529673   3.408   6.492   7.734  0.6273  0.9183  0.1548
   65MOL   O10629674   3.293   6.487   7.934 -0.1151  0.1013 -0.5547
   65MOL   C10729675   3.179   6.427   7.581 -0.0819 -0.0787 -0.7657
   65MOL   C10829676   3.067   6.368   7.522 -0.2493  0.6090 -0.0067
   65MOL   H10929677   2.659   5.947   7.594  1.6948 -0.8066  0.4204
   65MOL   H11029678   2.766   5.990   7.477 -0.3505 -1.5339  0.1988
   65MOL   H11129679   2.544   6.157   7.599  0.0918 -1.1200  0.1716
   65MOL   H11229680   2.603   6.221   7.449 -1.4138  0.1497  0.3391
   65MOL   H11329681   2.853   6.339   7.783 -0.2030  0.5493  0.5052
   65MOL   H11429682   3.063   6.422   7.900  0.1741 -0.4394  0.0465
   65MOL   H11529683   3.261   6.454   7.517  0.2863  3.5106  1.0655
   65MOL   H11629684   3.064   6.346   7.416  0.1715  0.6626 -0.0277
   65MOL   O11729685   3.420   6.520   8.004  0.2819 -0.2234  0.0975
   65MOL   C11829686   3.418   6.654   8.047 -0.1822 -0.6656 -0.2353
   65MOL   C11929687   3.562   6.699   8.066 -0.5134  0.2492 -0.1878
   65MOL   O12029688   3.562   6.816   8.150 -0.1608 -0.2512 -0.5182
   65MOL   C12129689   3.672   6.885   8.164  0.4062 -0.4712  0.2984
   65MOL   O12229690   3.778   6.860   8.109  0.4208  0.7508 -0.0298
   65MOL   C12329691   3.658   6.993   8.270  0.7837  0.2706  0.0495
   65MOL   C12429692   3.774   7.054   0.056  0.0309 -0.2743  0.3538
   65MOL   C12529693   3.757   7.144   0.163 -0.1797  0.9729  0.3993
   65MOL   C12629694   3.631   7.192   0.199 -0.5745 -0.0350 -0.1758
   65MOL   C12729695   3.618   7.295   0.307  0.0245  0.1898  0.2832
   65MOL   O12829696   3.707   7.358   0.354 -0.0354  0.4118 -0.2994
   65MOL   O12929697   3.488   7.316   0.340  0.0600  0.1711  0.4314
   65MOL   C13029698   3.523   7.141   0.131 -0.5292  0.3455  1.0093
   65MOL   C13129699   3.534   7.041   0.035  0.7636  0.2193  0.4535
   65MOL   H13229700   3.382   6.714   7.963  0.1605  1.2939  1.0046
   65MOL   H13329701   3.364   6.670   8.140  2.8756 -1.8810  1.8236
   65MOL   H13429702   3.619   6.713   7.974 -1.2950  3.0342 -0.2920
   65MOL   H13529703   3.603   6.614   8.120  2.3496  0.6912 -1.5425
   65MOL   H13629704   3.873   7.015   0.033 -0.5801 -2.4575  1.2445
   65MOL   H13729705   3.846   7.182   0.211 -1.0743  2.7084  0.6984
   65MOL   H13829706   3.425   7.181   0.152 -1.8808 -1.4912 -1.5180
   65MOL   H13929707   3.446   7.015   8.254  1.1355  0.8165 -0.4102
   65MOL   O14029708   3.459   7.449   0.409 -0.4512  0.1139 -0.2675
   65MOL   C14129709   3.473   7.434   0.553 -0.5773 -0.0040  0.8263
   65MOL   C14229710   3.438   7.572   0.615  0.2703 -0.3905 -0.3088
   65MOL   O14329711   3.306   7.586   0.654 -0.1101 -0.3035  0.1451
   65MOL   C14429712   3.262   7.715   0.672 -0.5235  0.6375  0.2158
   65MOL   O14529713   3.328   7.816   0.648 -0.0586 -0.5418  0.6337
   65MOL   C14629714   3.120   7.719   0.714  0.2279 -0.5363  0.1253
   65MOL   C14729715   3.073   7.842   0.773 -0.2916 -0.3117 -0.3887
   65MOL   C14829716   2.942   7.851   0.814 -0.6202  0.0762 -0.3690
   65MOL   C14929717   2.855   7.744   0.802 -0.1791 -0.1769 -0.2454
   65MOL   C15029718   2.718   7.756   0.863  0.2485 -0.0801 -0.1111
   65MOL   O15129719   2.683   7.853   0.927  0.5926 -0.2630 -0.8304
   65MOL   O15229720   2.644   7.644   0.840 -0.3102 -0.3451 -0.6838
   65MOL   C15329721   2.895   7.631   0.739 -0.3495 -0.0866 -0.6860
   65MOL   C15429722   3.032   7.613   0.700 -0.0472 -0.3725  0.2732
   65MOL   H15529723   3.410   7.353   0.589 -1.1890 -0.1092 -0.4768
   65MOL   H15629724   3.574   7.404   0.583 -0.6142 -0.9925 -0.0275
   65MOL   H15729725   3.479   7.647   0.548  1.2205 -0.9933 -0.4168
   65MOL   H15829726   3.490   7.591   0.709 -2.0253 -1.3410  1.1914
   65MOL   H15929727   3.140   7.927   0.779 -0.5235 -0.2590  1.7812
   65MOL   H16029728   2.904   7.943   0.857 -0.9771 -0.1834 -0.1310
   65MOL   H16129729   2.830   7.547   0.719 -0.8099 -0.2513  1.4138
   65MOL   H16229730   3.074   7.524   0.656  1.4313  1.1433 -1.5271
   65MOL   O16329731   2.526   7.633   0.930  0.1953 -0.2108 -0.3483
   65MOL   C16429732   2.420   7.691   0.863 -0.2632 -0.0734 -0.2169
   65MOL   C16529733   2.373   7.588   0.756  0.6168 -0.4044 -0.1373
   65MOL   O16629734   2.243   7.605   0.723  0.5252  0.2732  0.3399
   65MOL   C16729735   2.179   7.521   0.638 -0.5160 -0.4382  0.1758
   65MOL   O16829736   2.233   7.442   0.567 -0.3601  0.1057 -0.4633
   65MOL   C16929737   2.030   7.551   0.635 -0.6963  0.8050  0.2351
   65MOL   C17029738   1.956   7.487   0.531 -0.8191  0.3919  0.1776
   65MOL   C17129739   1.818   7.505   0.524  0.2162 -0.4434 -0.1616
   65MOL   C17229740   1.753   7.579   0.622 -0.0187 -0.3551  0.1189
   65MOL   C17329741   1.601   7.600   0.612  0.4402  0.5732 -0.3115
   65MOL   O17429742   1.533   7.582   0.513 -0.2395 -1.0339 -0.0895
   65MOL   O17529743   1.543   7.637   0.728  0.3502  0.4293  0.3274
   65MOL   C17629744   1.826   7.645   0.727 -0.6041 -0.0924 -0.1134
   65MOL   C17729745   1.967   7.635   0.728  0.2309 -0.0891  0.4967
   65MOL   H17829746   2.339   7.702   0.936 -0.1717  1.9582 -0.3926
   65MOL   H17929747   2.437   7.785   0.810 -0.0422 -0.9698 -1.7658
   65MOL   H18029748   2.394   7.484   0.784  1.1017 -0.6465 -1.3466
   65MOL   H18129749   2.433   7.605   0.666  0.0506 -0.3823 -0.5087
   65MOL   H18229750   2.005   7.434   0.451 -1.3141  0.5336 -0.2137
   65MOL   H18329751   1.757   7.460   0.447 -1.0555  1.8843 -0.5829
   65MOL   H18429752   1.777   7.714   0.794 -0.6946 -0.5505  0.2958
   65MOL   H18529753   2.020   7.673   0.814  2.8546  1.8594 -1.8788
   65MOL   O18629754   1.386   7.635   0.729 -0.2559  0.2896 -0.0630
   65MOL   C18729755   1.338   7.524   0.806  0.9099 -0.3409 -0.2303
   65MOL   C18829756   1.324   7.561   0.954 -0.2461  0.3432  0.0875
   65MOL   O18929757   1.453   7.546   1.011 -0.9530 -0.0710 -0.0018
   65MOL   C19029758   1.487   7.530   1.144 -0.3426 -0.9239 -0.1624
   65MOL   O19129759   1.396   7.535   1.226 -0.0511  0.8577  0.0762
   65MOL   C19229760   1.631   7.526   1.173 -0.3596  0.2153  0.8916
   65MOL   C19329761   1.723   7.502   1.068  0.4428  0.8868 -0.1315
   65MOL   C19429762   1.863   7.495   1.096 -0.1099 -0.2250  0.0613
   65MOL   C19529763   1.908   7.499   1.227 -0.2959  0.2030  0.3132
   65MOL   C19629764   2.050   7.482   1.257 -0.1752 -0.6989 -0.4686
   65MOL   O19729765   2.095   7.521   1.365 -0.0157  0.0920 -0.0810
   65MOL   O19829766   2.119   7.420   1.171  0.6009 -0.6100 -0.3874
   65MOL   C19929767   1.816   7.529   1.333  0.4522  0.3332  0.0658
   65MOL   C20029768   1.681   7.542   1.306  0.8765 -0.0655  0.1126
   65MOL   H20129769   1.244   7.488   0.764  1.4975  1.1661 -3.0109
   65MOL   H20229770   1.416   7.448   0.811  1.7190  0.5273  0.4679
   65MOL   H20329771   1.267   7.481   1.002  0.9283 -1.0024 -0.6893
   65MOL   H20429772   1.277   7.659   0.959 -2.9052 -0.9113  0.8274
   65MOL   H20529773   1.687   7.486   0.968  3.6868  0.7246 -1.3198
   65MOL   H20629774   1.922   7.480   1.007  1.0117 -2.4475  1.1453
   65MOL   H20729775   1.848   7.543   1.435  1.8358 -0.3916 -0.2562
   65MOL   H20829776   1.616   7.572   1.387  0.1508 -0.4919 -0.3068
   65MOL   O20929777   2.259   7.390   1.223 -0.3878 -0.5066  0.1491
   65MOL   C21029778   2.354   7.487   1.175 -0.0201 -0.6597  0.2833
   65MOL   C21129779   2.487   7.436   1.216 -0.1149  0.4115 -0.4251
   65MOL   O21229780   2.603   7.507   1.175  0.2759 -0.0903  0.0543
   65MOL   C21329781   2.635   7.625   1.227 -0.2439 -0.5868 -0.0415
   65MOL   O21429782   2.555   7.691   1.292  0.1820 -0.3886  0.2203
   65MOL   C21529783   2.775   7.670   1.201 -0.2273  0.1119  0.5035
   65MOL   C21629784   2.853   7.603   1.104 -0.7917 -0.8131 -0.1626
   65MOL   C21729785   2.984   7.647   1.072 -0.0115 -0.8899 -0.3910
   65MOL   C21829786   3.044   7.748   1.153 -0.1622 -0.4479 -0.1821
   65MOL   C21929787   3.190   7.776   1.161  0.6906 -0.2012  0.2307
   65MOL   O22029788   3.267   7.762   1.062 -0.2593 -0.1452  0.1810
   65MOL   O22129789   3.233   7.808   1.287  0.1188 -0.0946  0.0394
   65MOL   C22229790   2.963   7.819   1.245  0.4926  0.1347 -0.6186
   65MOL   C22329791   2.828   7.788   1.261  0.2280  0.0284  0.0660
   65MOL   H22429792   2.356   7.490   1.066  2.8288  1.4976  0.3476
   65MOL   H22529793   2.336   7.591   1.203  0.7527 -0.5355  0.3209
   65MOL   H22629794   2.497   7.331   1.187  1.3866  0.7934 -1.3222
   65MOL   H22729795   2.497   7.428   1.325 -1.2060  3.4725 -0.0496
   65MOL   H22829796   2.830   7.504   1.067 -2.2515  0.1314 -1.8531
   65MOL   H22929797   3.051   7.603   0.999  0.8202 -0.0848 -0.1319
   65MOL   H23029798   3.002   7.903   1.300  0.7465  0.2331 -0.9471
   65MOL   H23129799   2.766   7.841   1.332 -0.0679 -1.7650  1.1848
   65MOL   O23229800   3.377   7.836   1.292  0.1306 -0.3721  0.1470
   65MOL   C23329801   3.397   7.964   1.355 -0.2876  0.4672  0.4050
   65MOL   C23429802   3.316   8.085   1.293  0.3635  0.4616 -0.5166
   65MOL   O23529803   3.393   8.144   1.190  0.2856 -0.2117 -0.4101
   65MOL   C23629804   3.347   8.226   1.106  0.0367 -0.2000  0.1536
   65MOL   O23729805   3.230   8.267   1.104 -0.1016 -0.0251 -0.0582
   65MOL   C23829806   3.448   8.270   1.008  0.1415 -0.3206 -0.3887
   65MOL   C23929807   3.580   8.217   1.020 -0.7258  0.0805  0.1540
   65MOL   C24029808   3.688   8.266   0.947  0.3248  0.9263 -0.3598
   65MOL   C24129809   3.662   0.078   0.844  0.3535  0.5194  0.2801
   65MOL   C24229810   3.777   0.141   0.772 -0.0583  0.7008 -0.4249
   65MOL   O24329811   3.893   0.094   0.770 -0.5833  0.4064  0.3120
   65MOL   O24429812   3.745   0.254   0.723  0.2745  0.4983  0.2553
   65MOL   C24529813   3.526   0.114   0.814 -0.0063  0.1443 -0.0722
   65MOL   C24629814   3.423   0.080   0.905  0.2430  0.4489 -0.1071
   65MOL   H24729815   3.373   7.959   1.461 -4.0313  4.0511 -0.1485
   65MOL   H24829816   3.503   7.990   1.351 -0.1535 -0.2212 -0.6987
   65MOL   H24929817   3.299   8.160   1.370 -1.2731 -0.5022  0.0964
   65MOL   H25029818   3.217   8.052   1.262  1.3856 -0.8313 -2.5142
   65MOL   H25129819   3.605   8.148   1.099  0.0440 -1.0392 -1.0783
   65MOL   H25229820   3.788   8.228   0.959  1.2123  3.1578 -0.4911
   65MOL   H25329821   3.507   0.181   0.732 -0.7350 -0.3552 -0.3059
   65MOL   H25429822   3.322   0.113   0.883  0.2876  0.9069  0.3472
   65MOL   O25529823   3.839   0.305   0.625  0.1333 -0.0059  0.0527
   65MOL   C25629824   3.923   0.404   0.686  0.1140 -0.8733 -0.3914
   65MOL   C25729825   4.017   0.464   0.575 -0.3656 -0.0988  0.4469
   65MOL   O25829826   4.091   0.355   0.508 -0.4336 -0.1863 -0.1900
   65MOL   C25929827   4.210   0.309   0.548  0.2174  0.0502 -0.9441
   65MOL   O26029828   4.291   0.377   0.608 -0.0404  0.8921  0.8274
   65MOL   C26129829   4.234   0.174   0.482 -0.2391  0.4135  0.7390
   65MOL   C26229830   4.147   0.110   0.396  0.0863 -0.0046 -0.0371
   65MOL   C26329831   4.176   8.267   0.321 -0.1126 -0.2751  0.0209
   65MOL   C26429832   4.306   8.215   0.347 -0.1813  0.7118 -0.2818
   65MOL   C26529833   4.337   8.090   0.267 -0.0549  0.0001 -0.0168
   65MOL   O26629834   4.258   8.025   0.194  0.4001  0.7102 -0.9051
   65MOL   O26729835   4.465   8.052   0.273 -0.7488 -0.1216  0.1195
   65MOL   C26829836   4.404   0.009   0.423  1.1270  0.5314 -0.1715
   65MOL   C26929837   4.360   0.120   0.495  0.0718 -0.7327  0.0501
   65MOL   H27029838   3.868   0.481   0.740  1.3966  0.2950 -0.7458
   65MOL   H27129839   3.990   0.342   0.747 -0.4559 -1.5363 -0.4314
   65MOL   H27229840   4.095   0.526   0.620  1.0652 -1.5484  0.0217
   65MOL   H27329841   3.963   0.520   0.499 -1.3557  0.0826  1.2683
   65MOL   H27429842   4.047   0.147   0.382 -0.9858 -2.6638  0.3402
   65MOL   H27529843   4.116   8.214   0.249  0.7204  0.1050 -0.9701
   65MOL   H27629844   4.509   8.258   0.429  0.9241  0.3254  3.4850
   65MOL   H27729845   4.441   0.177   0.540  0.3517 -0.7666 -0.4108
   65MOL   O27829846   4.518   7.939   0.196 -0.2531  0.1073 -0.5051
   65MOL   C27929847   4.553   7.992   0.071 -0.1181  0.1928  0.3558
   65MOL   C28029848   4.436   7.995   8.243  0.0106  0.8063 -0.0010
   65MOL   O28129849   4.485   8.024   8.117 -0.5014 -0.1115 -0.3035
   65MOL   C28229850   4.514   8.149   8.079  0.2286  0.1963 -0.0719
   65MOL   O28329851   4.483   8.255   8.142  0.5236  0.3171 -0.3965
   65MOL   C28429852   4.576   8.146   7.946  0.6237 -0.5066 -0.3788
   65MOL   C28529853   4.584   8.266   7.870  0.1808  0.3420  0.5262
   65MOL   C28629854   4.632   8.266   7.735 -0.3101  0.2468  0.3120
   65MOL   C28729855   4.693   8.151   7.683 -0.2528  0.0639 -0.7945
   65MOL   C28829856   4.732   8.147   7.541 -0.2207 -0.0915  0.6262
   65MOL   O28929857   4.704   8.231   7.457  0.2193 -0.2036 -0.4834
   65MOL   O29029858   4.795   8.045   7.505  0.2798 -0.2943  0.1349
   65MOL   C29129859   4.689   8.032   7.767 -0.3135 -0.8628 -0.6477
   65MOL   C29229860   4.637   8.032   7.895 -0.2852  0.0205  0.1349
   65MOL   H29329861   4.602   8.089   0.086  2.2825 -0.9074 -0.0618
   65MOL   H29429862   4.624   7.929   0.017  0.3855  0.5881  0.5434
   65MOL   H29529863   4.353   8.062   8.267 -2.1844 -2.7133  2.7571
   65MOL   H29629864   4.394   7.895   8.240  3.0408 -0.4979 -0.5143
   65MOL   H29729865   4.543   0.086   7.899 -1.3460 -0.1949  0.1976
   65MOL   H29829866   4.604   0.084   7.690  0.3455  0.0715 -0.4717
   65MOL   H29929867   4.714   7.931   7.739 -0.4275 -0.1461 -3.4737
   65MOL   H30029868   4.628   7.934   7.941  0.0120  0.5005  1.2307
   65MOL   O30129869   4.834   8.042   7.359 -0.7114 -0.7706 -0.3046
   65MOL   C30229870   4.752   7.957   7.290 -0.1455 -0.0532  0.6537
   65MOL   C30329871   4.785   7.941   7.142  0.1601 -0.1460  0.2017
   65MOL   O30429872   4.704   7.839   7.072 -0.2401 -0.1175  0.7089
   65MOL   C30529873   4.740   7.717   7.085 -0.6811  0.7198  0.2652
   65MOL   O30629874   4.828   7.676   7.164 -0.6591 -0.5138  0.3750
   65MOL   C30729875   4.657   7.632   7.004  0.5220 -1.0102  0.0365
   65MOL   C30829876   4.681   7.489   7.005  0.3126 -0.5086 -0.0629
   65MOL   C30929877   4.615   7.399   6.918  0.5671 -0.1694  0.5981
   65MOL   C31029878   4.506   7.449   6.838 -0.8218  0.5918 -0.4550
   65MOL   C31129879   4.449   7.376   6.728  1.0673 -0.1496  0.1006
   65MOL   O31229880   4.503   7.282   6.668  0.3771  0.2131 -0.1868
   65MOL   O31329881   4.331   7.428   6.684 -0.7963  0.2721  0.7053
   65MOL   C31429882   4.462   7.582   6.862 -0.7874 -0.0861 -0.1085
   65MOL   C31529883   4.539   7.676   6.936  0.6439 -0.1149  0.0630
   65MOL   H31629884   4.756   7.865   7.349 -3.6816 -2.2120 -2.2253
   65MOL   H31729885   4.648   7.990   7.292 -0.5622 -1.3220  0.3464
   65MOL   H31829886   4.889   7.908   7.148  0.2487  0.0817 -0.0339
   65MOL   H31929887   4.783   8.033   7.084  2.3020 -0.4206 -0.3639
   65MOL   H32029888   4.765   7.451   7.061 -0.5220 -3.1060 -0.4849
   65MOL   H32129889   4.634   7.293   6.914 -0.3778 -0.3029 -0.7614
   65MOL   H32229890   4.373   7.621   6.815 -0.6654 -0.4222 -0.6181
   65MOL   H32329891   4.513   7.781   6.939  2.1973  0.3429 -1.3246
   65MOL   O32429892   4.301   7.378   6.540 -0.1029 -0.2900  0.7156
   65MOL   C32529893   4.170   7.336   6.535  0.3666 -0.7879  0.1125
   65MOL   C32629894   4.144   7.212   6.620 -0.6921  0.1731  0.2240
   65MOL   O32729895   4.006   7.173   6.642  0.5705  0.2768  0.0295
   65MOL   C32829896   3.942   7.097   6.549  0.1339  0.7411  0.1231
   65MOL   O32929897   3.992   7.058   6.444  0.5007  0.3721 -0.1381
   65MOL   C33029898   3.802   7.070   6.588 -0.1116 -0.1058 -0.9747
   65MOL   C33129899   3.720   7.000   6.501 -0.6819  0.9359 -0.1052
   65MOL   C33229900   3.590   6.971   6.532 -0.9222  0.7259 -0.5352
   65MOL   C33329901   3.541   6.997   6.659 -0.4193 -0.4691 -0.3207
   65MOL   C33429902   3.412   6.947   6.702 -0.2584  0.3506  0.4200
   65MOL   O33529903   3.359   6.986   6.808 -0.1485  0.3316  0.0671
   65MOL   O33629904   3.353   6.860   6.611 -0.6955  0.2582  0.3415
   65MOL   C33729905   3.619   7.068   6.750  0.4014 -0.2773  0.0573
   65MOL   C33829906   3.748   7.100   6.717  0.3657 -0.2087  0.2241
   65MOL   H33929907   4.101   7.417   6.560  2.3386  1.1496 -0.5207
   65MOL   H34029908   4.151   7.321   6.428 -0.9774  0.9975  0.0817
   65MOL   H34129909   4.199   7.212   6.714  0.2085  0.9510 -0.3004
   65MOL   H34229910   4.190   7.126   6.572 -0.3746 -0.0110  0.8421
   65MOL   H34329911   3.759   6.953   6.412 -1.9866 -1.2304  0.4316
   65MOL   H34429912   3.537   6.916   6.455  2.2701 -0.1862 -2.1706
   65MOL   H34529913   3.594   7.090   6.852  0.4370  2.0378 -0.4074
   65MOL   H34629914   3.817   7.146   6.786 -1.9354  0.4921  2.1224
   65MOL   O34729915   3.203   6.861   6.631  0.8021  0.3537 -0.1285
   65MOL   C34829916   3.134   6.887   6.503 -0.6751  0.4212  0.2472
   65MOL   C34929917   2.987   6.871   6.512  0.1235  0.0926 -0.0040
   65MOL   O35029918   2.940   6.792   6.409 -0.2050 -0.6290  0.1740
   65MOL   C35129919   2.896   6.840   6.287 -0.8432  0.4537 -0.1452
   65MOL   O35229920   2.888   6.953   6.260  0.0628 -1.0114  0.0958
   65MOL   C35329921   2.862   6.734   6.190 -0.4647  0.3276 -0.2770
   65MOL   C35429922   2.851   6.593   6.228 -0.3953 -1.0272 -0.0977
   65MOL   C35529923   2.809   6.494   6.136  0.3757  0.1255  0.7609
   65MOL   C35629924   2.777   6.540   6.005 -0.0947  0.3869  0.2890
   65MOL   C35729925   2.717   6.447   5.906 -0.0283  0.0323  0.2499
   65MOL   O35829926   2.705   6.473   5.787 -0.8618  0.0738  0.1535
   65MOL   O35929927   2.669   6.336   5.970 -0.2042  0.1066 -0.3734
   65MOL   C36029928   2.799   6.673   5.970 -0.2537  0.1645 -0.2366
   65MOL   C36129929   2.834   6.774   6.063 -0.6284  1.2950 -0.2784
   65MOL   H36229930   3.157   6.987   6.466 -0.9406  0.0499 -0.9486
   65MOL   H36329931   3.171   6.815   6.430 -1.4502 -0.0530  0.3203
   65MOL   H36429932   2.936   6.967   6.505  0.1693  0.1247  0.0999
   65MOL   H36529933   2.956   6.814   6.599 -0.6849  0.8793  0.2313
   65MOL   H36629934   2.877   6.569   6.331  0.0736  2.4885  0.6687
   65MOL   H36729935   2.795   6.392   6.169 -0.0816 -0.6771 -1.8198
   65MOL   H36829936   2.772   6.697   5.868 -2.8026 -1.9984 -0.1145
   65MOL   H36929937   2.833   6.878   6.031 -0.1517  0.4947 -3.0093
   65MOL   O37029938   2.581   6.249   5.894 -0.4471 -0.4355 -0.0416
   65MOL   C37129939   2.444   6.279   5.936  0.2030  0.2417  0.8837
   65MOL   C37229940   2.323   6.205   5.881 -0.3286 -0.0685  0.4341
   65MOL   O37329941   2.285   6.250   5.753 -0.4739  0.2619  0.0155
   65MOL   C37429942   2.160   6.242   5.717  1.2259 -0.0546  0.0332
   65MOL   O37529943   2.060   6.210   5.785 -0.2361  0.2221  0.4119
   65MOL   C37629944   2.144   6.300   5.579 -0.2138 -0.1035  0.3073
   65MOL   C37729945   2.253   6.365   5.517  0.1694 -0.7105 -0.3815
   65MOL   C37829946   2.234   6.425   5.387  0.3904 -0.1195  0.2290
   65MOL   C37929947   2.116   6.401   5.309  0.3428 -0.5508  0.2294
   65MOL   C38029948   2.112   6.455   5.166 -0.9785  0.2280  0.2039
   65MOL   O38129949   2.175   6.552   5.129  0.0535 -0.2514 -0.2677
   65MOL   O38229950   2.026   6.387   5.089  0.1457 -0.0149 -0.4229
   65MOL   C38329951   2.012   6.320   5.368 -0.5167  0.8005  0.0001
   65MOL   C38429952   2.033   6.274   5.500  0.4619  0.3771  0.2082
   65MOL   H38529953   2.446   6.262   6.043  4.7404 -2.4888  0.4899
   65MOL   H38629954   2.426   6.385   5.917  0.7484  0.3502  0.9580
   65MOL   H38729955   2.247   6.227   5.956  1.4539  0.1079  2.2323
   65MOL   H38829956   2.340   6.097   5.882  1.4091  0.1991  1.8108
   65MOL   H38929957   2.351   6.386   5.557  1.0809 -0.2433 -2.7922
   65MOL   H39029958   2.307   6.499   5.356 -0.0467  0.6074  0.9188
   65MOL   H39129959   1.924   6.294   5.311 -0.7821  1.2129  0.2200
   65MOL   H39229960   1.958   6.210   5.545 -0.4831  2.6943  2.0297
   65MOL   O39329961   2.043   6.403   4.943  0.8843  0.3412  0.2821
   65MOL   C39429962   1.956   6.501   4.893 -0.1313  0.1642 -0.1571
   65MOL   C39529963   1.957   6.535   4.745 -0.4407  0.6345  0.0876
   65MOL   O39629964   2.047   6.650   4.739  0.2903 -0.7718  0.2524
   65MOL   C39729965   2.169   6.644   4.682 -0.1051  0.1685 -0.4219
   65MOL   O39829966   2.233   6.544   4.650  0.7606  0.6072  0.0718
   65MOL   C39929967   2.224   6.774   4.644  0.5961  0.6354  0.6069
   65MOL   C40029968   2.348   6.785   4.565  0.5229  0.0018 -0.2746
   65MOL   C40129969   2.398   6.909   4.518  0.6373 -0.2374 -0.5177
   65MOL   C40229970   2.323   7.027   4.546 -0.4003  0.2525  0.2637
   65MOL   C40329971   2.371   7.163   4.499  0.0636 -0.3172  0.2954
   65MOL   O40429972   2.309   7.270   4.524 -0.0413  0.0116  0.3409
   65MOL   O40529973   2.483   7.158   4.424  0.4223 -0.4688  0.0937
   65MOL   C40629974   2.201   7.014   4.617 -0.5691 -0.6710 -0.5479
   65MOL   C40729975   2.152   6.895   4.668  0.4209  0.0706  0.3446
   65MOL   H40829976   1.853   6.469   4.912 -0.5149  0.3787 -1.8298
   65MOL   H40929977   1.975   6.590   4.954  3.0332 -0.5253 -0.1015
   65MOL   H41029978   1.856   6.565   4.718 -0.4089  1.2854  0.7055
   65MOL   H41129979   1.988   6.454   4.679  0.5860  1.2401 -0.1796
   65MOL   H41229980   2.400   6.700   4.523  0.8683  1.5283 -3.0251
   65MOL   H41329981   2.490   6.907   4.461  0.9609 -1.5248  0.0347
   65MOL   H41429982   2.150   7.107   4.636  1.2160  0.7022 -2.3458
   65MOL   H41529983   2.062   6.901   4.727  0.8593 -0.7185  1.0950
   65MOL   O41629984   2.523   7.296   4.382  0.3289  0.2264  0.0786
   65MOL   C41729985   2.621   7.338   4.470 -0.1429  0.0542 -0.4659
   65MOL   C41829986   2.661   7.475   4.406 -0.3239  0.2577 -0.3875
   65MOL   O41929987   2.549   7.572   4.434  0.2985 -0.0486 -0.1826
   65MOL   C42029988   2.557   7.649   4.538  0.1553 -0.2708  0.8127
   65MOL   O42129989   2.656   7.654   4.606  0.0072  0.1966 -0.2446
   65MOL   C42229990   2.429   7.734   4.558  0.2022  0.1068 -0.2395
   65MOL   C42329991   2.421   7.849   4.645  0.1131 -0.8692  0.3050
   65MOL   C42429992   2.297   7.911   4.670  0.2338 -0.3127  0.4423
   65MOL   C42529993   2.181   7.873   4.598  0.8935 -0.6389  0.5957
   65MOL   C42629994   2.054   7.952   4.607  0.1218  0.1523 -0.0149
   65MOL   O42729995   1.950   7.930   4.549  0.6693 -0.3138  0.4583
   65MOL   O42829996   2.057   8.043   4.705 -0.6768 -0.1705 -0.1676
   65MOL   C42929997   2.193   7.765   4.497 -0.2382 -0.4795  0.4331
   65MOL   C43029998   2.316   7.698   4.483  0.4302  0.6379 -0.1266
   65MOL   H43129999   2.578   7.338   4.570  0.0871 -2.9154 -0.3301
   65MOL   H43230000   2.708   7.273   4.476  0.0472  0.3745  0.4134
   65MOL   H43330001   2.672   7.479   4.298 -2.8840 -2.4894 -0.8377
   65MOL   H43430002   2.749   7.521   4.450 -0.2580 -0.2490  0.0261
   65MOL   H43530003   2.509   7.879   4.700 -0.6950  0.2454  1.0081
   65MOL   H43630004   2.301   7.991   4.743 -2.1133  1.2311 -1.0462
   65MOL   H43730005   2.108   7.738   4.436  0.7635  1.1014 -1.7083
   65MOL   H43830006   2.323   7.617   4.412 -1.8642  0.4718 -0.2304
   65MOL   O43930007   1.920   8.123   4.727  0.1727 -0.7672  0.0402
   65MOL   C44030008   1.845   8.064   4.831  0.7067 -0.0476  0.2332
   65MOL   C44130009   1.718   7.992   4.794 -0.0281 -0.8510 -0.2326
   65MOL   O44230010   1.684   7.914   4.903  0.0695  0.6901 -0.1917
   65MOL   C44330011   1.559   7.900   4.947 -0.0921  0.3702 -0.2416
   65MOL   O44430012   1.463   7.939   4.882 -0.1578  0.3306  0.5654
   65MOL   C44530013   1.558   7.823   5.073 -0.2061 -0.2364 -0.4575
   65MOL   C44630014   1.433   7.770   5.122  0.2020 -0.3864 -0.3777
   65MOL   C44730015   1.427   7.701   5.243  0.1871 -0.1533  0.6522
   65MOL   C44830016   1.544   7.685   5.321  0.0540 -0.5398 -0.1839
   65MOL   C44930017   1.535   7.614   5.455 -0.2994 -0.3183  0.6994
   65MOL   O45030018   1.426   7.578   5.500 -0.2715 -0.8786 -0.2362
   65MOL   O45130019   1.651   7.572   5.509 -0.2208 -0.0964 -0.1976
   65MOL   C45230020   1.670   7.730   5.269  0.0108 -0.1833  0.0155
   65MOL   C45330021   1.671   7.801   5.150 -0.7997 -0.5314  0.1243
   65MOL   H45430022   1.907   8.000   4.894 -0.9769 -0.6480  1.3362
   65MOL   H45530023   1.831   8.147   4.901  1.8991  1.3715 -1.1614
   65MOL   H45630024   1.728   7.921   4.712  0.1720  1.6543 -2.4434
   65MOL   H45730025   1.638   8.064   4.777  0.3720  0.1992  2.0823
   65MOL   H45830026   1.342   7.773   5.063  0.4586  1.3400 -0.7327
   65MOL   H45930027   1.331   7.672   5.282  1.2207 -2.6591  1.4164
   65MOL   H46030028   1.759   7.722   5.329  0.9028  3.1790 -0.7580
   65MOL   H46130029   1.766   7.837   5.115 -0.5206  1.4561  2.7442
   65MOL   H46230030   1.630   7.526   5.589 -4.2538 -0.8399 -1.6020
   66MOL     O130031   4.739   3.048   3.923  0.0881 -0.0151 -0.1179
   66MOL     C230032   4.809   3.129   3.838 -0.2586 -0.4077 -0.2637
   66MOL     C330033   4.720   3.215   3.755  0.3110  0.1803  0.3273
   66MOL     O430034   4.790   3.328   3.696  0.3363 -0.4162 -0.6530
   66MOL     C530035   4.809   3.438   3.764 -0.6029 -0.1954 -0.0325
   66MOL     O630036   4.771   3.454   3.882 -0.2085 -0.2351 -1.0690
   66MOL     C730037   4.891   3.533   3.679 -0.0962  0.3112 -0.0858
   66MOL     C830038   4.939   3.653   3.735  0.5899  0.0427 -0.3729
   66MOL     C930039   5.021   3.744   3.661  0.0227  0.6410 -0.1178
   66MOL    C1030040   5.055   3.718   3.526 -0.0061 -0.2285 -0.1288
   66MOL    C1130041   5.143   3.816   3.458 -0.1743 -0.2554 -0.2616
   66MOL    O1230042   5.236   3.874   3.517  0.0170  0.3521  0.0362
   66MOL    O1330043   5.120   3.827   3.327  0.4395  0.3146  0.1171
   66MOL    C1430044   5.004   3.602   3.465 -0.4049 -0.6651 -0.4312
   66MOL    C1530045   4.930   3.508   3.544 -0.0377  0.1025 -0.1619
   66MOL    H1630046   4.878   3.193   3.893 -2.8035  0.9102  1.5004
   66MOL    H1730047   4.879   3.073   3.776 -0.1274 -0.4488 -0.0765
   66MOL    H1830048   4.633   3.252   3.810 -0.4948  2.8881 -2.6193
   66MOL    H1930049   4.692   3.153   3.670 -0.8054  0.7291  0.2779
   66MOL    H2030050   4.925   3.664   3.842  2.2977 -1.6402  0.0602
   66MOL    H2130051   5.052   3.832   3.715 -1.8733  2.2343 -1.6014
   66MOL    H2230052   5.037   3.583   3.364  3.0906 -1.3587  0.7804
   66MOL    H2330053   4.888   3.417   3.502  0.5420  0.3555 -1.3314
   66MOL    H2430054   4.658   3.029   3.877 -1.1276 -0.3593  2.0914
   66MOL    O2530055   5.217   3.933   3.264  0.2158 -0.3171 -0.9527
   66MOL    C2630056   5.142   4.054   3.260  0.1874 -0.6293  0.5912
   66MOL    C2730057   5.232   4.170   3.235  0.4314 -0.1318  0.0524
   66MOL    O2830058   5.274   4.166   3.098 -0.5875  0.2350 -0.6008
   66MOL    C2930059   5.363   4.262   3.054  0.0549  0.5332  0.5555
   66MOL    O3030060   5.385   4.361   3.121 -0.3288  0.2685  0.1336
   66MOL    C3130061   5.399   4.248   2.910 -0.6259  0.7382 -0.9048
   66MOL    C3230062   5.426   4.121   2.855  0.2578 -0.8143  0.6206
   66MOL    C3330063   5.456   4.106   2.717  0.6789  0.1732 -0.1485
   66MOL    C3430064   5.466   4.222   2.637  0.4614  0.8155  0.4773
   66MOL    C3530065   5.491   4.208   2.489 -0.2638 -0.4866 -1.0086
   66MOL    O3630066   5.554   4.120   2.440  0.1949 -0.1375  0.6505
   66MOL    O3730067   5.438   4.311   2.423 -0.7023  0.3444  0.0903
   66MOL    C3830068   5.442   4.352   2.693 -0.2000 -1.2472  0.3990
   66MOL    C3930069   5.415   4.363   2.829 -0.4828  0.1768 -0.6311
   66MOL    H4030070   5.063   4.051   3.186 -0.7007 -0.3385  1.5061
   66MOL    H4130071   5.103   4.085   3.357  0.0042 -0.2533  0.3959
   66MOL    H4230072   5.323   4.173   3.294  0.5409 -0.4362 -0.0988
   66MOL    H4330073   5.181   4.261   3.264  0.4908  0.3931 -1.4360
   66MOL    H4430074   5.426   4.032   2.916  0.3920 -0.7237  0.7529
   66MOL    H4530075   5.469   4.006   2.679  1.1886 -0.4954  1.7101
   66MOL    H4630076   5.445   4.441   2.632  1.1560 -0.9164  0.9332
   66MOL    H4730077   5.409   4.461   2.873 -3.6821 -0.3422  0.2069
   66MOL    O4830078   5.452   4.306   2.277  0.1439  0.1281 -0.2124
   66MOL    C4930079   5.550   4.394   2.227 -0.2667 -0.1233  0.3631
   66MOL    C5030080   5.500   4.534   2.227  0.0303  0.3528  0.0391
   66MOL    O5130081   5.417   4.570   2.116  0.5683 -0.2472 -0.1101
   66MOL    C5230082   5.317   4.654   2.133 -0.0028  0.1156 -0.1173
   66MOL    O5330083   5.293   4.711   2.238 -0.0930  0.6532  0.0758
   66MOL    C5430084   5.227   4.670   2.015 -0.1436  0.2542  0.1409
   66MOL    C5530085   5.256   4.618   1.885 -0.6329 -0.2078  0.2162
   66MOL    C5630086   5.180   4.652   1.769 -0.6293 -0.5294 -0.7814
   66MOL    C5730087   5.067   4.737   1.785  0.1783 -0.7501  0.3150
   66MOL    C5830088   4.973   4.784   1.670 -0.3141  0.8696 -0.2506
   66MOL    O5930089   4.862   4.835   1.685  0.0184 -0.1526  0.0641
   66MOL    O6030090   5.032   4.760   1.555 -0.0832 -0.1108  0.3951
   66MOL    C6130091   5.032   4.774   1.919  0.5833 -0.8291  0.3241
   66MOL    C6230092   5.110   4.744   2.032 -0.2276  0.4565  0.0299
   66MOL    H6330093   5.633   4.381   2.297 -0.0677  0.3144  0.2098
   66MOL    H6430094   5.587   4.371   2.128  0.3782  1.3694  0.2489
   66MOL    H6530095   5.588   4.595   2.211 -0.8620  0.7200 -4.1249
   66MOL    H6630096   5.443   4.557   2.317  0.8914  0.8438  0.4674
   66MOL    H6730097   5.343   4.555   1.881 -1.6657 -1.5411 -2.7356
   66MOL    H6830098   5.210   4.630   1.668  0.0926 -0.2760 -0.6224
   66MOL    H6930099   4.942   4.833   1.931 -0.1595 -1.7416 -0.6232
   66MOL    H7030100   5.081   4.775   2.132 -2.0447  2.6655 -1.1298
   66MOL    O7130101   4.953   4.798   1.430  0.2597 -0.1405  0.1804
   66MOL    C7230102   4.972   4.932   1.399  0.4583 -0.3533  0.8426
   66MOL    C7330103   4.942   4.930   1.251  0.2525 -0.1725  0.3213
   66MOL    O7430104   4.872   5.040   1.207  0.2086 -0.0179  0.0204
   66MOL    C7530105   4.934   5.151   1.181 -0.0411  0.3738  0.0954
   66MOL    O7630106   5.053   5.166   1.206 -0.6758 -0.2188 -0.6239
   66MOL    C7730107   4.853   5.251   1.108  0.4162 -0.7632  0.5841
   66MOL    C7830108   4.918   5.347   1.033  0.3991  0.8770  0.0349
   66MOL    C7930109   4.846   5.446   0.963  0.5309 -0.9374 -0.0861
   66MOL    C8030110   4.707   5.448   0.966 -0.5344 -0.0189  0.5909
   66MOL    C8130111   4.627   5.542   0.885  0.3827 -0.6478 -0.2507
   66MOL    O8230112   4.674   5.607   0.798 -0.7637 -0.1093  0.1972
   66MOL    O8330113   4.500   5.556   0.919 -0.1822  0.4089 -0.3226
   66MOL    C8430114   4.631   5.343   1.032 -0.2397 -0.8234  0.1201
   66MOL    C8530115   4.711   5.251   1.108  0.8609 -0.7188 -0.8705
   66MOL    H8630116   4.898   4.991   1.453  2.2737  0.2619  2.7439
   66MOL    H8730117   5.069   4.977   1.421 -0.0463  1.4065 -0.4787
   66MOL    H8830118   4.867   4.853   1.235 -0.1525  0.6062 -1.6437
   66MOL    H8930119   5.021   4.902   1.180 -0.2428  0.1504 -0.3600
   66MOL    H9030120   5.026   5.340   1.031  0.2926 -1.6660  0.5804
   66MOL    H9130121   4.899   5.523   0.908  1.4366 -0.3786  1.5310
   66MOL    H9230122   4.524   5.337   1.028 -0.3184  0.2190  0.4316
   66MOL    H9330123   4.659   5.174   1.163  0.3184  0.6834  0.6052
   66MOL    O9430124   4.430   5.674   0.859  0.5028 -0.4087 -0.2180
   66MOL    C9530125   4.379   5.636   0.736 -0.5763 -0.3343  0.0934
   66MOL    C9630126   4.358   5.749   0.637  0.2865 -0.1756 -0.0362
   66MOL    O9730127   4.218   5.764   0.595  0.0577  0.2863  0.4259
   66MOL    C9830128   4.184   5.711   0.478 -0.3046 -0.6138  0.6030
   66MOL    O9930129   4.271   5.666   0.404  0.7485  0.3349  0.3936
   66MOL   C10030130   4.042   5.709   0.450  0.0759 -0.0538  0.7224
   66MOL   C10130131   3.987   5.617   0.358  0.1162 -0.1676 -0.8094
   66MOL   C10230132   3.850   5.596   0.351  0.6311 -0.2144  0.1404
   66MOL   C10330133   3.761   5.678   0.429  0.0011 -0.4413  0.3123
   66MOL   C10430134   3.615   5.683   0.401 -0.0615  0.1770  0.1372
   66MOL   O10530135   3.565   5.616   0.310 -0.1191 -0.0910  0.1704
   66MOL   O10630136   3.543   5.764   0.479  0.0899  0.2928 -0.8324
   66MOL   C10730137   3.816   5.764   0.525  0.4291  0.1180 -0.1961
   66MOL   C10830138   3.952   5.780   0.534  0.3985  0.1373  0.1332
   66MOL   H10930139   4.437   5.561   0.683  0.6244  1.0558 -0.5991
   66MOL   H11030140   4.279   5.599   0.758 -0.2772 -1.2468 -0.0549
   66MOL   H11130141   4.434   5.754   0.560  0.3889  0.5368  0.1136
   66MOL   H11230142   4.357   5.839   0.699 -1.8347  0.9866 -1.6920
   66MOL   H11330143   4.043   5.550   0.295  0.8032  1.5186 -2.0423
   66MOL   H11430144   3.809   5.516   0.291  0.4907 -0.9449  1.1961
   66MOL   H11530145   3.763   5.835   0.586  0.3749  1.2093 -1.4867
   66MOL   H11630146   3.990   5.849   0.608  1.3926 -0.9832  0.6789
   66MOL   O11730147   3.406   5.784   0.428 -0.1390  0.0342 -0.2136
   66MOL   C11830148   3.315   5.727   0.511  0.1141  0.1400  0.7784
   66MOL   C11930149   3.177   5.792   0.482  0.4103  0.2809  0.9162
   66MOL   O12030150   3.082   5.731   0.576 -0.3765  0.1568  0.7536
   66MOL   C12130151   2.967   5.686   0.536  0.3588  0.0396 -0.4233
   66MOL   O12230152   2.940   5.669   0.421 -0.1433 -0.6344  0.1017
   66MOL   C12330153   2.874   5.658   0.653  0.2895 -0.1581 -0.4184
   66MOL   C12430154   2.903   5.708   0.787  0.2910  0.2032 -1.1773
   66MOL   C12530155   2.824   5.673   0.898  0.6121 -1.0593 -0.9341
   66MOL   C12630156   2.701   5.608   0.884 -0.3458 -0.2012  0.0278
   66MOL   C12730157   2.616   5.581   1.003 -0.1150 -0.5981  0.1686
   66MOL   O12830158   2.506   5.526   0.988 -0.2528  0.8641 -0.4077
   66MOL   O12930159   2.675   5.625   1.118  0.7386  0.1691  0.2680
   66MOL   C13030160   2.667   5.562   0.751 -0.1838 -0.8914  0.4107
   66MOL   C13130161   2.755   5.583   0.645  0.6422  0.7081  0.1998
   66MOL   H13230162   3.322   5.618   0.502  0.8345  0.1169  1.5418
   66MOL   H13330163   3.342   5.747   0.614  0.9566  2.3203  0.1606
   66MOL   H13430164   3.150   5.764   0.380 -0.8603 -2.4335  1.9327
   66MOL   H13530165   3.194   5.899   0.494  1.5773  0.1510  0.4550
   66MOL   H13630166   2.989   5.772   0.800  2.1100 -2.4984  0.5543
   66MOL   H13730167   2.864   5.703   0.994 -2.0040 -1.0214  0.1909
   66MOL   H13830168   2.575   5.508   0.737  0.2184 -1.7700  1.1158
   66MOL   H13930169   2.724   5.531   0.556  1.8547 -0.8047  0.6553
   66MOL   O14030170   2.618   5.561   1.244  0.1794  0.0511  0.1449
   66MOL   C14130171   2.712   5.479   1.308  0.2779  0.2755  1.2122
   66MOL   C14230172   2.760   5.359   1.239 -0.2223  0.4180  0.5121
   66MOL   O14330173   2.881   5.387   1.169  0.5701  0.0500  0.2200
   66MOL   C14430174   2.929   5.293   1.085 -1.1326 -0.1070 -0.3169
   66MOL   O14530175   2.894   5.175   1.072  0.1931  0.2942 -0.5656
   66MOL   C14630176   3.036   5.346   1.004 -0.6343 -0.0337 -0.4339
   66MOL   C14730177   3.084   5.273   0.894 -0.5257  0.5653 -0.5623
   66MOL   C14830178   3.185   5.325   0.811  0.6198 -0.6007 -0.1979
   66MOL   C14930179   3.243   5.447   0.836  0.8258 -0.0767 -0.3334
   66MOL   C15030180   3.375   5.485   0.770 -0.1788  0.1026 -0.5053
   66MOL   O15130181   3.449   5.566   0.818 -0.3492 -0.1537  0.1801
   66MOL   O15230182   3.413   5.408   0.665  0.0574  0.5977  0.3407
   66MOL   C15330183   3.184   5.529   0.939  0.0567 -0.0650 -0.6618
   66MOL   C15430184   3.081   5.481   1.021 -0.7075  0.0077  0.0043
   66MOL   H15530185   2.792   5.541   1.351 -0.1323  0.6106  1.4923
   66MOL   H15630186   2.656   5.445   1.395 -1.9709  0.0306 -0.3112
   66MOL   H15730187   2.691   5.332   1.160  2.1130  0.6739 -1.6656
   66MOL   H15830188   2.784   5.277   1.306 -0.9951 -0.2127  0.0225
   66MOL   H15930189   3.042   5.176   0.874  0.8187 -0.2245  0.3521
   66MOL   H16030190   3.231   5.270   0.730 -0.0347 -2.3717  0.6104
   66MOL   H16130191   3.236   5.620   0.966  0.4669 -0.3993 -0.3159
   66MOL   H16230192   3.044   5.538   1.105 -1.0823  0.7165 -0.6271
   66MOL   O16330193   3.543   5.444   0.602 -0.4008  0.2295 -0.4058
   66MOL   C16430194   3.635   5.346   0.648 -0.1569  0.7919 -0.9055
   66MOL   C16530195   3.781   5.371   0.601  0.2222 -0.4806 -0.1885
   66MOL   O16630196   3.873   5.262   0.634 -0.0713 -0.1535 -0.7107
   66MOL   C16730197   4.000   5.274   0.605 -1.0723 -0.2736 -0.0339
   66MOL   O16830198   4.060   5.373   0.556  0.1581  0.0755  0.0028
   66MOL   C16930199   4.073   5.151   0.642  0.4690  0.7779  0.1868
   66MOL   C17030200   4.009   5.036   0.695 -1.1539  0.9073 -0.3042
   66MOL   C17130201   4.085   4.913   0.702  0.9450 -0.2300 -0.7992
   66MOL   C17230202   4.223   4.912   0.674 -0.2958  0.2168 -0.5703
   66MOL   C17330203   4.307   4.789   0.697 -0.1356  0.0539  0.1028
   66MOL   O17430204   4.429   4.789   0.715  0.6212  0.4116 -0.6572
   66MOL   O17530205   4.229   4.683   0.691  0.5971 -0.0341 -0.1418
   66MOL   C17630206   4.286   5.036   0.637 -0.3544  0.2094  0.3020
   66MOL   C17730207   4.209   5.153   0.620 -0.0195 -0.1339  1.1228
   66MOL   H17830208   3.632   5.372   0.754 -0.8769 -0.1209 -0.7031
   66MOL   H17930209   3.591   5.249   0.627 -0.9023  0.7772  0.7305
   66MOL   H18030210   3.816   5.466   0.641  1.7395 -1.2633  0.3889
   66MOL   H18130211   3.776   5.383   0.492 -1.6050 -0.0470 -0.0722
   66MOL   H18230212   3.902   5.034   0.714 -1.3892  1.9956 -1.3820
   66MOL   H18330213   4.027   4.828   0.735  0.5001  0.5690  0.5318
   66MOL   H18430214   4.393   5.032   0.623 -0.5657  0.4484 -1.4948
   66MOL   H18530215   4.260   5.246   0.598  0.2308 -0.0269  2.1599
   66MOL   O18630216   4.307   4.551   0.712  0.6370  0.0719  0.4400
   66MOL   C18730217   4.342   4.502   0.584  0.7920 -0.0709  0.5792
   66MOL   C18830218   4.498   4.468   0.567  0.4456  0.2759 -0.5269
   66MOL   O18930219   4.568   4.579   0.514 -0.5476 -0.1170 -0.6409
   66MOL   C19030220   4.567   4.596   0.383  0.0424  0.0264 -0.5093
   66MOL   O19130221   4.504   4.513   0.313 -0.2383 -0.4299  0.5091
   66MOL   C19230222   4.656   4.708   0.332 -0.1128 -0.8112 -0.3395
   66MOL   C19330223   4.725   4.703   0.206  0.2664  0.8345 -0.8906
   66MOL   C19430224   4.820   4.800   0.172  0.5692  0.3478 -0.3896
   66MOL   C19530225   4.849   4.905   0.261 -0.5785 -0.5586  0.1390
   66MOL   C19630226   4.950   5.009   0.216  0.5784 -0.4170  0.0891
   66MOL   O19730227   5.023   4.983   0.121 -0.2072 -0.2999 -0.0924
   66MOL   O19830228   4.943   5.127   0.296  0.1781 -0.0187  0.2354
   66MOL   C19930229   4.783   4.918   0.384 -0.0027  0.2230  0.2767
   66MOL   C20030230   4.695   4.818   0.424 -0.4332 -0.5085 -0.0124
   66MOL   H20130231   4.283   4.411   0.580  2.3338 -1.0784  0.2861
   66MOL   H20230232   4.308   4.573   0.508 -2.1675  0.0894  1.9999
   66MOL   H20330233   4.520   4.380   0.506 -4.4397 -1.0324 -0.6082
   66MOL   H20430234   4.541   4.448   0.665  1.3267  0.2409 -0.9118
   66MOL   H20530235   4.688   4.630   0.136 -0.1311  0.8665 -0.7158
   66MOL   H20630236   4.877   4.798   0.080  1.5560 -0.7746  0.2407
   66MOL   H20730237   4.811   4.994   0.455  1.9302  0.2112 -0.4362
   66MOL   H20830238   4.658   4.834   0.524  0.9584  0.7810  0.3188
   66MOL   O20930239   5.048   5.215   0.274 -0.3339 -0.2602  0.4566
   66MOL   C21030240   5.012   5.314   0.182  0.4661  0.0149 -0.4011
   66MOL   C21130241   5.112   5.426   0.184  0.2043 -0.3513 -0.3866
   66MOL   O21230242   5.088   5.505   0.293  0.5191 -0.4309 -0.2950
   66MOL   C21330243   5.163   5.619   0.308 -0.0924 -0.0748 -0.4646
   66MOL   O21430244   5.257   5.649   0.239 -0.1960 -0.1243  0.3276
   66MOL   C21530245   5.112   5.698   0.422 -0.6706  0.2533 -0.3586
   66MOL   C21630246   4.994   5.658   0.487 -0.4615  0.0490 -0.0753
   66MOL   C21730247   4.942   5.721   0.606  0.0003  0.1167  0.5138
   66MOL   C21830248   5.022   5.818   0.664 -0.4037  0.6639  0.0251
   66MOL   C21930249   4.983   5.875   0.801  0.3461  0.1529 -0.2191
   66MOL   O22030250   5.046   5.970   0.848  0.0319  0.0825  0.0216
   66MOL   O22130251   4.887   5.814   0.866 -0.4087  0.1797 -0.1198
   66MOL   C22230252   5.142   5.860   0.602  0.1266 -0.2339 -0.2591
   66MOL   C22330253   5.185   5.804   0.479 -0.2562 -0.0307  0.4262
   66MOL   H22430254   5.006   5.272   0.081 -0.4764 -1.1746  0.1308
   66MOL   H22530255   4.912   5.353   0.203  0.4323 -0.0594 -0.4229
   66MOL   H22630256   5.114   5.484   0.091  0.2699 -2.3387 -1.6392
   66MOL   H22730257   5.212   5.383   0.196 -0.5276 -2.3769 -1.4104
   66MOL   H22830258   4.934   5.577   0.447 -0.6515  0.6403 -0.9922
   66MOL   H22930259   4.851   5.684   0.652  0.0361  0.4276  0.8374
   66MOL   H23030260   5.211   5.930   0.647 -0.0395 -0.9295  1.0889
   66MOL   H23130261   5.286   5.830   0.450  0.6625 -1.5044  2.2034
   66MOL   O23230262   4.894   5.849   1.016  0.0369 -0.4581 -0.0421
   66MOL   C23330263   4.784   5.933   1.041 -0.2050 -1.0422 -0.0078
   66MOL   C23430264   4.790   5.993   1.186  0.3798 -0.1230 -0.0728
   66MOL   O23530265   4.918   6.062   1.198 -0.5528  0.1438 -0.0310
   66MOL   C23630266   4.931   6.194   1.206  0.3881 -0.0601 -0.3475
   66MOL   O23730267   4.834   6.269   1.202 -0.0587 -0.3525 -0.1663
   66MOL   C23830268   5.071   6.236   1.212  0.3282  0.2054  0.3830
   66MOL   C23930269   5.091   6.374   1.225 -0.3967  0.5147  0.3373
   66MOL   C24030270   5.219   6.429   1.212  0.0816  0.4176 -0.2966
   66MOL   C24130271   5.326   6.344   1.188 -0.4659 -0.0169 -0.7029
   66MOL   C24230272   5.466   6.403   1.181  0.4377 -1.1377  0.1828
   66MOL   O24330273   5.494   6.525   1.176  1.0351 -0.5586  0.2584
   66MOL   O24430274   5.561   6.316   1.175  0.1246 -0.0600  0.4583
   66MOL   C24530275   5.312   6.204   1.177  0.3869 -0.3887 -0.0063
   66MOL   C24630276   5.182   6.152   1.184 -0.1235  0.2991  0.0610
   66MOL   H24730277   4.773   6.017   0.972 -1.3466 -3.4253 -2.8169
   66MOL   H24830278   4.694   5.876   1.020 -0.1954 -1.3140  0.6782
   66MOL   H24930279   4.787   5.910   1.256 -0.7147  0.2362  0.3146
   66MOL   H25030280   4.700   6.050   1.208  1.0810  1.1984 -0.5384
   66MOL   H25130281   5.008   6.443   1.232 -0.6028  0.0964  2.1181
   66MOL   H25230282   5.231   6.534   1.236  0.9466 -0.2546  2.3779
   66MOL   H25330283   5.398   6.140   1.181  0.6760 -0.0993 -1.1834
   66MOL   H25430284   5.158   6.047   1.181  1.4573 -0.0506 -1.3477
   66MOL   O25530285   5.700   6.365   1.209  0.8717  0.4272  0.3479
   66MOL   C25630286   5.767   6.410   1.091 -0.3338  1.0839  0.7065
   66MOL   C25730287   5.914   6.369   1.098  1.0205 -0.1544 -0.1468
   66MOL   O25830288   6.005   6.479   1.078 -0.4470  0.7111 -0.1073
   66MOL   C25930289   6.025   6.525   0.962  0.0247 -0.6492 -0.3031
   66MOL   O26030290   5.951   6.494   0.870  0.3136  0.2450  0.2571
   66MOL   C26130291   6.133   6.631   0.952  0.0109  0.5438 -0.0121
   66MOL   C26230292   6.180   6.699   1.067  0.1526 -0.6686  0.7876
   66MOL   C26330293   6.278   6.801   1.056  0.0446 -0.2391  0.3873
   66MOL   C26430294   6.329   6.833   0.928  0.2802 -0.1298 -0.4651
   66MOL   C26530295   6.440   6.931   0.925 -0.6262 -0.1612  0.4754
   66MOL   O26630296   6.523   6.941   0.830 -0.3859  0.3139  0.1823
   66MOL   O26730297   6.456   7.009   1.033  0.0462  0.0026  0.4471
   66MOL   C26830298   6.279   6.771   0.814  0.3001 -0.4476  0.3828
   66MOL   C26930299   6.185   6.670   0.825  0.4575 -0.2872 -0.3183
   66MOL   H27030300   5.727   6.371   0.997  0.2857  0.2884  0.7665
   66MOL   H27130301   5.749   6.516   1.075  0.3283  1.3156  1.4793
   66MOL   H27230302   5.948   6.280   1.046 -1.0849 -1.8910  1.3477
   66MOL   H27330303   5.930   6.346   1.204 -0.7897  0.7901  0.3675
   66MOL   H27430304   6.156   6.668   1.168  1.8442  1.7724  1.9715
   66MOL   H27530305   6.321   6.851   1.142 -1.0832 -1.1575  1.5098
   66MOL   H27630306   6.327   6.784   0.718 -1.1898  1.3320 -0.1389
   66MOL   H27730307   6.159   6.622   0.732 -1.2083 -0.6868  0.3422
   66MOL   O27830308   6.590   7.087   1.034 -0.0732 -0.2339 -0.3223
   66MOL   C27930309   6.560   7.220   0.982  0.4365  0.2271  0.4647
   66MOL   C28030310   6.661   7.316   1.042 -0.3785  0.0005 -0.0273
   66MOL   O28130311   6.617   7.450   1.017 -0.8923  0.0969 -0.8703
   66MOL   C28230312   6.653   7.500   0.902  0.8394  0.6382  0.1431
   66MOL   O28330313   6.721   7.442   0.816 -0.0625  0.3180  0.0228
   66MOL   C28430314   6.589   7.631   0.877  0.8089 -0.0391  0.5840
   66MOL   C28530315   6.564   7.720   0.989  0.2570  0.1142 -0.2168
   66MOL   C28630316   6.511   7.845   0.968  0.3545  0.3576  0.4857
   66MOL   C28730317   6.471   7.887   0.839  0.0298  1.1042  0.1952
   66MOL   C28830318   6.403   8.015   0.810 -0.2845 -1.0324 -0.3998
   66MOL   O28930319   6.356   8.046   0.699  0.6283  0.2590 -0.4176
   66MOL   O29030320   6.401   8.102   0.916 -0.1983  0.0830  0.1380
   66MOL   C29130321   6.495   7.801   0.732  0.0027 -0.6125  0.7741
   66MOL   C29230322   6.558   7.677   0.749  0.0425 -0.3739  0.0947
   66MOL   H29330323   6.555   7.227   0.873  0.2131  1.0876  0.5276
   66MOL   H29430324   6.463   7.250   1.020 -0.0757  0.1182 -0.7285
   66MOL   H29530325   6.764   7.309   1.005 -0.6715  1.6120 -1.2289
   66MOL   H29630326   6.660   7.302   1.150 -0.9597  0.7162  0.0659
   66MOL   H29730327   6.576   7.695   1.093 -0.9940  2.5661  0.5617
   66MOL   H29830328   6.486   7.912   1.049 -1.8589  1.0706 -0.7347
   66MOL   H29930329   6.471   7.834   0.632 -0.9527  1.7544  1.7381
   66MOL   H30030330   6.575   7.619   0.659 -0.5054  0.0308 -0.2737
   66MOL   O30130331   6.327   8.229   0.897 -0.3967  0.7977 -0.0245
   66MOL   C30230332   6.271   8.259   1.024  0.3092  0.3588  0.9570
   66MOL   C30330333   6.149   8.180   1.046  0.3130  0.7499  0.3199
   66MOL   O30430334   6.170   8.036   1.068 -0.1628 -0.5395  0.1495
   66MOL   C30530335   6.214   8.004   1.194  0.7032  0.0446  0.3284
   66MOL   O30630336   6.226   8.090   1.282 -0.4970  0.1165  0.2748
   66MOL   C30730337   6.243   7.857   1.203  0.0224 -0.5520 -0.3711
   66MOL   C30830338   6.318   7.808   1.312 -0.7677 -0.0725 -0.4672
   66MOL   C30930339   6.325   7.671   1.341 -0.4919 -0.5246  0.1943
   66MOL   C31030340   6.277   7.577   1.246 -0.1917  0.3954 -0.3894
   66MOL   C31130341   6.289   7.436   1.279  0.2132  0.1905 -0.1941
   66MOL   O31230342   6.322   7.404   1.391 -0.1513  0.2970  0.5501
   66MOL   O31330343   6.261   7.351   1.178 -0.0757 -0.0246  0.0716
   66MOL   C31430344   6.223   7.626   1.128  0.0541  0.0877  0.1293
   66MOL   C31530345   6.204   7.765   1.103  0.1694 -0.5465 -0.7150
   66MOL   H31630346   6.344   8.261   1.105 -0.0680 -1.5054  1.3699
   66MOL   H31730347   6.242   0.086   1.003  0.0756  0.8337  3.4068
   66MOL   H31830348   6.078   8.203   0.967  1.9659 -0.3050 -1.5005
   66MOL   H31930349   6.098   8.236   1.124  1.9297  0.9932  1.2395
   66MOL   H32030350   6.355   7.868   1.394  0.1887 -1.2867 -0.0176
   66MOL   H32130351   6.375   7.646   1.433 -2.4952 -2.0519  0.9167
   66MOL   H32230352   6.196   7.559   1.047  0.5015  0.0527  0.0090
   66MOL   H32330353   6.176   7.806   1.007  2.0454  1.6078 -0.3802
   66MOL   O32430354   6.279   7.212   1.214 -0.2791 -0.5303 -0.5424
   66MOL   C32530355   6.156   7.154   1.236  1.0284  0.9898 -0.5596
   66MOL   C32630356   6.060   7.173   1.116 -0.3591 -0.4723 -0.2095
   66MOL   O32730357   5.986   7.295   1.117  0.2589 -0.6548  0.4072
   66MOL   C32830358   5.906   7.330   1.222  0.1705  0.6281  0.6700
   66MOL   O32930359   5.871   7.253   1.312  0.0832 -0.5997 -0.4549
   66MOL   C33030360   5.854   7.468   1.204  0.4317 -0.3129  0.6450
   66MOL   C33130361   5.911   7.559   1.117 -0.5005 -1.5775  0.3647
   66MOL   C33230362   5.870   7.693   1.118 -0.0580  0.1377  0.4730
   66MOL   C33330363   5.760   7.733   1.193 -0.0524 -0.8281 -0.6374
   66MOL   C33430364   5.708   7.872   1.181  0.7143  0.1136  0.1519
   66MOL   O33530365   5.592   7.901   1.220  0.2854  0.3613 -0.5333
   66MOL   O33630366   5.791   7.954   1.123 -0.0750  0.4782 -0.5262
   66MOL   C33730367   5.707   7.644   1.285  0.4718  0.0484  0.2682
   66MOL   C33830368   5.749   7.511   1.292 -0.2155  0.4211  0.0929
   66MOL   H33930369   6.166   7.048   1.258  1.3789  1.0318 -0.5027
   66MOL   H34030370   6.113   7.191   1.329  0.8053  2.5906 -1.2834
   66MOL   H34130371   5.994   7.087   1.125 -0.1431 -0.4754  1.5507
   66MOL   H34230372   6.116   7.160   1.023 -2.7105  1.7929 -1.9828
   66MOL   H34330373   5.993   7.522   1.059  0.3765 -0.1238  0.6482
   66MOL   H34430374   5.909   7.763   1.046  1.4468 -1.1542  0.0092
   66MOL   H34530375   5.626   7.677   1.348 -0.0533 -0.3374 -0.1928
   66MOL   H34630376   5.711   7.445   1.369  0.7015  0.0305  0.2215
   66MOL   O34730377   5.737   8.093   1.108 -0.3530  0.1875 -0.5212
   66MOL   C34830378   5.692   8.115   0.979  0.3472  0.5498  0.2925
   66MOL   C34930379   5.805   8.115   0.879 -0.3748 -0.0048  0.2976
   66MOL   O35030380   5.844   7.987   0.852  0.1616 -0.4285  0.5261
   66MOL   C35130381   5.954   7.969   0.766  0.5180  0.0715  0.2874
   66MOL   O35230382   6.010   8.062   0.711 -0.6825  0.4773  0.2093
   66MOL   C35330383   5.992   7.826   0.752  0.1135 -0.8840 -0.0819
   66MOL   C35430384   5.905   7.724   0.788 -0.1168 -0.3379  0.0033
   66MOL   C35530385   5.955   7.591   0.795 -0.1163 -0.2051  0.1425
   66MOL   C35630386   6.085   7.554   0.749  0.6456  0.1307  0.3696
   66MOL   C35730387   6.132   7.413   0.730 -0.2400  0.5895  0.4194
   66MOL   O35830388   6.248   7.382   0.725 -0.4898  0.0347  0.3949
   66MOL   O35930389   6.037   7.323   0.729 -0.0275 -0.0829 -0.0729
   66MOL   C36030390   6.162   7.662   0.697 -0.2941  0.9122  1.0415
   66MOL   C36130391   6.118   7.795   0.701 -0.4843  0.4931  0.6096
   66MOL   H36230392   5.614   8.043   0.956  0.1822  1.0810 -0.8601
   66MOL   H36330393   5.645   8.214   0.983 -0.5436  0.1217  0.5779
   66MOL   H36430394   5.886   8.176   0.920  2.0060 -1.7874 -1.5622
   66MOL   H36530395   5.766   8.164   0.790 -2.4626 -1.9680  0.0931
   66MOL   H36630396   5.804   7.744   0.821 -0.9624 -1.3990 -1.8866
   66MOL   H36730397   5.892   7.514   0.836 -0.7405 -0.7071 -1.7152
   66MOL   H36830398   6.263   7.651   0.661 -0.4091 -0.2008  1.0146
   66MOL   H36930399   6.192   7.869   0.672 -1.3624  1.3423  0.4890
   66MOL   O37030400   6.087   7.182   0.732  0.2049  0.0104 -0.5725
   66MOL   C37130401   6.072   7.133   0.600  0.0811 -0.1396  0.2625
   66MOL   C37230402   6.086   6.981   0.604  0.3489 -0.3814 -0.2327
   66MOL   O37330403   5.962   6.928   0.644  0.1132 -0.0853  0.6715
   66MOL   C37430404   5.871   6.902   0.555 -0.4760  0.1572 -0.4050
   66MOL   O37530405   5.874   6.948   0.437 -0.3010 -0.1663  0.3744
   66MOL   C37630406   5.758   6.823   0.611 -0.0070  0.0901 -0.1306
   66MOL   C37730407   5.652   6.778   0.530 -0.2272 -0.0916 -0.1276
   66MOL   C37830408   5.548   6.708   0.584 -0.2652 -0.2443 -0.8210
   66MOL   C37930409   5.540   6.681   0.725 -0.3492 -0.0813 -0.3656
   66MOL   C38030410   5.427   6.596   0.776  0.0291  0.4322  0.0674
   66MOL   O38130411   5.411   6.577   0.898 -0.5252  0.6050 -0.0661
   66MOL   O38230412   5.347   6.542   0.682 -0.4114 -0.0318  0.1417
   66MOL   C38330413   5.637   6.741   0.807 -0.1311  0.0807  0.3082
   66MOL   C38430414   5.751   6.806   0.753  0.8083  1.4746  0.1094
   66MOL   H38530415   5.978   7.154   0.549 -0.2761 -2.4343 -0.1053
   66MOL   H38630416   6.150   7.179   0.541 -0.4417 -0.4675 -0.6968
   66MOL   H38730417   6.168   6.949   0.668 -0.7190 -1.3073  0.6821
   66MOL   H38830418   6.108   6.937   0.507  0.6074  0.2087 -0.4472
   66MOL   H38930419   5.662   6.794   0.424 -2.2357 -1.4230 -0.5215
   66MOL   H39030420   5.468   6.673   0.521  0.9709 -1.6700 -1.6211
   66MOL   H39130421   5.614   6.734   0.913  2.9036  0.1761  1.0111
   66MOL   H39230422   5.832   6.843   0.814  2.8960 -0.3626 -1.4638
   66MOL   O39330423   5.231   6.469   0.740  0.5241 -0.6898 -0.0116
   66MOL   C39430424   5.250   6.335   0.759 -0.5883 -0.1445 -0.5489
   66MOL   C39530425   5.120   6.282   0.823 -0.2103 -0.3023 -0.1919
   66MOL   O39630426   5.031   6.242   0.721 -0.3824 -0.5114 -0.1997
   66MOL   C39730427   4.930   6.319   0.683  0.2401  0.1977  0.1230
   66MOL   O39830428   4.922   6.446   0.703  0.2106  0.5749  0.6349
   66MOL   C39930429   4.829   6.242   0.611  0.0056  0.3784 -0.3454
   66MOL   C40030430   4.712   6.306   0.565 -0.4973 -0.3291  0.5081
   66MOL   C40130431   4.621   6.236   0.483 -0.2961  0.4773 -0.2830
   66MOL   C40230432   4.641   6.097   0.453  0.1039  0.2715  0.9745
   66MOL   C40330433   4.548   6.033   0.354 -0.0260  0.4523  0.8453
   66MOL   O40430434   4.538   5.913   0.343 -0.0221 -0.5621  0.1722
   66MOL   O40530435   4.490   6.125   0.273  0.1648 -0.0678 -0.1734
   66MOL   C40630436   4.751   6.028   0.502 -0.3769 -0.6445 -0.7113
   66MOL   C40730437   4.846   6.101   0.578 -0.3378 -0.0834 -0.5034
   66MOL   H40830438   5.270   6.291   0.661  1.0654  0.1180 -0.3545
   66MOL   H40930439   5.339   6.314   0.818 -1.1478 -0.0316  0.3332
   66MOL   H41030440   5.073   6.352   0.892 -0.8415 -0.2556 -0.6719
   66MOL   H41130441   5.136   6.202   0.896 -1.1366  0.8835  1.3515
   66MOL   H41230442   4.690   6.405   0.600 -1.1598 -0.3912  0.2729
   66MOL   H41330443   4.542   6.298   0.444  0.3602  0.6873 -1.2950
   66MOL   H41430444   4.768   5.922   0.489  1.4214 -0.4492 -0.1634
   66MOL   H41530445   4.933   6.048   0.612  0.1261  3.2190  3.9125
   66MOL   O41630446   4.406   6.068   0.161  0.0045  0.4807 -0.4381
   66MOL   C41730447   4.479   6.071   0.045 -0.1403 -0.2051 -0.1163
   66MOL   C41830448   4.523   6.211   8.261 -0.0970  0.4107 -0.3384
   66MOL   O41930449   4.445   6.272   8.157 -0.1793  0.2092  0.4426
   66MOL   C42030450   4.457   6.225   8.026 -0.0089  0.0136  0.1619
   66MOL   O42130451   4.498   6.118   7.986  0.2785 -0.6812  0.4293
   66MOL   C42230452   4.413   6.330   7.925  0.3396  0.2509 -0.2396
   66MOL   C42330453   4.398   6.465   7.965 -0.1620 -0.1031 -0.2700
   66MOL   C42430454   4.364   6.559   7.871 -0.0056  0.1333  0.3456
   66MOL   C42530455   4.345   6.526   7.736  0.0085 -0.6840  0.7652
   66MOL   C42630456   4.320   6.642   7.643 -0.4342 -0.4989 -0.0556
   66MOL   O42730457   4.366   6.760   7.652 -0.5594 -0.2826 -0.1627
   66MOL   O42830458   4.239   6.609   7.547 -0.4745 -0.1900 -0.3313
   66MOL   C42930459   4.339   6.388   7.698 -0.5003  0.3079  0.2185
   66MOL   C43030460   4.380   6.291   7.794  0.0192 -0.2103  0.0677
   66MOL   H43130461   4.564   6.003   0.052 -1.2450 -1.5336  0.6309
   66MOL   H43230462   4.426   6.018   8.242 -0.5771  0.5853 -0.3594
   66MOL   H43330463   4.614   6.184   8.206  0.8578  0.6364  1.1063
   66MOL   H43430464   4.554   6.284   0.060  1.9765 -2.2674  1.5203
   66MOL   H43530465   4.409   6.493   8.069 -0.7912  0.1106 -0.2581
   66MOL   H43630466   4.363   6.663   7.901 -0.1579 -0.2417  1.6424
   66MOL   H43730467   4.317   6.365   7.594 -1.9703  0.7502  0.4174
   66MOL   H43830468   4.386   6.186   7.770 -0.5910 -0.4119  0.7605
   66MOL   O43930469   4.188   6.721   7.468  0.1936 -0.0796  0.3785
   66MOL   C44030470   4.059   6.746   7.511 -0.4433  0.8856  0.3117
   66MOL   C44130471   3.983   6.850   7.420 -0.0825 -0.1373 -0.2712
   66MOL   O44230472   3.922   6.789   7.309 -0.1998  0.0682  0.5606
   66MOL   C44330473   3.830   6.853   7.245  0.8688  0.3379  0.0948
   66MOL   O44430474   3.799   6.969   7.261 -0.0892  0.0108  0.0848
   66MOL   C44530475   3.764   6.767   7.149  0.5034  0.4615 -0.3290
   66MOL   C44630476   3.703   6.824   7.030  0.6019 -0.1420 -0.1135
   66MOL   C44730477   3.630   6.744   6.941  0.0716 -0.6407  0.3166
   66MOL   C44830478   3.613   6.609   6.963 -0.2854  1.1151  0.2265
   66MOL   C44930479   3.547   6.521   6.857  0.1437  0.0568 -0.2212
   66MOL   O45030480   3.503   6.560   6.749 -0.3189 -0.0084  0.4193
   66MOL   O45130481   3.526   6.395   6.899 -0.7033 -0.3521 -0.1361
   66MOL   C45230482   3.669   6.554   7.081  0.5448  0.3002  0.1734
   66MOL   C45330483   3.735   6.631   7.178 -0.0068  0.4250  0.0665
   66MOL   H45430484   4.003   6.653   7.523  2.5523 -0.9684  0.2925
   66MOL   H45530485   4.060   6.783   7.614  0.7814  1.0560  0.2394
   66MOL   H45630486   4.057   6.920   7.383  0.7789 -0.4078  0.8850
   66MOL   H45730487   3.905   6.898   7.478 -0.2898  1.1630 -1.6078
   66MOL   H45830488   3.725   6.923   6.993  0.3929  0.6167  1.7108
   66MOL   H45930489   3.587   6.788   6.853 -1.9589  0.8067  1.9930
   66MOL   H46030490   3.654   6.448   7.099 -0.3804  0.1561 -1.3485
   66MOL   H46130491   3.780   6.582   7.263 -1.0154  1.9860  1.5317
   66MOL   H46230492   3.459   6.345   6.854  0.2342 -2.4357  0.7125
   67MOL     O130493   0.550   5.819   8.235  0.0564 -0.7783 -0.0015
   67MOL     C230494   0.621   5.861   8.115  0.4557  0.7213  0.3580
   67MOL     C330495   0.749   5.774   8.095 -0.2432 -0.4904 -0.0727
   67MOL     O430496   0.847   5.825   8.187 -0.3765 -0.2517 -0.1032
   67MOL     C530497   0.852   5.786   0.047  0.0743  0.3613 -0.0142
   67MOL     O630498   0.762   5.721   0.104  0.1336  0.0940  0.2538
   67MOL     C730499   0.969   5.852   0.117 -0.9750 -0.0931  0.6935
   67MOL     C830500   0.974   5.858   0.256 -0.3386  0.1213 -0.0809
   67MOL     C930501   1.083   5.913   0.322  0.2337 -0.0999 -0.0299
   67MOL    C1030502   1.188   5.977   0.252 -0.2861  0.5853 -0.5147
   67MOL    C1130503   1.298   6.049   0.318 -0.4008 -0.1048 -0.2322
   67MOL    O1230504   1.379   6.134   0.277 -0.9912  0.4568 -0.0400
   67MOL    O1330505   1.307   6.014   0.447  0.4109 -0.2329  0.2359
   67MOL    C1430506   1.187   5.972   0.112 -0.1248  0.5603  0.1271
   67MOL    C1530507   1.081   5.907   0.047  0.0823 -0.0522  0.1749
   67MOL    H1630508   0.559   5.835   8.029 -0.9355  2.4237  0.8180
   67MOL    H1730509   0.635   5.969   8.120  1.1408  0.5952  1.3354
   67MOL    H1830510   0.784   5.782   7.992 -1.9195 -2.0865 -0.7956
   67MOL    H1930511   0.726   5.670   8.121  0.2070 -0.6782 -0.4074
   67MOL    H2030512   0.883   5.828   0.306  0.8062 -0.0038  2.0206
   67MOL    H2130513   1.070   5.913   0.429 -4.0496 -0.1093 -0.4522
   67MOL    H2230514   1.273   6.004   0.055 -0.1359 -0.0411 -0.2400
   67MOL    H2330515   1.097   5.893   8.217  1.7122 -0.9883  0.5197
   67MOL    H2430516   0.606   5.804   0.034 -2.3060  0.6735  2.1436
   67MOL    O2530517   1.417   6.089   0.517  0.2171 -0.4771 -0.5902
   67MOL    C2630518   1.353   6.175   0.608 -0.3662  0.4342 -0.2170
   67MOL    C2730519   1.455   6.277   0.676 -0.2536  0.8187  0.3699
   67MOL    O2830520   1.534   6.197   0.766 -0.2717 -0.2533 -0.3370
   67MOL    C2930521   1.630   6.265   0.836 -0.7180  0.4691 -0.0370
   67MOL    O3030522   1.665   6.379   0.816 -0.7248  0.2723  0.2950
   67MOL    C3130523   1.697   6.182   0.938  0.0562 -0.3067 -0.1025
   67MOL    C3230524   1.664   6.044   0.960 -0.0275 -0.6087  0.0134
   67MOL    C3330525   1.713   5.972   1.070  0.6986  0.0167  0.0417
   67MOL    C3430526   1.808   6.028   1.155  0.3767 -0.3466 -0.4404
   67MOL    C3530527   1.844   5.953   1.278  0.5362 -0.8298  0.4075
   67MOL    O3630528   1.804   5.835   1.302 -0.1677 -0.2294 -0.0842
   67MOL    O3730529   1.944   6.010   1.340 -0.2341  0.3503  0.6052
   67MOL    C3830530   1.861   6.159   1.128 -0.1803 -0.1289 -0.2999
   67MOL    C3930531   1.799   6.236   1.026 -0.5856 -0.5528  0.3659
   67MOL    H4030532   1.280   6.230   0.548 -1.7980 -0.9473  0.2345
   67MOL    H4130533   1.301   6.115   0.683  1.8783  1.2123  2.0079
   67MOL    H4230534   1.399   6.359   0.721 -0.5406 -0.3631  2.2229
   67MOL    H4330535   1.523   6.319   0.602  1.5628 -0.4490  1.2903
   67MOL    H4430536   1.597   5.993   0.894  0.1138 -0.2071 -0.4417
   67MOL    H4530537   1.688   5.868   1.089  0.5460  0.0250 -0.1194
   67MOL    H4630538   1.942   6.206   1.183 -1.4631  3.8348 -1.6579
   67MOL    H4730539   1.834   6.338   1.017  1.4579 -1.3794 -1.9454
   67MOL    O4830540   2.015   5.911   1.428 -0.0333 -0.0372  0.6968
   67MOL    C4930541   1.989   5.936   1.563 -0.2659 -0.5309  0.1679
   67MOL    C5030542   2.044   5.810   1.629 -0.3366 -0.0554 -0.1917
   67MOL    O5130543   2.037   5.836   1.766 -0.3658  0.2152 -0.4165
   67MOL    C5230544   1.948   5.766   1.842  0.1610 -0.3893 -0.3987
   67MOL    O5330545   1.894   5.664   1.804  0.0611  0.2160  0.6278
   67MOL    C5430546   1.944   5.820   1.977  0.0139 -0.3947 -0.4600
   67MOL    C5530547   1.982   5.956   2.009  0.6060 -0.0860 -0.1554
   67MOL    C5630548   1.970   6.009   2.141 -0.3404 -0.1863 -0.0827
   67MOL    C5730549   1.916   5.931   2.240 -0.8265 -0.3270  0.1942
   67MOL    C5830550   1.897   5.986   2.376 -0.1629  0.1709  0.0500
   67MOL    O5930551   1.870   5.917   2.477 -0.0690  0.0417  0.2532
   67MOL    O6030552   1.918   6.114   2.377  0.3592 -0.2758  0.0923
   67MOL    C6130553   1.887   5.794   2.217  0.6913 -0.0192  0.2909
   67MOL    C6230554   1.898   5.742   2.085 -0.2068  0.3197  0.1306
   67MOL    H6330555   2.047   6.022   1.598 -0.9970 -1.8524  5.0619
   67MOL    H6430556   1.883   5.957   1.576  0.4216  3.1775  0.5417
   67MOL    H6530557   2.145   5.805   1.588 -0.7658  0.3451 -1.3259
   67MOL    H6630558   1.993   5.724   1.587  1.0726 -0.6904 -0.6406
   67MOL    H6730559   2.021   6.027   1.937 -0.8550  1.0176  0.1046
   67MOL    H6830560   2.017   6.106   2.153  0.9883 -0.5726 -1.9176
   67MOL    H6930561   1.852   5.725   2.293 -3.5186  1.7924  0.1499
   67MOL    H7030562   1.873   5.638   2.072 -1.8362  0.4774  1.8059
   67MOL    O7130563   1.912   6.177   2.520 -0.4150  0.6203  0.7590
   67MOL    C7230564   2.046   6.173   2.572  0.4235 -0.0498 -0.0006
   67MOL    C7330565   2.134   6.283   2.524  0.1442  0.0702 -0.8542
   67MOL    O7430566   2.070   6.396   2.580 -0.2899  0.0011  0.2178
   67MOL    C7530567   2.132   6.506   2.598 -0.7948 -0.2566  0.4254
   67MOL    O7630568   2.235   6.538   2.541 -0.1769  0.1679  0.0168
   67MOL    C7730569   2.054   6.592   2.685  0.0426  0.2625  0.5201
   67MOL    C7830570   2.065   6.728   2.677 -0.0309 -0.2865  0.0746
   67MOL    C7930571   2.000   6.824   2.758 -0.0101 -0.2813 -0.1661
   67MOL    C8030572   1.913   6.769   2.854 -0.1260 -0.0672  0.0218
   67MOL    C8130573   1.844   6.862   2.950 -0.3812  0.4044  0.0498
   67MOL    O8230574   1.880   6.974   2.982  0.1244 -0.3197 -0.0070
   67MOL    O8330575   1.750   6.802   3.018 -0.7470  0.2563  0.9203
   67MOL    C8430576   1.887   6.632   2.861 -0.2110  0.1508  0.4758
   67MOL    C8530577   1.957   6.545   2.774  0.5574 -0.5146 -0.9202
   67MOL    H8630578   2.041   6.171   2.681  1.5296 -0.5013  0.0510
   67MOL    H8730579   2.095   6.078   2.553 -0.5824 -0.5578 -0.1308
   67MOL    H8830580   2.148   6.294   2.417  0.2129 -0.1862 -0.8737
   67MOL    H8930581   2.240   6.272   2.549 -0.5298 -1.0843  1.7041
   67MOL    H9030582   2.141   6.773   2.614  1.0041  0.1465  1.6209
   67MOL    H9130583   2.025   6.928   2.747 -0.7883  0.0497  1.0420
   67MOL    H9230584   1.819   6.583   2.930  2.6165 -2.5669  1.4375
   67MOL    H9330585   1.919   6.444   2.784  1.9552 -0.9188  0.3927
   67MOL    O9430586   1.670   6.879   3.113 -0.4505 -0.7781  0.4890
   67MOL    C9530587   1.563   6.937   3.044 -0.8516  0.4057 -0.6140
   67MOL    C9630588   1.460   6.830   2.997  0.1276 -1.0986 -0.6057
   67MOL    O9730589   1.371   6.818   3.107 -0.1740  0.1843 -0.3861
   67MOL    C9830590   1.241   6.823   3.099  0.4647  0.1181 -0.1163
   67MOL    O9930591   1.182   6.828   2.990  0.3071 -0.6726  0.4918
   67MOL   C10030592   1.168   6.827   3.232 -0.3706  0.1347  0.0431
   67MOL   C10130593   1.029   6.863   3.238 -0.9273  0.2201 -0.3847
   67MOL   C10230594   0.956   6.871   3.359  0.6181 -0.5194 -0.1429
   67MOL   C10330595   1.015   6.825   3.479 -0.3835  0.0804 -1.0838
   67MOL   C10430596   0.939   6.827   3.604  0.4031  0.0329  0.2629
   67MOL   O10530597   0.965   6.749   3.699  0.4898 -0.4833 -0.0805
   67MOL   O10630598   0.843   6.921   3.606  0.2932 -0.4524 -0.2183
   67MOL   C10730599   1.148   6.766   3.477  0.0510  0.4548  0.3596
   67MOL   C10830600   1.227   6.791   3.361 -0.0419  0.3628 -0.0127
   67MOL   H10930601   1.526   7.011   3.115 -1.7187 -0.3294 -0.2909
   67MOL   H11030602   1.600   6.994   2.958  0.4937 -0.2517 -0.4851
   67MOL   H11130603   1.503   6.732   2.973 -0.6536 -1.8905  1.1254
   67MOL   H11230604   1.406   6.877   2.916 -0.9998 -1.3514 -0.0092
   67MOL   H11330605   0.980   6.893   3.146  0.6306 -1.3050 -1.7490
   67MOL   H11430606   0.858   6.914   3.369  0.9925 -0.3983  3.5350
   67MOL   H11530607   1.198   6.723   3.562 -0.9431 -0.6185  0.4013
   67MOL   H11630608   1.327   6.753   3.370  0.0539  0.2182 -1.5812
   67MOL   O11730609   0.736   6.880   3.702 -0.4468 -0.1566  0.5430
   67MOL   C11830610   0.745   6.950   3.822  0.1705  0.0951  0.9167
   67MOL   C11930611   0.599   6.962   3.866  0.2952  0.0686  0.1660
   67MOL   O12030612   0.526   7.040   3.767 -0.3961  0.0357  0.2580
   67MOL   C12130613   0.410   7.088   3.800 -0.6963  0.0757 -0.1516
   67MOL   O12230614   0.372   7.106   3.915 -0.6482 -0.7998 -0.3946
   67MOL   C12330615   0.329   7.119   3.676  0.5701  0.0764  0.3816
   67MOL   C12430616   0.201   7.182   3.693 -0.4452 -0.2358 -0.5513
   67MOL   C12530617   0.127   7.222   3.581 -0.3183  0.3205 -1.4101
   67MOL   C12630618   0.175   7.203   3.452  0.7857  0.1884 -0.0491
   67MOL   C12730619   0.091   7.239   3.341 -0.3913  0.2736 -0.3275
   67MOL   O12830620   8.248   7.271   3.365 -0.3283 -0.7281 -0.0872
   67MOL   O12930621   0.155   7.232   3.215  0.1311 -0.6846  0.0030
   67MOL   C13030622   0.295   7.132   3.439  0.0040  0.4474 -0.2464
   67MOL   C13130623   0.376   7.081   3.548 -1.0007 -0.1800 -0.2565
   67MOL   H13230624   0.802   6.895   3.897 -1.8238 -0.7222  1.8627
   67MOL   H13330625   0.801   7.044   3.821 -0.1031  0.2510 -0.0815
   67MOL   H13430626   0.583   6.989   3.971 -1.0275  0.0598 -0.0283
   67MOL   H13530627   0.559   6.862   3.853 -0.5959  0.3443  0.7522
   67MOL   H13630628   0.170   7.211   3.792  0.7955 -0.6111 -0.0374
   67MOL   H13730629   0.040   7.284   3.590  0.5599  1.3568  0.1960
   67MOL   H13830630   0.339   7.102   3.346  0.9429 -1.5420  0.8011
   67MOL   H13930631   0.462   7.020   3.524 -1.3769 -0.9401  0.3098
   67MOL   O14030632   0.069   7.285   3.102  0.2852 -0.3068 -0.0894
   67MOL   C14130633   0.003   7.167   3.047 -0.4180 -0.0989 -0.7306
   67MOL   C14230634   8.130   7.181   3.075 -0.1927  0.3606 -0.1146
   67MOL   O14330635   8.044   7.103   2.994 -0.3533 -0.4045 -0.2475
   67MOL   C14430636   8.034   6.968   2.996  0.2259  0.6759 -0.0565
   67MOL   O14530637   8.077   6.903   3.091 -0.3939 -0.4508  0.2845
   67MOL   C14630638   7.958   6.911   2.877  1.0029  0.2291  0.0387
   67MOL   C14730639   7.950   6.773   2.853  0.0593 -0.1782 -0.0913
   67MOL   C14830640   7.893   6.716   2.740 -0.0405  0.0996 -0.2212
   67MOL   C14930641   7.831   6.802   2.646  0.4276 -0.1735 -0.3973
   67MOL   C15030642   7.752   6.747   2.529  0.5828  0.3509 -0.1906
   67MOL   O15130643   7.709   6.630   2.526  0.6253 -0.8261  0.3468
   67MOL   O15230644   7.720   6.838   2.434 -0.6284 -0.6058 -0.0647
   67MOL   C15330645   7.830   6.944   2.675  1.4113 -0.5313  0.1719
   67MOL   C15430646   7.893   6.994   2.794 -0.2189 -0.6371 -0.0032
   67MOL   H15530647   0.030   7.165   2.942 -3.0669 -2.3709 -1.4195
   67MOL   H15630648   0.040   7.072   3.087  2.0449  1.1219  0.0193
   67MOL   H15730649   8.105   7.287   3.079 -0.2202  0.4273 -1.6094
   67MOL   H15830650   8.102   7.149   3.175 -1.0111  0.9237 -0.1552
   67MOL   H15930651   8.000   6.705   2.921  1.1123  0.8142  0.1392
   67MOL   H16030652   7.890   6.609   2.721 -0.8980  0.1683 -0.5089
   67MOL   H16130653   7.779   7.012   2.608  1.1700  0.6690  1.5459
   67MOL   H16230654   7.899   7.100   2.817 -2.2060 -0.4413 -0.2832
   67MOL   O16330655   7.672   6.780   2.301  0.0455  0.5518 -0.0437
   67MOL   C16430656   7.531   6.790   2.298 -0.0287  0.5621 -0.4181
   67MOL   C16530657   7.476   6.688   2.195  0.2998 -0.2221 -0.2809
   67MOL   O16630658   7.477   6.562   2.249 -0.2510 -0.0226  0.4323
   67MOL   C16730659   7.457   6.460   2.162  0.3863  0.4053 -0.4451
   67MOL   O16830660   7.415   6.480   2.049  0.9160  0.3153  0.5200
   67MOL   C16930661   7.498   6.328   2.210  0.1478  0.3927 -0.5456
   67MOL   C17030662   7.600   6.310   2.308 -0.1499 -0.3045 -0.0913
   67MOL   C17130663   7.639   6.183   2.337  0.2856  0.0903  0.6915
   67MOL   C17230664   7.578   6.067   2.278 -0.0210 -0.0507 -0.2601
   67MOL   C17330665   7.622   5.928   2.321 -0.0509  0.1136 -0.1763
   67MOL   O17430666   7.567   5.829   2.270 -0.1426 -0.0106 -0.1983
   67MOL   O17530667   7.713   5.926   2.417 -0.3031 -0.0400  0.1427
   67MOL   C17630668   7.472   6.083   2.185  0.1481  0.6515 -0.9236
   67MOL   C17730669   7.434   6.211   2.152 -0.3079 -1.2002  0.2798
   67MOL   H17830670   7.496   6.770   2.399  0.8228 -0.8969 -0.3891
   67MOL   H17930671   7.501   6.891   2.269 -3.6329 -0.4098 -0.2544
   67MOL   H18030672   7.516   6.701   2.094  0.7306  0.4646 -0.0233
   67MOL   H18130673   7.373   6.724   2.190  0.0817 -0.6068  1.2225
   67MOL   H18230674   7.635   6.396   2.364  1.9194 -1.6138  0.7091
   67MOL   H18330675   7.717   6.170   2.411 -0.0247 -1.7791  0.7162
   67MOL   H18430676   7.429   6.001   2.129 -0.6088  0.2172  0.2695
   67MOL   H18530677   7.368   6.216   2.067 -0.1139  1.0514  0.2402
   67MOL   O18630678   7.757   5.782   2.455 -0.4743  0.4566 -0.2862
   67MOL   C18730679   7.884   5.755   2.391  0.5044  0.2731  0.8605
   67MOL   C18830680   7.981   5.688   2.487 -0.1922  0.3058  0.1959
   67MOL   O18930681   8.116   5.703   2.446 -0.1181  0.3143  0.4507
   67MOL   C19030682   8.181   5.817   2.467 -0.2304 -0.2207  0.2563
   67MOL   O19130683   8.128   5.917   2.506 -0.1451  0.0598 -0.0393
   67MOL   C19230684   0.053   5.801   2.429 -0.1058  0.1322  0.3652
   67MOL   C19330685   0.138   5.914   2.445 -0.4505  0.1260 -0.0337
   67MOL   C19430686   0.273   5.899   2.400  0.3222  0.5069 -0.4818
   67MOL   C19530687   0.324   5.778   2.343  0.5940  0.0645 -0.0939
   67MOL   C19630688   0.465   5.766   2.301  0.4380  0.1087  0.4771
   67MOL   O19730689   0.504   5.680   2.218  0.2747  0.1994  0.0135
   67MOL   O19830690   0.551   5.861   2.351 -0.2452 -0.4042  0.2283
   67MOL   C19930691   0.237   5.663   2.333 -0.0948  0.8166  0.2339
   67MOL   C20030692   0.101   5.680   2.370  0.0189  0.0101 -0.3902
   67MOL   H20130693   7.872   5.690   2.305 -1.6601  0.3330  1.0972
   67MOL   H20230694   7.926   5.844   2.344 -1.3639  0.8001  0.1674
   67MOL   H20330695   7.958   5.583   2.506  0.9758  0.0447  0.2363
   67MOL   H20430696   7.987   5.732   2.587  1.7798  0.2309  0.1299
   67MOL   H20530697   0.097   6.006   2.484  1.1897 -0.1665  2.4413
   67MOL   H20630698   0.343   5.981   2.409 -0.7724  1.2593  1.6516
   67MOL   H20730699   0.277   5.567   2.304 -0.2885  0.6099  0.6434
   67MOL   H20830700   0.049   5.586   2.361 -0.1725 -0.1445  1.9343
   67MOL   O20930701   0.698   5.841   2.311  0.3342  0.1939 -0.1491
   67MOL   C21030702   0.762   5.765   2.410  0.3260 -0.3940 -0.6651
   67MOL   C21130703   0.896   5.831   2.442 -0.3486 -0.4648  0.1837
   67MOL   O21230704   0.877   5.956   2.504 -0.1429 -0.2225 -0.1241
   67MOL   C21330705   0.867   5.964   2.639  0.7922 -0.2704  0.4691
   67MOL   O21430706   0.877   5.868   2.717  0.2113  0.2958 -0.5994
   67MOL   C21530707   0.817   6.094   2.686  0.2559 -0.1624  0.0740
   67MOL   C21630708   0.763   6.097   2.815 -0.1808  0.1956  0.2090
   67MOL   C21730709   0.699   6.218   2.860 -0.7237  0.0392 -0.8608
   67MOL   C21830710   0.700   6.328   2.783 -0.4052 -0.2934  0.1930
   67MOL   C21930711   0.628   6.453   2.825 -0.2347  0.3173 -0.6992
   67MOL   O22030712   0.636   6.555   2.758 -0.3022 -0.0964 -0.5805
   67MOL   O22130713   0.557   6.445   2.941 -0.2146 -0.6679 -0.5596
   67MOL   C22230714   0.771   6.329   2.663 -0.2505  0.9070  0.2968
   67MOL   C22330715   0.827   6.208   2.604  0.5170 -0.2764  0.8087
   67MOL   H22430716   0.703   5.763   2.502 -1.4265  2.0370 -1.6992
   67MOL   H22530717   0.773   5.661   2.378 -2.4117 -0.8419 -0.2397
   67MOL   H22630718   0.945   5.859   2.348 -1.6032  1.0725 -0.0193
   67MOL   H22730719   0.968   5.772   2.499 -0.4552  0.3149  1.1272
   67MOL   H22830720   0.766   6.014   2.885  0.7380  0.1405  0.1164
   67MOL   H22930721   0.650   6.219   2.956  0.4401 -1.3008 -0.2206
   67MOL   H23030722   0.767   6.418   2.602  0.9665 -0.3855 -1.7365
   67MOL   H23130723   0.870   6.208   2.505 -1.2663 -1.2910  0.0043
   67MOL   O23230724   0.484   6.571   2.984 -0.0551  0.0758 -0.5974
   67MOL   C23330725   0.344   6.550   2.962 -0.1825  0.1503  0.4256
   67MOL   C23430726   0.258   6.665   3.030 -0.2783  0.5094  0.6864
   67MOL   O23530727   0.279   6.664   3.170 -0.1191 -0.2846 -0.1296
   67MOL   C23630728   0.200   6.734   3.250 -0.5258  0.3989 -0.3605
   67MOL   O23730729   0.113   6.811   3.210 -0.3285  0.1358 -0.2134
   67MOL   C23830730   0.241   6.719   3.391  0.0052 -0.2099  0.0602
   67MOL   C23930731   0.186   6.807   3.488 -0.2649  0.6179  0.3514
   67MOL   C24030732   0.220   6.794   3.624  0.2820  0.0463  0.2479
   67MOL   C24130733   0.310   6.689   3.662 -0.2260 -0.6178 -0.2635
   67MOL   C24230734   0.332   6.663   3.810 -0.2539  0.3894 -0.5233
   67MOL   O24330735   0.386   6.562   3.851  0.3933 -0.0348  0.1490
   67MOL   O24430736   0.281   6.758   3.890 -0.9015  0.6555  0.0585
   67MOL   C24530737   0.369   6.601   3.564  0.8150  0.0970 -0.2249
   67MOL   C24630738   0.330   6.618   3.428 -1.1151 -0.2575  0.0634
   67MOL   H24730739   0.308   6.554   2.859  0.0459  0.0012  0.3395
   67MOL   H24830740   0.305   6.459   3.007 -0.8442 -1.5231 -3.2854
   67MOL   H24930741   0.151   6.656   3.010 -0.4352 -0.1036  1.7119
   67MOL   H25030742   0.295   6.758   2.987  0.2725  0.4162  0.9546
   67MOL   H25130743   0.123   6.890   3.459  1.0246  1.7768  0.8024
   67MOL   H25230744   0.184   6.862   3.699 -3.3207  1.1465 -2.3317
   67MOL   H25330745   0.433   6.519   3.591  0.4918  0.4115  1.6121
   67MOL   H25430746   0.379   6.552   3.357 -0.1131  0.7796 -0.2197
   67MOL   O25530747   0.349   6.763   4.024 -0.2885  0.1556 -0.2510
   67MOL   C25630748   0.260   6.714   4.122  0.3165 -0.3275  0.7890
   67MOL   C25730749   0.324   6.751   4.259  0.2911  0.6020  0.2110
   67MOL   O25830750   0.306   6.897   4.283  0.1071  0.3141 -0.4893
   67MOL   C25930751   0.187   6.935   4.335 -0.1465 -0.8131  0.0491
   67MOL   O26030752   0.099   6.859   4.383  0.0692  0.2981 -0.3173
   67MOL   C26130753   0.174   7.079   4.333 -0.3218 -0.4357  0.6490
   67MOL   C26230754   0.100   7.141   4.436 -0.3786  0.0027  0.0941
   67MOL   C26330755   0.105   7.282   4.453  0.4861  0.2455  0.2571
   67MOL   C26430756   0.174   7.364   4.353  0.4337 -0.1952 -0.2971
   67MOL   C26530757   0.172   7.509   4.379 -1.0770 -0.1357 -0.1308
   67MOL   O26630758   0.103   7.557   4.469 -0.0078  0.1461 -0.9298
   67MOL   O26730759   0.223   7.584   4.282 -0.4204 -0.0483  0.3636
   67MOL   C26830760   0.231   7.300   4.242 -0.5778  0.5652  0.3620
   67MOL   C26930761   0.236   7.157   4.239  0.2809 -0.1176 -0.2872
   67MOL   H27030762   0.158   6.753   4.112  0.6983  0.8812  1.4478
   67MOL   H27130763   0.253   6.606   4.111 -0.2818 -0.1922 -0.1502
   67MOL   H27230764   0.429   6.726   4.273  0.0149 -0.7893 -0.1211
   67MOL   H27330765   0.280   6.694   4.341 -0.4110 -1.8688 -1.8378
   67MOL   H27430766   0.045   7.081   4.507 -0.0200 -1.0758 -0.5211
   67MOL   H27530767   0.050   7.321   4.538  0.8059  0.3509  0.4199
   67MOL   H27630768   0.275   7.361   4.165 -4.0660  1.6826 -0.8511
   67MOL   H27730769   0.289   7.109   4.158 -1.7860 -0.3568 -1.5265
   67MOL   O27830770   0.227   7.733   4.305 -0.2531 -0.3219  0.2150
   67MOL   C27930771   0.134   7.796   4.218  0.1635  0.5654  0.3466
   67MOL   C28030772   0.143   7.947   4.218 -0.8941 -0.4253 -0.0788
   67MOL   O28130773   0.020   8.010   4.263 -0.1666 -0.0889  0.0191
   67MOL   C28230774   8.275   8.069   4.388  0.2366  0.4939  0.4784
   67MOL   O28330775   0.094   8.072   4.474 -0.1653 -0.2693 -0.0476
   67MOL   C28430776   8.136   8.113   4.413  0.6259 -0.6090 -0.2887
   67MOL   C28530777   8.103   8.177   4.534 -0.1198  0.5095  0.7662
   67MOL   C28630778   7.971   8.219   4.557 -0.6836 -0.3339 -0.5567
   67MOL   C28730779   7.871   8.214   4.455  0.7028  0.7076 -0.6832
   67MOL   C28830780   7.734   0.001   4.465  0.4189 -0.5982  0.3536
   67MOL   O28930781   7.644   8.253   4.383 -0.6732 -0.0389  0.4485
   67MOL   O29030782   7.719   0.089   4.569 -0.0188  0.4559  0.2716
   67MOL   C29130783   7.906   8.148   4.331  0.4949  0.0395 -0.5672
   67MOL   C29230784   8.038   8.102   4.311  0.4591  0.2916 -0.1712
   67MOL   H29330785   0.158   7.772   4.114 -1.1345 -1.4854  0.4949
   67MOL   H29430786   0.033   7.757   4.233  0.3321 -0.0704 -0.1203
   67MOL   H29530787   0.172   7.987   4.121  1.1409 -0.0382  0.6563
   67MOL   H29630788   0.212   7.977   4.297 -0.7413 -0.4994 -0.1842
   67MOL   H29730789   8.180   8.198   4.607  3.6345 -0.9507 -2.5653
   67MOL   H29830790   7.951   8.270   4.650 -1.4277 -1.2469 -0.2155
   67MOL   H29930791   7.841   8.149   4.244  0.2591 -1.0176 -0.4090
   67MOL   H30030792   8.078   8.063   4.218 -2.4037  2.3371 -2.3753
   67MOL   O30130793   7.595   0.172   4.581 -0.0122 -0.0421  0.1312
   67MOL   C30230794   7.589   0.284   4.501 -0.2733 -0.4568  0.1803
   67MOL   C30330795   7.687   0.399   4.535 -0.6415  0.8960 -0.1762
   67MOL   O30430796   7.810   0.360   4.483  0.2519 -0.4243 -0.7138
   67MOL   C30530797   7.911   0.446   4.474 -0.0015  0.4476 -0.7404
   67MOL   O30630798   7.898   0.568   4.504  0.7588 -0.4000 -0.0535
   67MOL   C30730799   8.036   0.386   4.439  0.1241 -0.6134  0.5533
   67MOL   C30830800   8.152   0.464   4.448  0.1903 -0.3193  0.3478
   67MOL   C30930801   0.003   0.417   4.408  0.1663 -1.2283 -0.3157
   67MOL   C31030802   0.026   0.288   4.378  0.0734 -0.1862 -0.1063
   67MOL   C31130803   0.166   0.238   4.360 -0.6150  0.2789 -0.8247
   67MOL   O31230804   0.195   0.123   4.327 -0.8032  0.5079  0.2448
   67MOL   O31330805   0.257   0.331   4.389  0.0923  0.1230 -0.1206
   67MOL   C31430806   8.187   0.208   4.357 -0.1813  0.5723 -0.2051
   67MOL   C31530807   8.052   0.253   4.378  0.0935 -0.2135 -0.1332
   67MOL   H31630808   7.587   0.266   4.394  0.3519 -1.0382  0.2683
   67MOL   H31730809   7.494   0.336   4.512 -0.8210 -1.1699 -1.1309
   67MOL   H31830810   7.682   0.424   4.641 -3.0055 -1.0468  0.2115
   67MOL   H31930811   7.656   0.488   4.480 -1.1278  0.2868 -0.9096
   67MOL   H32030812   8.163   0.562   4.493 -1.3133  0.5086 -1.0245
   67MOL   H32130813   0.083   0.488   4.425  0.3130 -0.9085 -2.2419
   67MOL   H32230814   8.211   0.106   4.329 -1.1216  0.2483  0.1444
   67MOL   H32330815   7.967   0.193   4.351  0.6899 -0.5788 -1.2041
   67MOL   O32430816   0.392   0.291   4.358  0.0300  0.0165  0.0101
   67MOL   C32530817   0.426   0.346   4.231 -1.0019 -0.5982  0.0507
   67MOL   C32630818   0.540   0.282   4.164 -0.6161  0.1654  0.1833
   67MOL   O32730819   0.523   0.144   4.127  0.1847 -0.0603  0.0579
   67MOL   C32830820   0.558   0.045   4.206 -0.6084 -0.7421  0.1746
   67MOL   O32930821   0.620   0.058   4.310  0.2622 -0.3506  0.4826
   67MOL   C33030822   0.518   8.185   4.150  0.8273 -0.9541  0.0256
   67MOL   C33130823   0.563   8.067   4.210  0.2617  0.0477  0.0300
   67MOL   C33230824   0.533   7.939   4.155  0.5414  0.3396 -0.5785
   67MOL   C33330825   0.456   7.921   4.043  0.2204 -0.2905  0.6643
   67MOL   C33430826   0.423   7.783   3.999  0.1428 -0.7551  0.4797
   67MOL   O33530827   0.471   7.690   4.059 -0.0147  0.3028  0.0548
   67MOL   O33630828   0.361   7.772   3.881 -0.3752  0.0551  0.0110
   67MOL   C33730829   0.409   8.046   3.977 -0.6508  1.3807  0.3923
   67MOL   C33830830   0.445   8.175   4.028 -0.5344  0.7843 -1.0159
   67MOL   H33930831   0.338   0.333   4.167  0.2891  1.0986 -2.1349
   67MOL   H34030832   0.442   0.452   4.246 -0.8591 -0.8001  1.3229
   67MOL   H34130833   0.629   0.291   4.226 -1.0516  0.2343  0.7955
   67MOL   H34230834   0.569   0.330   4.070 -1.7603 -0.9067 -0.7426
   67MOL   H34330835   0.620   8.071   4.302  0.5466 -1.7712 -0.0581
   67MOL   H34430836   0.555   7.845   4.204  0.7266  1.2741  1.1415
   67MOL   H34530837   0.354   8.038   3.885  0.2179 -0.2562 -0.0005
   67MOL   H34630838   0.409   8.265   3.982 -0.1874  1.1464 -0.5851
   67MOL   O34730839   0.339   7.627   3.838 -0.2352 -0.2131  0.0713
   67MOL   C34830840   0.418   7.603   3.724 -0.4819 -0.0887  0.2603
   67MOL   C34930841   0.355   7.479   3.673  0.7185 -0.2574 -0.1692
   67MOL   O35030842   0.445   7.429   3.578 -0.3430 -0.1947 -0.8929
   67MOL   C35130843   0.427   7.452   3.446  0.7984  0.4633  0.9303
   67MOL   O35230844   0.338   7.523   3.397 -0.3785  0.4837  0.3672
   67MOL   C35330845   0.522   7.382   3.359  0.7014  0.8533  0.4596
   67MOL   C35430846   0.641   7.319   3.419  0.0283  0.3829  0.2939
   67MOL   C35530847   0.738   7.249   3.342 -0.9216 -1.1078 -0.2919
   67MOL   C35630848   0.724   7.237   3.204  0.1620 -0.2834 -0.8733
   67MOL   C35730849   0.819   7.161   3.120 -0.3057 -0.4507  0.1088
   67MOL   O35830850   0.942   7.165   3.143  0.2565  0.9814 -0.3963
   67MOL   O35930851   0.767   7.109   3.013 -0.2836 -0.0233 -0.3169
   67MOL   C36030852   0.617   7.306   3.144 -0.1958 -0.7662  0.0828
   67MOL   C36130853   0.524   7.383   3.222 -0.0986 -0.9998  0.0668
   67MOL   H36230854   0.409   7.688   3.657  0.8484 -1.2261 -1.4130
   67MOL   H36330855   0.520   7.593   3.763  0.6206  1.8806 -1.9867
   67MOL   H36430856   0.257   7.502   3.632  0.2194 -1.0421  0.5721
   67MOL   H36530857   0.335   7.419   3.763  0.3496  1.3502  0.8426
   67MOL   H36630858   0.654   7.329   3.525 -0.7827  1.2318  0.3249
   67MOL   H36730859   0.822   7.203   3.391 -0.7590 -0.0714  0.3997
   67MOL   H36830860   0.598   7.305   3.038 -0.6343 -0.6882  0.1625
   67MOL   H36930861   0.445   7.432   3.166 -0.6887 -0.9751  0.9057
   67MOL   O37030862   0.857   7.014   2.941  0.3232  0.7092 -0.7547
   67MOL   C37130863   0.916   7.071   2.826  0.2048 -0.3206  0.3309
   67MOL   C37230864   0.949   6.944   2.742  0.0216 -0.2912  0.3727
   67MOL   O37330865   0.993   6.977   2.612 -0.8066 -0.2605 -0.3810
   67MOL   C37430866   0.911   7.025   2.519  0.6824  0.6873  0.0476
   67MOL   O37530867   0.803   7.081   2.538  0.0261 -0.1886 -0.4953
   67MOL   C37630868   0.960   7.011   2.378  0.2840  0.9356 -0.5437
   67MOL   C37730869   0.876   7.029   2.267 -0.2265  0.4798 -0.3266
   67MOL   C37830870   0.920   7.009   2.133 -0.2375 -0.6625  0.5825
   67MOL   C37930871   1.056   6.982   2.111 -0.3831  0.0223  0.3297
   67MOL   C38030872   1.108   6.965   1.971  0.3318 -0.2075 -0.1774
   67MOL   O38130873   1.223   6.929   1.946 -0.6399 -0.2995  0.0645
   67MOL   O38230874   1.022   7.000   1.878  0.5725 -0.2516 -0.2057
   67MOL   C38330875   1.150   6.977   2.218 -0.0783  0.0111  0.2817
   67MOL   C38430876   1.092   6.983   2.347 -0.4082  0.6264  0.3263
   67MOL   H38530877   0.862   7.155   2.783  1.0222  0.2360  0.3946
   67MOL   H38630878   1.014   7.110   2.852 -0.5752  1.3613  0.8412
   67MOL   H38730879   0.862   6.881   2.725  0.9782 -1.5964  0.2753
   67MOL   H38830880   1.028   6.885   2.788  1.8582  2.1482  0.4626
   67MOL   H38930881   0.772   7.050   2.287  0.1051  2.5936 -0.6785
   67MOL   H39030882   0.845   7.019   2.056  1.3926 -1.0612 -1.1200
   67MOL   H39130883   1.257   6.967   2.204 -0.5504 -0.4803 -3.2835
   67MOL   H39230884   1.162   6.978   2.430  0.1398 -0.5238 -0.1966
   67MOL   O39330885   1.076   7.001   1.738 -0.3286  0.3894 -0.4744
   67MOL   C39430886   1.138   7.132   1.708  0.2063  0.1954 -0.6489
   67MOL   C39530887   1.030   7.235   1.670  0.5095  0.4984 -0.3607
   67MOL   O39630888   0.937   7.265   1.772  0.3268  0.0887 -0.2434
   67MOL   C39730889   0.959   7.355   1.865 -0.9330 -0.4510 -0.5634
   67MOL   O39830890   1.058   7.428   1.868 -0.6378 -0.0121 -0.7578
   67MOL   C39930891   0.848   7.366   1.964  0.2646  0.7105  0.3600
   67MOL   C40030892   0.759   7.262   1.997  0.0157  0.3643 -0.2835
   67MOL   C40130893   0.662   7.270   2.100  0.2179 -0.4561 -0.6762
   67MOL   C40230894   0.653   7.384   2.181  0.1332  0.1128 -0.5886
   67MOL   C40330895   0.552   7.386   2.289 -0.1901 -0.4227  0.1105
   67MOL   O40430896   0.455   7.312   2.281  0.5788 -0.4175  0.4438
   67MOL   O40530897   0.589   7.469   2.383  0.3644 -0.4562 -0.9894
   67MOL   C40630898   0.735   7.492   2.155  0.5129  1.2470 -0.1648
   67MOL   C40730899   0.836   7.477   2.054 -0.5876  0.0569 -1.3830
   67MOL   H40830900   1.200   7.160   1.793  0.0263  1.9504 -1.0915
   67MOL   H40930901   1.202   7.118   1.621  1.7854 -4.3723  1.0573
   67MOL   H41030902   0.975   7.226   1.576  1.4420  0.8256 -0.9426
   67MOL   H41130903   1.084   7.329   1.661 -0.4248  1.1046  0.1914
   67MOL   H41230904   0.752   7.178   1.929  0.4987  1.3475 -1.5761
   67MOL   H41330905   0.599   7.183   2.111 -0.6399  0.4840  2.4423
   67MOL   H41430906   0.729   7.582   2.215 -1.4725  0.6770  0.5292
   67MOL   H41530907   0.897   7.562   2.028  0.9053 -0.2195  1.0784
   67MOL   O41630908   0.515   7.436   2.513  0.2630 -0.7744 -0.4975
   67MOL   C41730909   0.593   7.348   2.596  0.6025  0.6800  0.2665
   67MOL   C41830910   0.705   7.427   2.665  0.4218  0.4819 -0.2445
   67MOL   O41930911   0.833   7.427   2.604  0.5759  0.0187 -0.3393
   67MOL   C42030912   0.876   7.541   2.544 -0.2193 -0.8498  1.1450
   67MOL   O42130913   0.837   7.658   2.570  0.1863 -0.2875  0.2035
   67MOL   C42230914   0.969   7.515   2.427  0.0954 -0.5528 -0.4616
   67MOL   C42330915   0.999   7.380   2.394 -0.7633 -0.1028 -0.4479
   67MOL   C42430916   1.084   7.356   2.282 -0.0917 -0.3094 -1.2094
   67MOL   C42530917   1.154   7.462   2.216  0.0562  0.1680  0.0222
   67MOL   C42630918   1.255   7.430   2.115 -0.0313  0.0391  0.6219
   67MOL   O42730919   1.321   7.524   2.065 -0.9294 -0.3375  0.0745
   67MOL   O42830920   1.255   7.302   2.079 -0.1935 -1.0198  0.0790
   67MOL   C42930921   1.118   7.590   2.254 -0.2231 -0.3081  0.6248
   67MOL   C43030922   1.024   7.617   2.352 -0.3855 -0.4748 -0.5903
   67MOL   H43130923   0.518   7.317   2.669  1.1800 -0.3180  0.4368
   67MOL   H43230924   0.628   7.259   2.544  0.0138  0.3377  0.4618
   67MOL   H43330925   0.730   7.383   2.762  1.9481 -0.2806 -0.9697
   67MOL   H43430926   0.665   7.526   2.688 -1.1607  0.2355 -1.7720
   67MOL   H43530927   0.959   7.302   2.457  0.1157  0.3807  0.7323
   67MOL   H43630928   1.096   7.256   2.242  1.4151 -0.2801 -0.8688
   67MOL   H43730929   1.169   7.673   2.206 -0.1194 -0.3167  0.7175
   67MOL   H43830930   0.997   7.718   2.381 -0.3883 -0.9894  1.2275
   67MOL   O43930931   1.349   7.267   1.963 -0.0534 -0.6134 -0.3635
   67MOL   C44030932   1.444   7.175   2.013  0.2217 -0.6800 -0.1910
   67MOL   C44130933   1.519   7.100   1.905 -0.4610  0.3642  0.0385
   67MOL   O44230934   1.612   7.003   1.966 -0.1846  0.5375  0.0135
   67MOL   C44330935   1.666   6.916   1.888 -0.0754 -1.0600  0.5392
   67MOL   O44430936   1.663   6.918   1.762  0.4822  0.2002  0.0062
   67MOL   C44530937   1.741   6.820   1.975  0.2972  0.7071 -0.3857
   67MOL   C44630938   1.680   6.776   2.095  0.5429  0.2521  0.2261
   67MOL   C44730939   1.741   6.677   2.168  0.0768 -0.3169  0.2970
   67MOL   C44830940   1.868   6.618   2.135 -0.1257  0.3951 -0.2727
   67MOL   C44930941   1.931   6.510   2.218  0.5462 -0.4136 -0.4531
   67MOL   O45030942   2.033   6.449   2.183 -0.0181 -0.4627  0.7519
   67MOL   O45130943   1.861   6.481   2.330  0.4345 -0.5302 -0.1815
   67MOL   C45230944   1.922   6.660   2.017 -0.5649  0.7898 -0.2694
   67MOL   C45330945   1.863   6.758   1.940 -0.0773 -0.7814  0.1072
   67MOL   H45430946   1.516   7.230   2.074  1.5186  0.2569 -2.4956
   67MOL   H45530947   1.393   7.102   2.076 -2.8001  1.9458  0.5899
   67MOL   H45630948   1.573   7.175   1.847 -0.8924  2.0580  1.7717
   67MOL   H45730949   1.448   7.052   1.838 -1.5503  0.7395  0.9024
   67MOL   H45830950   1.585   6.812   2.132  1.0367  1.1642  0.6136
   67MOL   H45930951   1.686   6.632   2.250 -0.4956 -1.8811 -0.9152
   67MOL   H46030952   2.016   6.620   1.983 -1.6072 -0.9502 -1.1895
   67MOL   H46130953   1.913   6.789   1.850 -0.7624 -1.0025 -0.3465
   67MOL   H46230954   1.902   6.405   2.369  0.3395 -0.1621  0.6563
   68MOL     O130955   0.379   6.262   0.958 -0.1311  0.3811  0.2824
   68MOL     C230956   0.353   6.297   0.829 -0.5128  0.0132  0.7105
   68MOL     C330957   0.282   6.435   0.821  0.1024 -0.7473  0.4873
   68MOL     O430958   0.253   6.470   0.689 -0.1543 -0.6039 -0.1330
   68MOL     C530959   0.276   6.593   0.623  0.1663  0.6245  0.7974
   68MOL     O630960   0.350   6.682   0.672 -0.0347  0.2714 -0.2543
   68MOL     C730961   0.198   6.603   0.498  0.7375 -0.2934 -0.3374
   68MOL     C830962   0.109   6.503   0.456  0.0091  0.1545  0.4705
   68MOL     C930963   0.031   6.521   0.341 -0.2657  0.2619  1.0240
   68MOL    C1030964   0.051   6.637   0.257  0.5992 -0.7759  0.0643
   68MOL    C1130965   8.253   6.661   0.131  0.8576  0.0241 -0.0168
   68MOL    O1230966   0.002   6.754   0.057  0.0715 -0.0570  0.3862
   68MOL    O1330967   8.150   6.580   0.110 -0.5330 -0.5261 -0.0057
   68MOL    C1430968   0.142   6.736   0.293 -0.3583 -0.5725  0.4791
   68MOL    C1530969   0.217   6.715   0.410 -0.1398  0.7412 -0.2131
   68MOL    H1630970   0.451   6.294   0.781 -0.0716 -0.2460  1.6085
   68MOL    H1730971   0.286   6.231   0.775  0.4860  0.3171 -0.9304
   68MOL    H1830972   0.355   6.504   0.863 -0.1628 -1.2647  1.8064
   68MOL    H1930973   0.187   6.432   0.874 -0.0038 -0.1992  0.3392
   68MOL    H2030974   0.107   6.416   0.519  0.7650 -1.1884 -1.3094
   68MOL    H2130975   8.233   6.454   0.297  0.0207  0.5908  0.0297
   68MOL    H2230976   0.167   6.812   0.221  2.6449 -2.3254 -0.4049
   68MOL    H2330977   0.295   6.781   0.444  0.2061 -0.1559  0.7687
   68MOL    H2430978   0.301   6.266   1.012 -0.7628 -1.2917 -0.4762
   68MOL    O2530979   8.100   6.590   8.240  0.3278 -0.0523  0.1671
   68MOL    C2630980   8.162   6.488   8.161 -0.7516  1.0746  0.0298
   68MOL    C2730981   8.107   6.349   8.186 -0.4075  0.0667 -0.9452
   68MOL    O2830982   8.169   6.280   0.016  0.2734  0.0134  0.1662
   68MOL    C2930983   8.124   6.167   0.048  0.4339  0.4220  0.8931
   68MOL    O3030984   8.045   6.097   8.254 -0.0468  1.2728  0.6039
   68MOL    C3130985   8.183   6.126   0.179  0.1741 -0.2086  0.1427
   68MOL    C3230986   8.114   6.029   0.243  0.4719  0.0065 -0.3765
   68MOL    C3330987   8.170   5.988   0.368 -0.5119  0.2398  0.8754
   68MOL    C3430988   0.011   6.040   0.425  0.3231  0.3451 -0.1929
   68MOL    C3530989   0.074   5.988   0.553  0.5469  0.0134  0.1781
   68MOL    O3630990   0.151   6.057   0.618  0.0292  0.0692  0.3132
   68MOL    O3730991   0.033   5.871   0.596  0.5787 -0.7949  0.2727
   68MOL    C3830992   0.081   6.132   0.344 -0.2811 -0.2803 -0.6095
   68MOL    C3930993   0.024   6.182   0.229 -0.2621 -0.0061  1.0118
   68MOL    H4030994   8.152   6.519   8.057 -0.2693  2.6040  0.4203
   68MOL    H4130995   8.269   6.480   8.181 -1.2885 -2.4837  1.8289
   68MOL    H4230996   8.131   6.292   8.096  0.9809 -1.0716  0.1365
   68MOL    H4330997   7.998   6.337   8.189 -0.5219  0.1704 -3.2465
   68MOL    H4430998   8.031   5.978   0.197  0.2136 -0.5299  0.6737
   68MOL    H4530999   8.118   5.911   0.424 -2.9956  0.5573 -0.9116
   68MOL    H4631000   0.160   6.184   0.396  0.4412 -1.8503 -0.1154
   68MOL    H4731001   0.056   6.269   0.174 -0.2138  0.3483  1.6069
   68MOL    O4831002   0.087   5.809   0.724  0.3634  0.2481  0.0383
   68MOL    C4931003   0.178   5.705   0.696 -0.3345  0.0315 -0.1843
   68MOL    C5031004   0.172   5.592   0.802 -0.0425  0.0553  0.5904
   68MOL    O5131005   0.300   5.579   0.864 -0.3342  0.0573 -0.4078
   68MOL    C5231006   0.413   5.548   0.799 -0.0049  0.5766 -0.1865
   68MOL    O5331007   0.416   5.504   0.684 -0.4472  0.0535 -0.1697
   68MOL    C5431008   0.529   5.557   0.900  0.1302 -0.5156 -0.2363
   68MOL    C5531009   0.661   5.526   0.869  0.2790  0.5050 -0.1642
   68MOL    C5631010   0.759   5.511   0.968 -0.9559  0.3698  0.0338
   68MOL    C5731011   0.739   5.528   1.106  0.4361 -0.3187 -0.2079
   68MOL    C5831012   0.843   5.508   1.211  0.2646  1.3011  0.1009
   68MOL    O5931013   0.961   5.480   1.186  0.2702  0.0517 -0.9777
   68MOL    O6031014   0.798   5.516   1.341  0.4778  0.1875  0.3213
   68MOL    C6131015   0.607   5.572   1.142 -0.4447 -0.1151 -0.0844
   68MOL    C6231016   0.505   5.583   1.038 -0.4923 -0.9773 -0.0660
   68MOL    H6331017   0.151   5.657   0.602  0.5996 -1.7796  0.4598
   68MOL    H6431018   0.279   5.741   0.680  0.3586 -2.4270 -1.4780
   68MOL    H6531019   0.140   5.495   0.765 -1.7656  0.6698  0.3917
   68MOL    H6631020   0.095   5.616   0.876  0.6394  0.6684  1.1133
   68MOL    H6731021   0.689   5.481   0.775 -1.1178  3.0207 -1.8346
   68MOL    H6831022   0.851   5.487   0.918 -0.4673 -1.3103  1.7204
   68MOL    H6931023   0.577   5.567   1.246  0.0670  0.8862  0.1233
   68MOL    H7031024   0.407   5.610   1.075 -0.5873  0.0242 -1.0433
   68MOL    O7131025   0.899   5.478   1.440 -0.1068 -0.2415  0.3032
   68MOL    C7231026   0.878   5.342   1.481 -0.1942 -0.5391  0.2990
   68MOL    C7331027   0.744   5.326   1.550 -0.0694 -0.4090  0.3255
   68MOL    O7431028   0.636   5.301   1.455 -0.2088 -0.2050  0.3562
   68MOL    C7531029   0.587   5.175   1.436 -0.2856 -0.6627  0.8429
   68MOL    O7631030   0.640   5.080   1.495  0.6289  0.4664  0.1521
   68MOL    C7731031   0.475   5.173   1.340  0.2132  0.3475  0.0006
   68MOL    C7831032   0.450   5.289   1.266  0.4634 -0.1885  0.7115
   68MOL    C7931033   0.354   5.300   1.168 -0.7974 -0.7314 -0.3501
   68MOL    C8031034   0.276   5.186   1.131 -0.5994  0.2929 -0.3423
   68MOL    C8131035   0.192   5.183   1.009  0.5819  0.3943 -0.1223
   68MOL    O8231036   0.157   5.279   0.943 -0.2322  0.3060  0.5197
   68MOL    O8331037   0.156   5.058   0.972  0.0199 -0.4927 -0.3689
   68MOL    C8431038   0.294   5.069   1.210 -0.0502 -0.1766  0.4285
   68MOL    C8531039   0.397   5.058   1.309 -0.1091 -0.6411 -0.8258
   68MOL    H8631040   0.887   5.264   1.406 -0.9140  0.0198 -0.3784
   68MOL    H8731041   0.966   5.321   1.541  0.4470 -0.4760 -0.6073
   68MOL    H8831042   0.721   5.426   1.585  2.0220  0.1238  0.2122
   68MOL    H8931043   0.746   5.256   1.634  0.2815  1.4298  1.8945
   68MOL    H9031044   0.496   5.383   1.291  2.1449 -0.4334 -1.3292
   68MOL    H9131045   0.333   5.396   1.123 -0.9023 -0.2406  0.7268
   68MOL    H9231046   0.235   4.983   1.184 -2.6055  1.8640 -0.7996
   68MOL    H9331047   0.412   4.960   1.353  1.3605 -1.0753 -2.2630
   68MOL    O9431048   0.075   5.044   0.847 -0.2639  0.2716 -0.5234
   68MOL    C9531049   8.217   5.083   0.869  0.6249 -0.0084  0.0270
   68MOL    C9631050   8.138   4.979   0.789 -0.4382  0.8522 -0.1097
   68MOL    O9731051   8.124   4.854   0.854  0.7848 -0.1415 -0.5724
   68MOL    C9831052   8.016   4.840   0.946 -0.2531 -0.3453 -0.1150
   68MOL    O9931053   7.932   4.929   0.969  0.2964 -0.8257 -0.5381
   68MOL   C10031054   8.016   4.708   1.016  0.1714 -0.5737 -0.6295
   68MOL   C10131055   8.125   4.613   1.006  0.6291  0.4905  0.9388
   68MOL   C10231056   8.137   4.491   1.075  0.0147 -1.1711 -0.0033
   68MOL   C10331057   8.032   4.465   1.170 -0.3220  0.0719 -0.1667
   68MOL   C10431058   8.035   4.342   1.255 -0.0152  0.6740 -0.1445
   68MOL   O10531059   7.937   4.276   1.293  0.0149  0.3719  0.0502
   68MOL   O10631060   8.164   4.312   1.268  0.1855  0.0098  0.1333
   68MOL   C10731061   7.919   4.551   1.176  0.1174  0.5050  0.1621
   68MOL   C10831062   7.922   4.675   1.110 -0.1844 -0.3529 -0.9144
   68MOL   H10931063   8.185   5.077   0.973 -0.9711  3.3217 -0.2118
   68MOL   H11031064   8.203   5.179   0.819 -0.8089 -0.7885 -1.0953
   68MOL   H11131065   8.188   4.960   0.694  1.5073 -1.4861  1.3006
   68MOL   H11231066   8.043   5.023   0.758 -0.8572  0.8069  1.1058
   68MOL   H11331067   8.203   4.632   0.933 -0.0752 -0.9778 -0.2252
   68MOL   H11431068   8.216   4.419   1.058  0.2436 -0.9028 -0.0617
   68MOL   H11531069   7.839   4.531   1.246 -0.2001 -0.8678 -0.5656
   68MOL   H11631070   7.837   4.736   1.134  1.4810  1.4774  0.5367
   68MOL   O11731071   8.197   4.208   1.370  0.5834 -0.1880 -0.1187
   68MOL   C11831072   8.219   4.273   1.494  0.2357 -0.0762  0.0752
   68MOL   C11931073   8.129   4.206   1.605  0.1052  0.1557  0.1339
   68MOL   O12031074   8.206   4.129   1.701  0.4438 -0.1633  0.1180
   68MOL   C12131075   8.204   3.997   1.684  0.6698  0.1704 -0.1220
   68MOL   O12231076   8.130   3.922   1.610  0.2740 -0.1849 -0.0505
   68MOL   C12331077   0.043   3.945   1.778 -0.2006  0.0985  0.1331
   68MOL   C12431078   0.099   4.019   1.880 -0.3053 -0.4514  0.2519
   68MOL   C12531079   0.201   3.971   1.966  0.6731 -0.6165  0.0800
   68MOL   C12631080   0.255   3.845   1.942  0.9212  0.9946 -0.0305
   68MOL   C12731081   0.378   3.796   2.016  0.3991 -0.0447 -0.1940
   68MOL   O12831082   0.398   3.821   2.133 -0.3379 -0.3975  1.1025
   68MOL   O12931083   0.459   3.712   1.942 -0.5266 -0.3384 -0.5825
   68MOL   C13031084   0.200   3.767   1.840 -0.2478 -0.3040  0.0114
   68MOL   C13131085   0.102   3.820   1.749 -0.2519  0.0948  0.3250
   68MOL   H13231086   0.047   4.262   1.525  1.1108  2.6272 -1.7283
   68MOL   H13331087   8.202   4.381   1.495 -2.8842 -0.5314  0.1774
   68MOL   H13431088   8.053   4.144   1.557  0.3778 -0.6692  0.7425
   68MOL   H13531089   8.073   4.275   1.668  1.3163  0.5788  0.7776
   68MOL   H13631090   0.064   4.115   1.916 -1.0208  0.0076 -1.6241
   68MOL   H13731091   0.233   4.036   2.046  0.7324 -2.5079  1.6229
   68MOL   H13831092   0.243   3.669   1.822 -0.5577 -0.7540  1.6187
   68MOL   H13931093   0.064   3.764   1.665  0.2068  0.8118 -0.3689
   68MOL   O14031094   0.585   3.662   2.019 -0.0988  0.2286  0.5780
   68MOL   C14131095   0.548   3.546   2.092  0.1495  0.8949 -0.2283
   68MOL   C14231096   0.527   3.418   2.016 -0.0529 -0.5636  0.0626
   68MOL   O14331097   0.414   3.419   1.928 -0.4069 -0.2489  0.8937
   68MOL   C14431098   0.342   3.301   1.902 -0.7864  0.6503 -0.5241
   68MOL   O14531099   0.354   3.202   1.973 -0.6170 -0.0436  0.0506
   68MOL   C14631100   0.247   3.314   1.784  0.3478 -0.4649 -0.3745
   68MOL   C14731101   0.144   3.221   1.761  0.1756  0.2468  1.0762
   68MOL   C14831102   0.056   3.241   1.653  0.5605 -0.4161 -0.0932
   68MOL   C14931103   0.057   3.359   1.570 -0.3151  0.0568  0.3567
   68MOL   C15031104   8.220   3.380   1.483 -0.2983  0.2061 -0.1687
   68MOL   O15131105   8.142   3.297   1.452 -0.0487 -0.0568  0.0929
   68MOL   O15231106   8.210   3.507   1.439  0.0226  0.0285 -0.0202
   68MOL   C15331107   0.167   3.448   1.589  0.4293  0.3922  0.5399
   68MOL   C15431108   0.252   3.427   1.701 -0.3740  0.6199 -0.0996
   68MOL   H15531109   0.628   3.530   2.164  1.0645  1.2452 -1.1525
   68MOL   H15631110   0.458   3.561   2.150 -0.0433 -1.8780  0.2696
   68MOL   H15731111   0.525   3.337   2.089 -1.8328 -1.0923 -0.5450
   68MOL   H15831112   0.609   3.403   1.947 -1.5021 -0.1651 -1.7952
   68MOL   H15931113   0.140   3.129   1.818  0.1930  0.7889  1.9593
   68MOL   H16031114   8.258   3.168   1.623  0.7053 -0.1478 -1.1425
   68MOL   H16131115   0.183   3.538   1.533  0.9600  0.6049  1.0302
   68MOL   H16231116   0.320   3.508   1.719 -0.9823  1.4939 -1.6866
   68MOL   O16331117   8.097   3.539   1.350  0.1484 -0.6065  0.2312
   68MOL   C16431118   7.983   3.579   1.435  0.3122 -0.1551  0.1709
   68MOL   C16531119   7.856   3.522   1.378 -0.3655  0.6635 -0.6289
   68MOL   O16631120   7.847   3.388   1.423  0.0488 -0.6604 -0.2862
   68MOL   C16731121   7.765   3.347   1.525  0.1600 -0.1483 -0.4579
   68MOL   O16831122   7.692   3.421   1.584  0.1865  0.0543 -0.5021
   68MOL   C16931123   7.782   3.196   1.561 -0.1237  0.0350 -0.3457
   68MOL   C17031124   7.856   3.115   1.475 -0.2563  0.4042 -0.1212
   68MOL   C17131125   7.874   2.978   1.521 -0.6299  0.2740 -0.4063
   68MOL   C17231126   7.810   2.929   1.637  0.2392 -0.4177 -0.2358
   68MOL   C17331127   7.835   2.794   1.681  0.0263 -0.1500 -0.3270
   68MOL   O17431128   7.879   2.709   1.604 -0.1606  0.7442  0.4088
   68MOL   O17531129   7.798   2.772   1.814  0.6662  0.5553 -0.3404
   68MOL   C17631130   7.736   3.025   1.718  0.6119 -0.4012  0.2916
   68MOL   C17731131   7.723   3.156   1.686 -0.2067 -0.6350  0.7506
   68MOL   H17831132   7.996   3.560   1.541 -1.9843 -1.1872  0.2897
   68MOL   H17931133   7.968   3.687   1.431  1.7105  0.1092  1.6928
   68MOL   H18031134   7.863   3.503   1.271 -0.2935  0.8020 -0.6487
   68MOL   H18131135   7.774   3.592   1.388 -0.9902 -0.1851  0.2377
   68MOL   H18231136   7.892   3.156   1.383 -0.6304  1.1534  0.0653
   68MOL   H18331137   7.935   2.916   1.455 -0.2659 -0.8976  1.0039
   68MOL   H18431138   7.683   2.990   1.806  0.3058  1.4192  0.8390
   68MOL   H18531139   7.673   3.222   1.755 -0.1251  0.3443 -0.1106
   68MOL   O18631140   7.797   2.630   1.853  0.4450 -0.2267 -0.9399
   68MOL   C18731141   7.919   2.600   1.908 -0.3731  0.1630 -0.5802
   68MOL   C18831142   7.942   2.673   2.036 -0.0046  0.1021 -0.2011
   68MOL   O18931143   8.058   2.622   2.091  0.4284 -0.3363 -0.0391
   68MOL   C19031144   8.097   2.667   2.209 -0.3539  0.0829  0.2398
   68MOL   O19131145   8.028   2.741   2.279 -0.1350  0.1191  0.0262
   68MOL   C19231146   8.230   2.609   2.242  0.5754 -0.3485  0.4928
   68MOL   C19331147   0.033   2.535   2.153  0.6981 -0.7751 -0.4261
   68MOL   C19431148   0.153   2.477   2.198 -0.1786  0.3751 -0.0847
   68MOL   C19531149   0.192   2.491   2.334  0.3175  0.1133 -0.1112
   68MOL   C19631150   0.318   2.413   2.369  0.9473  0.0616 -0.3347
   68MOL   O19731151   0.380   2.347   2.286 -0.9388 -0.3601  0.0746
   68MOL   O19831152   0.347   2.412   2.501  0.3323 -0.0917  0.0559
   68MOL   C19931153   0.129   2.585   2.417 -0.5634 -0.6696 -0.5133
   68MOL   C20031154   0.012   2.648   2.369  0.2668 -0.8988  0.2259
   68MOL   H20131155   7.913   2.494   1.932 -0.2582  0.2927  0.0406
   68MOL   H20231156   8.003   2.613   1.841 -1.6086  3.6253 -1.5831
   68MOL   H20331157   7.860   2.650   2.105  0.8123 -2.8902 -0.1539
   68MOL   H20431158   7.953   2.779   2.012  1.1496  0.3054  1.1540
   68MOL   H20531159   8.272   2.507   2.055  0.3604 -0.9911 -0.2405
   68MOL   H20631160   0.192   2.400   2.133 -1.3119  0.3784 -0.7962
   68MOL   H20731161   0.177   2.618   2.508 -3.7516  1.2059  0.5684
   68MOL   H20831162   8.227   2.696   2.444  1.8821 -1.1126  1.7028
   68MOL   O20931163   0.454   2.320   2.538 -0.3186 -0.5104  0.7963
   68MOL   C21031164   0.392   2.214   2.608 -0.3067 -0.1288  0.1512
   68MOL   C21131165   0.365   2.089   2.522  0.3101  0.2691  0.8146
   68MOL   O21231166   0.479   2.054   2.453 -0.0861 -0.1379 -0.3492
   68MOL   C21331167   0.518   1.923   2.437 -0.0989 -0.4998 -0.6785
   68MOL   O21431168   0.458   1.828   2.491 -0.0257  0.0073 -0.4098
   68MOL   C21531169   0.619   1.902   2.342 -0.3514  0.9864  0.7844
   68MOL   C21631170   0.641   1.768   2.293 -0.0253 -0.6749 -0.1525
   68MOL   C21731171   0.744   1.751   2.194 -0.0006  0.9377 -0.3685
   68MOL   C21831172   0.827   1.855   2.150  0.2342 -0.1178  0.9873
   68MOL   C21931173   0.941   1.831   2.062  0.4407 -0.2226 -0.0611
   68MOL   O22031174   0.968   1.718   2.016 -0.4855 -0.2726  0.1482
   68MOL   O22131175   1.013   1.934   2.034 -0.3456  0.5605  0.5913
   68MOL   C22231176   0.805   1.987   2.198 -0.1603  0.2138 -0.4316
   68MOL   C22331177   0.699   2.004   2.290 -0.0015 -0.1041  0.4659
   68MOL   H22431178   0.453   2.188   2.694 -0.5032  0.9847  0.6253
   68MOL   H22531179   0.297   2.243   2.653 -0.2699  1.4224 -0.7535
   68MOL   H22631180   0.285   2.109   2.451 -0.1128  0.1668  1.2610
   68MOL   H22731181   0.333   2.011   2.590 -0.4331  0.2519  0.4429
   68MOL   H22831182   0.584   1.687   2.336 -0.3969  0.2855  1.1895
   68MOL   H22931183   0.764   1.649   2.162  1.1277  0.8776  0.4934
   68MOL   H23031184   0.867   2.072   2.171  0.7822 -0.6113 -0.8890
   68MOL   H23131185   0.680   2.106   2.321 -0.8785  0.0390 -0.5122
   68MOL   O23231186   1.154   1.899   1.989  0.9426 -0.0606 -0.0563
   68MOL   C23331187   1.190   1.977   1.875 -0.5002 -0.1415  0.0639
   68MOL   C23431188   1.228   1.883   1.761  0.4162 -0.0154 -0.0009
   68MOL   O23531189   1.359   1.831   1.790  0.3381 -0.6067 -0.9623
   68MOL   C23631190   1.381   1.696   1.798  0.4003  0.1509 -0.0084
   68MOL   O23731191   1.297   1.616   1.764 -0.1989  0.5511 -0.0443
   68MOL   C23831192   1.504   1.660   1.871 -1.1243  0.4930 -0.6749
   68MOL   C23931193   1.594   1.754   1.925  0.5874  0.3518 -0.5802
   68MOL   C24031194   1.715   1.720   1.993  0.0301  0.1367 -0.0662
   68MOL   C24131195   1.736   1.584   2.022  0.5971  1.4424 -0.4427
   68MOL   C24231196   1.865   1.553   2.090  0.4700  0.4754 -0.2022
   68MOL   O24331197   1.925   1.631   2.159  0.3653  0.0125  0.2444
   68MOL   O24431198   1.912   1.427   2.061  0.1432  0.0970  0.0247
   68MOL   C24531199   1.649   1.482   1.967 -0.5168 -0.3341 -0.8110
   68MOL   C24631200   1.541   1.525   1.891  0.6327 -1.3303 -0.1566
   68MOL   H24731201   1.104   2.023   1.826 -0.2487 -0.6023 -0.8116
   68MOL   H24831202   1.264   2.054   1.899 -1.1792  0.1265  1.3709
   68MOL   H24931203   1.223   1.929   1.663 -0.8231  2.1157  1.0369
   68MOL   H25031204   1.151   1.808   1.746 -0.4589  1.0058 -0.6998
   68MOL   H25131205   1.573   1.859   1.913  1.1488  0.6927  1.3681
   68MOL   H25231206   1.774   1.802   2.030  0.4843  0.2822 -1.1053
   68MOL   H25331207   1.671   1.377   1.981  1.6743  0.2754  0.4958
   68MOL   H25431208   1.480   1.453   1.841  0.0966 -1.9157  1.3134
   68MOL   O25531209   2.037   1.389   2.133  0.2652 -0.2615  0.1636
   68MOL   C25631210   2.011   1.288   2.231  0.2292  0.2207 -0.0916
   68MOL   C25731211   2.137   1.268   2.307 -0.5622 -0.2378  0.4472
   68MOL   O25831212   2.133   1.154   2.387  0.2799  0.2658 -0.0402
   68MOL   C25931213   2.123   1.156   2.516  0.0871  0.9587  1.4439
   68MOL   O26031214   2.120   1.261   2.580 -0.1586  0.4006 -0.4543
   68MOL   C26131215   2.119   1.021   2.571  0.4739 -0.0563 -0.0836
   68MOL   C26231216   2.162   0.997   2.700 -0.1270 -0.1010  0.0613
   68MOL   C26331217   2.166   0.868   2.754  0.2851  0.6032 -0.4760
   68MOL   C26431218   2.132   0.760   2.672 -0.5106 -0.3855 -0.0378
   68MOL   C26531219   2.150   0.618   2.719 -0.7946  0.4103 -1.0200
   68MOL   O26631220   2.180   0.587   2.840  0.1797 -0.6268  0.0619
   68MOL   O26731221   2.123   0.524   2.628  0.8855 -0.3507 -0.6505
   68MOL   C26831222   2.080   0.786   2.545  0.4203  0.7439 -0.5500
   68MOL   C26931223   2.074   0.912   2.495  0.9325 -0.5902 -0.3593
   68MOL   H27031224   1.926   1.323   2.289  0.3708 -2.5188  1.8623
   68MOL   H27131225   1.977   1.197   2.180  1.9293  0.1681 -1.1560
   68MOL   H27231226   2.165   1.356   2.365  2.0961 -1.4477  1.0389
   68MOL   H27331227   2.213   1.258   2.229 -1.0124  0.7405 -0.1365
   68MOL   H27431228   2.190   1.082   2.760 -0.4360  0.1621 -0.1697
   68MOL   H27531229   2.205   0.852   2.853 -0.1149 -0.9223 -0.5573
   68MOL   H27631230   2.035   0.709   2.484  0.1529  0.2999  0.1929
   68MOL   H27731231   2.023   0.931   2.402  0.6984  0.9362  0.0540
   68MOL   O27831232   2.113   0.383   2.683  0.0702  0.9086  0.1563
   68MOL   C27931233   2.179   0.293   2.606 -0.2645  0.0143  1.0528
   68MOL   C28031234   2.124   0.292   2.463 -0.0612 -0.3776 -0.1011
   68MOL   O28131235   2.149   0.175   2.383  0.9661  0.0939 -0.4422
   68MOL   C28231236   2.267   0.163   2.323  0.7659 -0.0970 -0.0320
   68MOL   O28331237   2.355   0.246   2.346  0.4572  0.3839  0.2452
   68MOL   C28431238   2.283   0.043   2.239  0.3286  0.0511  0.0066
   68MOL   C28531239   2.186   8.217   2.243 -0.2621  0.4503 -0.3745
   68MOL   C28631240   2.205   8.097   2.175 -0.2543 -0.6618 -0.3668
   68MOL   C28731241   2.313   8.075   2.090  0.5734 -0.0915 -0.0492
   68MOL   C28831242   2.338   7.942   2.017 -0.6422  0.3227 -0.0376
   68MOL   O28931243   2.414   7.913   1.928  0.0893  0.4938  0.0546
   68MOL   O29031244   2.259   7.858   2.074 -0.3707 -0.0359 -0.3404
   68MOL   C29131245   2.409   8.176   2.087 -0.2042  0.2407  0.7419
   68MOL   C29231246   2.394   0.022   2.154  0.1071 -1.1588  0.0806
   68MOL   H29331247   2.285   0.320   2.605 -0.8786  2.5446 -0.7960
   68MOL   H29431248   2.166   0.189   2.636  0.7618 -0.4474 -0.0430
   68MOL   H29531249   2.165   0.381   2.415  3.5288 -1.7590  0.2433
   68MOL   H29631250   2.016   0.296   2.456 -0.2733 -3.5505  0.6239
   68MOL   H29731251   2.097   8.226   2.302  0.0216 -0.2696  0.1739
   68MOL   H29831252   2.127   8.024   2.192  0.1094 -0.8248  0.5926
   68MOL   H29931253   2.491   8.153   2.021  1.0392 -0.9226  2.6235
   68MOL   H30031254   2.466   0.101   2.147  0.6990 -1.8436 -1.8721
   68MOL   O30131255   2.285   7.721   2.014 -0.3157  0.2017 -0.0717
   68MOL   C30231256   2.318   7.624   2.116 -0.0725 -0.1413 -0.0854
   68MOL   C30331257   2.202   7.605   2.212 -0.3677  0.7540 -0.5305
   68MOL   O30431258   2.185   7.720   2.298  0.6600  0.1765 -0.2641
   68MOL   C30531259   2.272   7.738   2.399  0.6737 -0.1414  0.3522
   68MOL   O30631260   2.374   7.670   2.411  0.2635  0.3071 -0.0731
   68MOL   C30731261   2.229   7.842   2.491  0.3067 -0.5264  0.3985
   68MOL   C30831262   2.120   7.930   2.465  0.2460  0.2086  0.8387
   68MOL   C30931263   2.093   8.041   2.547  0.2437 -0.4991  0.3562
   68MOL   C31031264   2.167   8.055   2.669 -0.0866 -0.6562 -0.2709
   68MOL   C31131265   2.131   8.171   2.760  0.2220 -0.5408 -1.1628
   68MOL   O31231266   2.035   8.254   2.742  0.4258  0.0985 -0.4843
   68MOL   O31331267   2.220   8.181   2.864 -0.1638 -0.5672 -0.2016
   68MOL   C31431268   2.276   7.971   2.697 -0.4753 -0.0176 -0.5197
   68MOL   C31531269   2.307   7.863   2.609  0.1196  0.2155 -0.1814
   68MOL   H31631270   2.337   7.533   2.058 -3.0715 -1.2381  0.5389
   68MOL   H31731271   2.413   7.642   2.166 -0.0638 -2.3968  0.7682
   68MOL   H31831272   2.232   7.515   2.265 -1.5449  1.2326  0.9835
   68MOL   H31931273   2.115   7.575   2.153  1.7862 -2.6169 -2.1572
   68MOL   H32031274   2.054   7.910   2.381  1.6327 -0.8919  0.0071
   68MOL   H32131275   2.017   8.117   2.534 -0.2669 -1.0516  0.0708
   68MOL   H32231276   2.346   7.978   2.779  0.8422 -2.1075 -1.4165
   68MOL   H32331277   2.391   7.798   2.628 -0.1485 -0.1825 -0.3364
   68MOL   O32431278   2.194   0.021   2.968 -1.0184 -0.4299 -0.4551
   68MOL   C32531279   2.302   0.120   2.954  0.3174 -0.7782  0.1354
   68MOL   C32631280   2.288   0.235   3.071  0.3080  0.1636  0.7261
   68MOL   O32731281   2.267   0.155   3.186  0.1845 -0.3605 -0.2146
   68MOL   C32831282   2.272   0.222   3.309 -0.1253  0.2769 -0.5944
   68MOL   O32931283   2.291   0.337   3.330  0.1983 -0.1055 -0.3626
   68MOL   C33031284   2.239   0.130   3.429  0.0049  0.0100  0.4093
   68MOL   C33131285   2.193   8.272   3.411  0.3701 -0.0878 -1.0067
   68MOL   C33231286   2.161   8.195   3.522  0.1948 -0.0758  0.4342
   68MOL   C33331287   2.180   8.240   3.652  0.0812 -1.1175  0.0949
   68MOL   C33431288   2.169   8.145   3.767  0.7718  0.3937  0.5006
   68MOL   O33531289   2.151   8.024   3.753 -0.0443  0.1676 -0.2733
   68MOL   O33631290   2.171   8.204   3.885  0.4401 -0.0107 -0.4822
   68MOL   C33731291   2.215   0.103   3.673  0.2733  0.3406 -0.2124
   68MOL   C33831292   2.244   0.183   3.564 -0.2877 -0.3488  0.1701
   68MOL   H33931293   2.398   0.069   2.961 -0.1132 -1.6831 -0.4296
   68MOL   H34031294   2.297   0.167   2.856  1.9395 -2.0881 -0.6034
   68MOL   H34131295   2.199   0.298   3.059 -0.6852 -1.1847  0.8744
   68MOL   H34231296   2.373   0.303   3.076  0.5075 -0.0427  0.1753
   68MOL   H34331297   2.192   8.226   3.314 -0.8628 -0.5023 -0.7983
   68MOL   H34431298   2.123   8.095   3.507  2.1093 -1.0079  1.6539
   68MOL   H34531299   2.240   0.150   3.767 -1.2852  0.3252  0.2218
   68MOL   H34631300   2.283   0.282   3.583 -0.0131 -0.3265 -0.4945
   68MOL   O34731301   2.153   8.118   4.009 -0.1030 -0.8648  0.9636
   68MOL   C34831302   2.259   8.155   4.092 -0.9440  0.0684  0.0957
   68MOL   C34931303   2.261   8.057   4.214  0.3573 -0.1257  0.5359
   68MOL   O35031304   2.349   8.102   4.318  0.4517 -0.0124 -0.4244
   68MOL   C35131305   2.316   8.197   4.405 -0.6170  0.2651 -0.1244
   68MOL   O35231306   2.205   8.249   4.410  0.2066 -0.7165  0.1633
   68MOL   C35331307   2.427   8.234   4.497  0.1772  0.2280  0.0198
   68MOL   C35431308   2.531   8.148   4.537 -0.4430  0.0707 -0.2190
   68MOL   C35531309   2.648   8.202   4.597  0.2278 -0.9625 -0.4850
   68MOL   C35631310   2.652   0.065   4.633  0.1683  0.4400  0.1239
   68MOL   C35731311   2.770   0.115   4.710  0.7345 -0.3142  0.5778
   68MOL   O35831312   2.861   0.047   4.754  0.2274  0.1937  0.4327
   68MOL   O35931313   2.759   0.247   4.738  0.2179  0.3749 -0.4813
   68MOL   C36031314   2.543   0.151   4.593 -0.0948 -0.7843  1.3753
   68MOL   C36131315   2.434   0.098   4.524  0.4582  0.2270  0.0378
   68MOL   H36231316   2.358   8.156   4.048 -1.2826 -0.2302 -0.6955
   68MOL   H36331317   2.237   8.252   4.135 -1.3231  0.0734 -0.1000
   68MOL   H36431318   2.273   7.953   4.186  1.7002  0.0363  0.4756
   68MOL   H36531319   2.157   8.047   4.246 -0.6480  2.1914 -1.7397
   68MOL   H36631320   2.534   8.048   4.496  1.0692 -0.4540  1.1299
   68MOL   H36731321   2.733   8.139   4.622 -0.6348 -0.7959  3.1428
   68MOL   H36831322   2.558   0.257   4.607  2.3433 -0.7157 -1.4789
   68MOL   H36931323   2.355   0.162   4.489  1.6063  0.9664 -1.2636
   68MOL   O37031324   2.858   0.288   4.847 -0.4956 -0.1500  0.3691
   68MOL   C37131325   2.788   0.356   4.956 -1.0062  0.0722  0.1876
   68MOL   C37231326   2.699   0.260   5.031 -0.5276  0.4077  0.3564
   68MOL   O37331327   2.566   0.275   4.995 -0.0124  0.2366  0.0799
   68MOL   C37431328   2.508   0.376   5.052  0.4902  0.1853  0.6338
   68MOL   O37531329   2.546   0.433   5.154  0.2273 -0.1244  0.1534
   68MOL   C37631330   2.384   0.418   4.978  0.0974 -0.2683 -0.6886
   68MOL   C37731331   2.300   0.519   5.026  0.1100  0.0920  0.7465
   68MOL   C37831332   2.176   0.546   4.958  0.7702  0.4443 -0.0853
   68MOL   C37931333   2.150   0.488   4.837  0.0132  0.0119 -0.7861
   68MOL   C38031334   2.024   0.506   4.774  0.0515 -0.1206 -0.8274
   68MOL   O38131335   1.949   0.604   4.786  1.2464  0.0189  0.2042
   68MOL   O38231336   1.998   0.400   4.704  0.1938 -0.5963 -0.8660
   68MOL   C38331337   2.238   0.389   4.783  0.2523 -0.0651 -0.1233
   68MOL   C38431338   2.351   0.358   4.856  0.3422  0.0422 -0.6709
   68MOL   H38531339   2.867   0.380   5.027 -3.1611 -1.7027  3.3547
   68MOL   H38631340   2.745   0.452   4.927 -0.4644  1.1008  2.6441
   68MOL   H38731341   2.708   0.273   5.138 -2.2216  1.8420  0.3315
   68MOL   H38831342   2.725   0.154   5.034  0.7573  0.7386  1.2421
   68MOL   H38931343   2.324   0.580   5.112 -1.3682  2.1081 -0.2169
   68MOL   H39031344   2.108   0.616   5.003  0.2229 -1.4223  2.0724
   68MOL   H39131345   2.218   0.334   4.693  1.2858 -3.2948  1.5308
   68MOL   H39231346   2.420   0.284   4.818  0.9866  0.7643 -0.9306
   68MOL   O39331347   1.854   0.384   4.658  0.6686  0.1275 -0.0548
   68MOL   C39431348   1.784   0.322   4.761 -0.1168  0.1783  0.1705
   68MOL   C39531349   1.811   0.175   4.786 -0.0741 -0.9254  0.7637
   68MOL   O39631350   1.945   0.145   4.813  0.1062  0.3040  0.2264
   68MOL   C39731351   1.985   0.126   4.937  0.0196 -0.4868  0.3057
   68MOL   O39831352   1.913   0.146   5.032  0.1400  0.2217 -0.0816
   68MOL   C39931353   2.125   0.089   4.946  0.0425  0.4421  0.2878
   68MOL   C40031354   2.190   0.092   5.073  0.1381  0.6028 -0.2526
   68MOL   C40131355   2.321   0.044   5.087 -0.1214 -0.0751 -0.5735
   68MOL   C40231356   2.392   8.267   4.973  0.0840 -0.1623  0.4841
   68MOL   C40331357   2.528   8.212   4.997  0.4820  0.4215  0.4565
   68MOL   O40431358   2.596   8.237   5.096  0.1517 -0.0197 -1.0447
   68MOL   O40531359   2.570   8.142   4.893 -0.5251  0.1498 -0.7771
   68MOL   C40631360   2.327   8.270   4.846 -0.3666  0.2152  0.4434
   68MOL   C40731361   2.198   0.044   4.834 -0.1285 -0.0536 -0.0853
   68MOL   H40831362   1.790   0.385   4.850  2.0614  0.4781 -0.1565
   68MOL   H40931363   1.681   0.317   4.725 -0.2126 -0.0108  0.4669
   68MOL   H41031364   1.779   0.131   4.692 -1.7990  3.3484 -0.7657
   68MOL   H41131365   1.740   0.131   4.856 -0.0450  0.0253  1.3934
   68MOL   H41231366   2.143   0.128   5.164  1.9180  1.4064  0.3667
   68MOL   H41331367   2.364   0.063   5.184 -3.1689 -0.0265  0.8307
   68MOL   H41431368   2.371   8.234   4.755  1.5272  1.0002  1.0253
   68MOL   H41531369   2.167   0.054   4.732 -2.2648  0.0784  0.5608
   68MOL   O41631370   2.720   8.123   4.898  0.5803  0.2114  0.0187
   68MOL   C41731371   2.746   7.983   4.927  0.0974 -0.4063 -0.2363
   68MOL   C41831372   2.901   7.952   4.929  0.1881  0.0756 -0.2280
   68MOL   O41931373   2.924   7.813   4.974 -0.5145 -0.0782  0.0968
   68MOL   C42031374   3.050   7.764   4.961 -0.7105  0.6573  0.0024
   68MOL   O42131375   3.147   7.838   4.940  0.7621  0.0203 -0.4620
   68MOL   C42231376   3.071   7.620   4.985  0.4474 -0.0368  0.0681
   68MOL   C42331377   3.197   7.566   4.989  0.1115  0.2311  0.7584
   68MOL   C42431378   3.217   7.430   5.012  0.6217  0.5796  0.4027
   68MOL   C42531379   3.110   7.344   5.038  0.3038 -0.0568 -0.4316
   68MOL   C42631380   3.143   7.205   5.075  0.3797 -0.2044 -0.3748
   68MOL   O42731381   3.249   7.154   5.059 -0.2761 -0.3525 -0.6926
   68MOL   O42831382   3.043   7.141   5.146 -0.3344  0.1436  0.5076
   68MOL   C42931383   2.976   7.395   5.047 -0.4565  0.1135  0.0490
   68MOL   C43031384   2.961   7.529   5.010 -0.3534  0.2187 -0.4074
   68MOL   H43131385   2.700   7.965   5.024  0.1135  1.3897  0.1191
   68MOL   H43231386   2.693   7.915   4.860  0.2421 -1.8280  1.0489
   68MOL   H43331387   2.950   8.009   5.008  1.2844 -1.2779  0.0850
   68MOL   H43431388   2.938   7.960   4.827 -2.3129  0.1086 -1.1774
   68MOL   H43531389   3.284   7.626   4.972 -0.7533  1.8331  1.8428
   68MOL   H43631390   3.311   7.391   4.978 -0.1520  0.6125 -1.8784
   68MOL   H43731391   2.888   7.341   5.079  0.3413 -1.7597 -0.8310
   68MOL   H43831392   2.860   7.566   5.008 -0.5122 -0.0496  1.3932
   68MOL   O43931393   3.074   6.999   5.183  0.5457 -0.6252  0.6167
   68MOL   C44031394   3.008   6.921   5.082 -0.3615 -0.0019  0.3110
   68MOL   C44131395   3.072   6.786   5.091  0.5999  0.4554  0.4312
   68MOL   O44231396   3.064   6.706   4.972  0.0454  0.2026 -0.5825
   68MOL   C44331397   2.961   6.630   4.950  0.2655 -0.0460  0.5577
   68MOL   O44431398   2.875   6.605   5.035  0.0770 -0.6570  0.4570
   68MOL   C44531399   2.964   6.570   4.815 -0.1786 -0.4377 -0.2019
   68MOL   C44631400   2.864   6.477   4.781  0.5601  0.2625  0.4132
   68MOL   C44731401   2.846   6.433   4.648 -0.2250  0.1392  0.0939
   68MOL   C44831402   2.927   6.482   4.546 -0.3757  0.5100  0.7198
   68MOL   C44931403   2.915   6.447   4.401  0.2579 -0.7075  0.6231
   68MOL   O45031404   2.982   6.494   4.307 -0.1582  0.4432  0.0398
   68MOL   O45131405   2.820   6.345   4.384 -0.1458  0.2513  0.3631
   68MOL   C45231406   3.037   6.563   4.572 -0.5584 -0.1838 -0.4216
   68MOL   C45331407   3.061   6.605   4.709 -0.0092 -0.4830 -0.3394
   68MOL   H45431408   2.899   6.918   5.089 -0.3249 -0.5066  0.6573
   68MOL   H45531409   3.029   6.963   4.983 -1.9258  0.1198  0.0189
   68MOL   H45631410   3.050   6.734   5.185 -1.3880  1.7869  0.7339
   68MOL   H45731411   3.180   6.795   5.106  0.5145  0.7626  0.8895
   68MOL   H45831412   2.793   6.438   4.852 -0.8369  3.3790  0.7889
   68MOL   H45931413   2.781   6.350   4.624  0.8447 -0.0915 -2.0810
   68MOL   H46031414   3.119   6.589   4.506  2.4953 -2.2753  2.4116
   68MOL   H46131415   3.148   6.666   4.726  0.1389 -0.6171 -0.6098
   68MOL   H46231416   2.843   6.319   4.296 -2.0617  0.3025 -0.1875
   69MOL     O131417   4.548   7.912   3.880  0.1094 -0.0048  0.1133
   69MOL     C231418   4.547   7.800   3.964 -0.4983  0.9612  0.6428
   69MOL     C331419   4.478   7.823   4.101 -0.6250  0.4348  0.4551
   69MOL     O431420   4.533   7.736   4.195  0.0370  0.0777  0.1295
   69MOL     C531421   4.508   7.604   4.184  0.5579 -0.5628  0.7564
   69MOL     O631422   4.431   7.552   4.098  0.3924  0.4361  0.2017
   69MOL     C731423   4.569   7.523   4.292 -0.5854  0.0450 -0.9836
   69MOL     C831424   4.686   7.574   4.362  0.8581 -1.0091  0.2560
   69MOL     C931425   4.723   7.507   4.483 -0.8188  0.0048  0.6232
   69MOL    C1031426   4.656   7.391   4.524 -0.3663  0.3588  0.0304
   69MOL    C1131427   4.706   7.308   4.637 -0.1790  0.4867 -0.2858
   69MOL    O1231428   4.780   7.350   4.725 -0.0871  0.0422  0.6872
   69MOL    O1331429   4.656   7.180   4.642 -0.1336 -0.5244 -0.3219
   69MOL    C1431430   4.540   7.344   4.453  0.8644 -0.5789 -0.2883
   69MOL    C1531431   4.508   7.408   4.336  0.1043 -0.1141  0.4683
   69MOL    H1631432   4.500   7.717   3.911 -0.4812  2.6848 -2.2027
   69MOL    H1731433   4.651   7.780   3.991 -1.1688 -2.0674  1.1143
   69MOL    H1831434   4.369   7.818   4.105 -0.7488  0.6216 -1.8005
   69MOL    H1931435   4.510   7.922   4.134  2.2389 -0.9345  1.9995
   69MOL    H2031436   4.733   7.668   4.337 -0.4639  0.3705  2.7896
   69MOL    H2131437   4.803   7.546   4.545 -0.4294 -0.2497  0.2820
   69MOL    H2231438   4.482   7.260   4.486 -0.5557  0.6339  0.3540
   69MOL    H2331439   4.419   7.376   4.284 -0.8132 -0.2763  2.1006
   69MOL    H2431440   4.465   7.957   3.883 -0.1473 -0.3696 -1.3338
   69MOL    O2531441   4.704   7.109   4.763  0.1399 -0.4209 -0.4801
   69MOL    C2631442   4.807   7.008   4.734  0.1602 -0.3629 -0.1014
   69MOL    C2731443   4.827   6.935   4.873  0.1424  0.1228  0.4414
   69MOL    O2831444   4.881   6.808   4.846 -0.1387  0.2097  0.1694
   69MOL    C2931445   4.920   6.727   4.955  0.1255  0.4474  0.1277
   69MOL    O3031446   4.920   6.762   5.073  0.1689 -0.7897 -0.1708
   69MOL    C3131447   4.940   6.588   4.910  0.5394  0.2824  0.1274
   69MOL    C3231448   4.951   6.556   4.775 -0.0295  0.2385  0.2104
   69MOL    C3331449   4.982   6.423   4.740  0.0028 -0.0493  0.8408
   69MOL    C3431450   5.002   6.321   4.833  0.2230  0.2830  0.4136
   69MOL    C3531451   5.040   6.186   4.793  0.1463 -0.0367  0.5255
   69MOL    O3631452   5.037   6.137   4.682  0.2876  0.6017  0.9567
   69MOL    O3731453   5.090   6.112   4.900 -0.0701 -0.0401 -0.5548
   69MOL    C3831454   4.985   6.349   4.968 -0.3407 -0.3473  1.0730
   69MOL    C3931455   4.963   6.484   5.005  0.2431  0.0754 -0.3103
   69MOL    H4031456   4.770   6.947   4.652 -3.0222 -1.7603  2.2393
   69MOL    H4131457   4.894   7.055   4.689 -0.5014  0.7598 -0.2390
   69MOL    H4231458   4.727   6.902   4.900  0.0362  0.8614  0.9385
   69MOL    H4331459   4.867   6.993   4.956 -0.1421  0.3435  0.4228
   69MOL    H4431460   4.937   6.626   4.694  2.0175 -0.4944 -0.8041
   69MOL    H4531461   4.981   6.397   4.635  0.3627  1.5962  0.4181
   69MOL    H4631462   5.002   6.274   5.044  2.4815  0.1396  0.9531
   69MOL    H4731463   4.969   6.514   5.109 -2.0786  1.0472 -0.4253
   69MOL    O4831464   5.104   5.971   4.866  0.1181  0.1335 -0.5354
   69MOL    C4931465   5.032   5.894   4.969 -0.2453  0.2367 -0.0481
   69MOL    C5031466   5.110   5.877   5.107 -0.7632  0.2983 -0.5914
   69MOL    O5131467   5.221   5.793   5.106 -0.3637  0.3160 -0.3962
   69MOL    C5231468   5.208   5.668   5.097  0.4343 -0.1219  0.7875
   69MOL    O5331469   5.101   5.607   5.086  0.9038  0.2757 -0.1127
   69MOL    C5431470   5.332   5.597   5.104 -0.0221 -0.0303  0.1968
   69MOL    C5531471   5.456   5.662   5.096 -0.2445 -0.0768 -0.6418
   69MOL    C5631472   5.577   5.589   5.092 -0.3175  0.4818  0.0886
   69MOL    C5731473   5.573   5.450   5.115 -0.2550 -0.1747  0.2018
   69MOL    C5831474   5.700   5.375   5.099 -0.5395 -0.0849 -0.2133
   69MOL    O5931475   5.709   5.256   5.077 -0.0621 -0.1322 -0.1085
   69MOL    O6031476   5.809   5.452   5.103  0.2626 -0.1897 -0.3706
   69MOL    C6131477   5.453   5.382   5.136 -1.8409  0.1445  0.1563
   69MOL    C6231478   5.330   5.453   5.124 -0.1995 -0.1374 -0.7677
   69MOL    H6331479   4.931   5.933   4.980 -0.3868 -0.0235 -0.4171
   69MOL    H6431480   5.019   5.798   4.918 -0.7562  0.3585 -0.1483
   69MOL    H6531481   5.055   5.838   5.192  0.4816  0.5231  0.3371
   69MOL    H6631482   5.139   5.978   5.139  0.8392 -1.0499  2.4246
   69MOL    H6731483   5.467   5.769   5.086 -0.1089 -0.0848 -0.5687
   69MOL    H6831484   5.668   5.638   5.059 -0.2414 -0.4381 -1.0892
   69MOL    H6931485   5.453   5.275   5.152  0.8693 -0.0235 -0.6517
   69MOL    H7031486   5.235   5.404   5.137 -0.0287 -0.0314  1.0664
   69MOL    O7131487   5.943   5.386   5.059  0.1578  0.4016 -0.5567
   69MOL    C7231488   6.011   5.341   5.170  0.2599 -0.3722  0.5950
   69MOL    C7331489   6.058   5.452   5.262  0.0563 -0.1836  0.1892
   69MOL    O7431490   6.129   5.550   5.182  0.6960 -0.3979  0.4874
   69MOL    C7531491   6.260   5.532   5.150  0.1239  0.2276  0.2871
   69MOL    O7631492   6.320   5.432   5.180 -0.5390  0.3652  0.5239
   69MOL    C7731493   6.322   5.648   5.079  0.0992  0.2591  0.2918
   69MOL    C7831494   6.237   5.729   5.002 -0.3301  0.2683 -0.0789
   69MOL    C7931495   6.298   5.837   4.935  0.0173 -0.0908 -0.2457
   69MOL    C8031496   6.436   5.854   4.929 -0.2690 -0.2719 -0.6336
   69MOL    C8131497   6.493   5.968   4.859  0.3786  0.7295 -0.4414
   69MOL    O8231498   6.434   6.068   4.829 -0.6871 -0.4412  1.0883
   69MOL    O8331499   6.619   5.943   4.825 -0.1127 -0.3149  0.2280
   69MOL    C8431500   6.521   5.769   5.006 -0.9821  0.6241  0.3854
   69MOL    C8531501   6.459   5.674   5.089  0.7653  0.0500 -0.1165
   69MOL    H8631502   5.938   5.278   5.220  0.5158 -0.8861  0.3261
   69MOL    H8731503   6.097   5.284   5.135  0.3675 -0.0559  0.3437
   69MOL    H8831504   6.123   5.411   5.340 -1.1682 -0.9339  0.8206
   69MOL    H8931505   5.973   5.491   5.317  0.3975 -0.3374  0.8340
   69MOL    H9031506   6.131   5.712   4.990 -0.0800 -0.4741 -1.3337
   69MOL    H9131507   6.236   5.899   4.873  0.1453  1.3500  1.0383
   69MOL    H9231508   6.626   5.792   5.006 -0.5638 -1.0918  2.8931
   69MOL    H9331509   6.522   5.626   5.163  0.5027 -0.7978 -0.4329
   69MOL    O9431510   6.685   6.044   4.734 -0.2301 -0.3803  0.0109
   69MOL    C9531511   6.754   5.969   4.638 -0.0072  0.3032  0.8777
   69MOL    C9631512   6.790   6.070   4.530 -0.6803  0.3969 -0.1939
   69MOL    O9731513   6.906   6.035   4.457  0.2145 -1.0333 -0.3510
   69MOL    C9831514   6.904   5.935   4.362  0.6431  0.0062  0.0113
   69MOL    O9931515   6.807   5.863   4.340  0.2362  0.7810  0.1386
   69MOL   C10031516   7.038   5.906   4.306 -0.0070  0.6140 -0.3967
   69MOL   C10131517   7.155   5.962   4.360  0.7605  0.1147  0.0984
   69MOL   C10231518   7.279   5.927   4.308  0.2270 -0.3423  0.1106
   69MOL   C10331519   7.289   5.825   4.213 -0.5924 -0.0892 -0.6775
   69MOL   C10431520   7.421   5.790   4.162  0.0950 -0.0527 -0.2653
   69MOL   O10531521   7.526   5.850   4.185  0.3391 -0.0295 -0.0929
   69MOL   O10631522   7.418   5.672   4.098 -0.0548 -0.0416 -0.3544
   69MOL   C10731523   7.174   5.772   4.150 -0.1103 -0.3886  0.2205
   69MOL   C10831524   7.051   5.805   4.208  0.3568  0.2059  0.2989
   69MOL   H10931525   6.844   5.933   4.687  0.9382  3.0240  1.2530
   69MOL   H11031526   6.697   5.894   4.584  0.9062  1.6744 -2.1601
   69MOL   H11131527   6.802   6.169   4.573 -1.4334  0.0971  0.7261
   69MOL   H11231528   6.704   6.088   4.466 -0.2643 -1.3540 -1.2752
   69MOL   H11331529   7.142   6.051   4.419 -1.8948 -0.7496  0.9086
   69MOL   H11431530   7.365   5.967   4.360 -0.8927  0.9681  0.9786
   69MOL   H11531531   7.183   5.707   4.065  1.6471  1.0775 -0.7355
   69MOL   H11631532   6.965   5.752   4.170  2.0217 -2.0253 -0.4517
   69MOL   O11731533   7.547   5.608   4.074 -0.6786 -0.3256  0.1863
   69MOL   C11831534   7.556   5.487   4.153  0.2840 -0.1142  0.3060
   69MOL   C11931535   7.446   5.395   4.132 -0.7116  0.4577 -0.2238
   69MOL   O12031536   7.334   5.410   4.223  0.5766  0.1272  0.0781
   69MOL   C12131537   7.321   5.326   4.327 -0.3214  0.3678 -1.1974
   69MOL   O12231538   7.415   5.252   4.363  0.0744  0.1380 -0.3171
   69MOL   C12331539   7.190   5.337   4.401  0.0821  0.8862 -0.2875
   69MOL   C12431540   7.091   5.425   4.343  0.5405 -0.2779  0.0763
   69MOL   C12531541   6.966   5.432   4.408 -0.0561  0.5723  0.5621
   69MOL   C12631542   6.945   5.366   4.536 -0.4888 -0.4961 -0.1337
   69MOL   C12731543   6.816   5.385   4.609 -0.0374 -0.5156 -0.8532
   69MOL   O12831544   6.808   5.353   4.727 -0.2498  0.4107  0.1416
   69MOL   O12931545   6.718   5.432   4.542  0.3798 -0.0947  0.1942
   69MOL   C13031546   7.045   5.289   4.592  0.2583 -0.3509  0.3861
   69MOL   C13131547   7.169   5.279   4.532 -0.4532 -0.1509  0.2736
   69MOL   H13231548   7.647   5.430   4.135  0.2634 -0.4021  1.0764
   69MOL   H13331549   7.563   5.514   4.259  1.2564  0.1781  0.1740
   69MOL   H13431550   7.468   5.292   4.103  3.1693  0.7920  1.2996
   69MOL   H13531551   7.398   5.423   4.038 -0.4110 -0.4003 -0.6446
   69MOL   H13631552   7.105   5.484   4.253  1.0509  2.1198  1.6932
   69MOL   H13731553   6.894   5.494   4.358 -2.5268 -0.7575  2.3546
   69MOL   H13831554   7.033   5.241   4.689  1.1930  0.1268  0.7423
   69MOL   H13931555   7.241   5.213   4.579 -2.5697 -2.0188  0.9683
   69MOL   O14031556   6.592   5.441   4.630 -0.1216  0.0173 -0.1592
   69MOL   C14131557   6.557   5.578   4.648  0.2389 -0.1022  0.1179
   69MOL   C14231558   6.505   5.630   4.517 -0.4154  0.1758  0.2258
   69MOL   O14331559   6.437   5.752   4.540  0.1016  0.3512  0.3539
   69MOL   C14431560   6.314   5.770   4.570 -0.1015  0.4742 -0.2209
   69MOL   O14531561   6.243   5.679   4.607  0.1063 -0.1173 -0.6534
   69MOL   C14631562   6.276   5.912   4.555  0.7069 -0.2717  0.1565
   69MOL   C14731563   6.140   5.943   4.593 -0.1178  0.1545  0.5605
   69MOL   C14831564   6.091   6.077   4.573 -1.2096 -0.3090 -0.4342
   69MOL   C14931565   6.179   6.175   4.517  0.1726 -0.1529 -0.6164
   69MOL   C15031566   6.136   6.317   4.499  0.0258 -0.3028 -0.1831
   69MOL   O15131567   6.209   6.403   4.441 -0.3168 -0.2709 -0.3162
   69MOL   O15231568   6.012   6.351   4.549  0.3180 -0.3780  0.2279
   69MOL   C15331569   6.311   6.146   4.488 -0.2818 -0.0135  0.0217
   69MOL   C15431570   6.365   6.020   4.510  0.6792  0.8964 -0.4176
   69MOL   H15531571   6.468   5.583   4.710  0.5758  0.7596  0.5307
   69MOL   H15631572   6.626   5.646   4.698 -0.3192  0.1171  0.5974
   69MOL   H15731573   6.439   5.556   4.473  0.6888 -0.3832 -0.5293
   69MOL   H15831574   6.581   5.660   4.444  0.6500 -2.6092  0.1532
   69MOL   H15931575   6.071   5.868   4.630  0.4525 -1.3058 -1.2803
   69MOL   H16031576   5.989   6.096   4.605 -2.2303  1.4623 -4.3696
   69MOL   H16131577   6.377   6.227   4.461  1.3055 -0.6644  1.8525
   69MOL   H16231578   6.469   5.994   4.497  0.1683 -0.3749 -2.0936
   69MOL   O16331579   5.956   6.488   4.513 -0.0734  0.2318 -0.8050
   69MOL   C16431580   5.881   6.479   4.392  0.0764 -0.2041 -0.0205
   69MOL   C16531581   5.920   6.603   4.306 -0.0880 -0.0899  0.2419
   69MOL   O16631582   5.813   6.698   4.292  0.2686 -0.1531 -0.1316
   69MOL   C16731583   5.784   6.784   4.392 -0.1585  0.0122 -0.4935
   69MOL   O16831584   5.822   6.775   4.504  0.0290 -0.7498  0.5041
   69MOL   C16931585   5.686   6.885   4.344 -0.3881 -0.6026  0.6614
   69MOL   C17031586   5.637   6.902   4.208 -0.2967  1.0394  0.0754
   69MOL   C17131587   5.549   7.009   4.178  0.5604  0.2306  0.2799
   69MOL   C17231588   5.518   7.100   4.280  0.4237 -0.9196 -0.8868
   69MOL   C17331589   5.431   7.225   4.248 -0.4156 -0.3421 -0.4796
   69MOL   O17431590   5.383   7.256   4.135 -0.2724 -0.3677  0.3570
   69MOL   O17531591   5.406   7.302   4.355 -0.1429  0.0039 -0.0706
   69MOL   C17631592   5.567   7.082   4.411  0.5374  0.3013 -0.4780
   69MOL   C17731593   5.652   6.983   4.439 -0.1302 -0.7329 -0.6055
   69MOL   H17831594   5.898   6.390   4.331  3.6887  0.8616 -0.7235
   69MOL   H17931595   5.780   6.488   4.431  0.5205 -0.1159  1.1457
   69MOL   H18031596   5.941   6.563   4.207  1.1921  0.9434  0.0782
   69MOL   H18131597   6.019   6.647   4.317 -0.4066  0.6251  0.2972
   69MOL   H18231598   5.670   6.832   4.133  1.2558 -1.6604  3.1791
   69MOL   H18331599   5.508   7.023   4.079 -3.1207  1.5354  1.9144
   69MOL   H18431600   5.534   7.150   4.487 -0.7850  0.2504 -0.9967
   69MOL   H18531601   5.670   6.966   4.544 -0.6206 -0.7371 -0.5182
   69MOL   O18631602   5.302   7.416   4.322  0.2163 -0.5059 -0.1126
   69MOL   C18731603   5.166   7.368   4.333 -0.0417  0.0046  0.0990
   69MOL   C18831604   5.126   7.353   4.477  0.6114 -0.2799  0.2494
   69MOL   O18931605   5.177   7.226   4.513 -0.0674  0.0903 -0.2878
   69MOL   C19031606   5.141   7.182   4.636 -0.4017 -0.1026  0.1537
   69MOL   O19131607   5.058   7.241   4.704  0.7908 -0.2155 -0.1360
   69MOL   C19231608   5.201   7.056   4.671  0.3236  0.1372  0.1037
   69MOL   C19331609   5.289   6.986   4.582 -0.6741 -0.2986 -0.4399
   69MOL   C19431610   5.344   6.866   4.630 -0.1902 -0.4595 -0.2812
   69MOL   C19531611   5.317   6.805   4.753  0.1528  0.1997 -0.6006
   69MOL   C19631612   5.380   6.676   4.800 -0.1688 -0.0388 -0.8182
   69MOL   O19731613   5.359   6.632   4.914 -0.5411 -0.6451 -0.1716
   69MOL   O19831614   5.474   6.631   4.714 -0.4178 -0.1548 -0.2238
   69MOL   C19931615   5.235   6.879   4.842 -0.7374  0.0283  1.0724
   69MOL   C20031616   5.177   7.001   4.795  0.2053 -0.8164 -0.3045
   69MOL   H20131617   5.113   7.454   4.292 -0.1901  0.5154  1.3350
   69MOL   H20231618   5.153   7.279   4.272 -1.0205 -1.1733  1.9917
   69MOL   H20331619   5.018   7.367   4.482  0.5145 -0.7769 -0.3435
   69MOL   H20431620   5.162   7.432   4.543  0.5303 -0.3977  0.4338
   69MOL   H20531621   5.319   7.021   4.484 -3.7398  2.4629 -0.4739
   69MOL   H20631622   5.412   6.814   4.564  0.5027 -0.5295  0.4788
   69MOL   H20731623   5.234   6.836   4.942 -1.1454 -0.3489  0.9100
   69MOL   H20831624   5.105   7.052   4.857 -1.0412 -0.5408 -1.9475
   69MOL   O20931625   5.534   6.493   4.754 -0.7121 -0.1354  0.3423
   69MOL   C21031626   5.663   6.511   4.818 -0.5726  0.2943  0.7308
   69MOL   C21131627   5.757   6.394   4.785 -0.3672 -0.0989 -0.0670
   69MOL   O21231628   5.752   6.292   4.888 -0.2846 -0.1129 -0.0067
   69MOL   C21331629   5.851   6.199   4.888 -0.5598 -0.2635 -0.2305
   69MOL   O21431630   5.950   6.206   4.814 -0.2084  0.1756  0.4698
   69MOL   C21531631   5.831   6.088   4.988  0.1059  0.5572  0.6822
   69MOL   C21631632   5.936   5.998   5.009 -0.6973 -0.1833 -0.7753
   69MOL   C21731633   5.923   5.899   5.105 -0.2924 -0.0337  0.1768
   69MOL   C21831634   5.804   5.889   5.179 -0.3474 -0.2349  0.3124
   69MOL   C21931635   5.791   5.780   5.283  0.3787  0.2960 -0.2466
   69MOL   O22031636   5.887   5.708   5.314  0.1165  0.1451  0.6601
   69MOL   O22131637   5.669   5.783   5.350  0.4258  0.4494  0.3049
   69MOL   C22231638   5.687   5.964   5.147 -0.3527 -0.3796 -0.0918
   69MOL   C22331639   5.700   6.063   5.051  0.3797 -0.5326 -0.6854
   69MOL   H22431640   5.698   6.605   4.775 -0.3035 -0.5644 -0.9386
   69MOL   H22531641   5.645   6.543   4.921  0.3652  1.0777  0.6563
   69MOL   H22631642   5.857   6.439   4.787 -0.6254  0.4469  0.6823
   69MOL   H22731643   5.733   6.343   4.692 -1.7791  1.1505 -0.3983
   69MOL   H22831644   6.035   6.007   4.966  0.0796  1.3879  1.1998
   69MOL   H22931645   6.002   5.833   5.137 -0.4018 -0.1409  0.2238
   69MOL   H23031646   5.591   5.949   5.195  0.2678  0.8628  1.5708
   69MOL   H23131647   5.614   6.127   5.046  0.0784 -0.7980  0.7086
   69MOL   O23231648   5.670   5.725   5.492 -0.5372  0.3816  0.3769
   69MOL   C23331649   5.705   5.827   5.580 -0.5528 -0.2859 -0.1348
   69MOL   C23431650   5.734   5.774   5.726 -0.4814 -0.2239  0.8808
   69MOL   O23531651   5.624   5.767   5.814 -1.1350 -0.3397  0.6175
   69MOL   C23631652   5.632   5.765   5.947 -0.1278 -0.6884 -0.2012
   69MOL   O23731653   5.742   5.773   6.006 -0.4849 -0.1529 -0.4102
   69MOL   C23831654   5.516   5.732   6.019  0.0851 -1.0682 -0.0396
   69MOL   C23931655   5.383   5.760   5.973 -0.3617 -0.0145 -0.1777
   69MOL   C24031656   5.270   5.714   6.039  0.3066 -0.2609 -0.2238
   69MOL   C24131657   5.279   5.644   6.164  0.3315  0.1980 -0.0171
   69MOL   C24231658   5.151   5.615   6.234 -0.4346  1.5942 -0.9939
   69MOL   O24331659   5.050   5.681   6.226  0.5409 -0.4022 -0.7513
   69MOL   O24431660   5.172   5.511   6.318  0.5634 -0.7256 -0.2995
   69MOL   C24531661   5.408   5.615   6.215 -0.0551  0.0352  0.2759
   69MOL   C24631662   5.527   5.660   6.141 -0.6946 -1.0654  0.8577
   69MOL   H24731663   5.799   5.868   5.543 -1.3251  1.0289 -0.6649
   69MOL   H24831664   5.636   5.911   5.582 -1.8688 -1.3125 -1.4428
   69MOL   H24931665   5.812   5.832   5.776  0.2965 -0.8691  0.4283
   69MOL   H25031666   5.777   5.674   5.731  0.1848  0.1247  2.2491
   69MOL   H25131667   5.369   5.822   5.885  0.2509  0.9719  0.4137
   69MOL   H25231668   5.172   5.733   5.998 -0.7187 -0.1072  2.2101
   69MOL   H25331669   5.416   5.577   6.315 -1.5802  1.6079  1.0155
   69MOL   H25431670   5.620   5.635   6.189  0.1074  0.8128  0.3047
   69MOL   O25531671   5.047   5.485   6.402  0.4408 -0.5529 -0.1275
   69MOL   C25631672   5.078   5.528   6.532  0.0510  0.2283  0.1351
   69MOL   C25731673   5.116   5.674   6.549  0.3295  0.4498 -0.2543
   69MOL   O25831674   5.256   5.689   6.552  0.4861 -0.3207 -0.0359
   69MOL   C25931675   5.307   5.815   6.576 -0.3901  0.3814 -0.2339
   69MOL   O26031676   5.245   5.909   6.582 -0.1457 -0.2752  0.2980
   69MOL   C26131677   5.452   5.829   6.589 -0.4515  0.6820  0.0183
   69MOL   C26231678   5.545   5.728   6.546  0.2057  0.5061  0.0493
   69MOL   C26331679   5.683   5.736   6.575 -0.0141  0.3178  0.3914
   69MOL   C26431680   5.735   5.861   6.629 -0.5291  0.3588  0.6375
   69MOL   C26531681   5.880   5.858   6.674  0.7748  0.8404  0.5503
   69MOL   O26631682   5.958   5.767   6.644 -0.9440 -0.6816  0.2981
   69MOL   O26731683   5.912   5.968   6.743 -0.2870  0.3465  0.1003
   69MOL   C26831684   5.647   5.973   6.641  0.5513  0.1046 -0.2135
   69MOL   C26931685   5.508   5.950   6.633  0.1691  0.9921  0.6886
   69MOL   H27031686   5.000   5.494   6.600  0.3673 -1.2200 -0.2202
   69MOL   H27131687   5.156   5.459   6.563  1.7733  1.7693 -0.6610
   69MOL   H27231688   5.068   5.706   6.641 -1.0521 -0.3999 -0.6566
   69MOL   H27331689   5.065   5.730   6.471  1.6097  0.0912 -1.3664
   69MOL   H27431690   5.509   5.632   6.513 -0.6608  1.3482 -1.5176
   69MOL   H27531691   5.751   5.654   6.553  0.0845  0.6304 -0.4848
   69MOL   H27631692   5.681   6.066   6.684 -1.3111 -0.3862  2.4085
   69MOL   H27731693   5.453   6.041   6.655  0.2352  1.0186  0.7471
   69MOL   O27831694   6.040   5.946   6.814 -0.3105  0.0197 -0.1614
   69MOL   C27931695   5.995   5.926   6.955  0.5191 -0.5662 -0.1884
   69MOL   C28031696   6.122   5.931   7.035  0.4211 -0.8266  1.0276
   69MOL   O28131697   6.183   5.802   7.036  0.3715  0.3952 -0.0250
   69MOL   C28231698   6.231   5.751   7.148  0.0376  0.0683  0.0268
   69MOL   O28331699   6.248   5.809   7.256 -0.0679 -0.0301  0.5959
   69MOL   C28431700   6.293   5.612   7.129 -0.6901 -0.0234  0.3406
   69MOL   C28531701   6.370   5.552   7.231 -0.2900 -0.0339  0.2097
   69MOL   C28631702   6.443   5.437   7.203  0.4652 -0.6596 -0.4035
   69MOL   C28731703   6.437   5.373   7.078 -0.7083 -0.5521  0.0492
   69MOL   C28831704   6.525   5.253   7.056  0.1601  0.0150  0.2056
   69MOL   O28931705   6.609   5.212   7.138  0.2748 -0.2399  0.5025
   69MOL   O29031706   6.513   5.200   6.941 -0.0913 -0.5482 -0.2495
   69MOL   C29131707   6.359   5.432   6.979  0.6788  0.2851 -0.8770
   69MOL   C29231708   6.295   5.554   7.003 -0.6165  0.4827  0.1905
   69MOL   H29331709   5.929   6.008   6.986 -1.1185 -1.9806  0.1641
   69MOL   H29431710   5.929   5.840   6.964 -1.8901  1.2678  0.1699
   69MOL   H29531711   6.097   5.954   7.139 -2.0876 -1.9559  0.7181
   69MOL   H29631712   6.203   5.999   7.008 -0.6565  0.1446  0.1823
   69MOL   H29731713   6.385   5.604   7.324  2.3274 -1.4954  0.6557
   69MOL   H29831714   6.499   5.393   7.285 -1.1386  0.4603  1.3583
   69MOL   H29931715   6.346   5.386   6.882 -1.2172  0.3810 -0.6714
   69MOL   H30031716   6.243   5.591   6.916 -0.2815 -0.2405 -0.3253
   69MOL   O30131717   6.608   5.096   6.910 -0.1352  0.5785  0.1212
   69MOL   C30231718   6.546   4.973   6.902  0.2238  0.5501  0.4313
   69MOL   C30331719   6.441   4.954   6.793  0.5710 -0.6882 -0.4962
   69MOL   O30431720   6.317   4.899   6.835 -0.0577  0.3215  0.2003
   69MOL   C30531721   6.217   4.966   6.894 -0.3386 -0.3572 -0.0565
   69MOL   O30631722   6.222   5.090   6.915 -0.1310  0.2131  0.1580
   69MOL   C30731723   6.105   4.878   6.933  0.2412  0.3627 -0.3406
   69MOL   C30831724   6.070   4.765   6.862 -0.1137 -0.1646 -0.3285
   69MOL   C30931725   5.954   4.684   6.895  0.4662  0.0770 -0.0470
   69MOL   C31031726   5.889   4.711   7.020  0.7325  0.3710 -0.5502
   69MOL   C31131727   5.778   4.623   7.064  0.5274 -0.2816 -0.0678
   69MOL   O31231728   5.765   4.517   7.011  0.0441 -0.1092  0.1208
   69MOL   O31331729   5.703   4.668   7.165  0.0298 -0.2957 -0.6680
   69MOL   C31431730   5.928   4.825   7.094 -0.7508  0.1964 -0.2240
   69MOL   C31531731   6.041   4.907   7.051  1.0517  0.1173  0.5479
   69MOL   H31631732   6.631   4.907   6.886  1.4277  2.6960 -2.6698
   69MOL   H31731733   6.502   4.943   6.997 -0.5811  1.0712  0.2238
   69MOL   H31831734   6.475   4.906   6.701  1.4274  0.8806 -1.0179
   69MOL   H31931735   6.418   5.055   6.757 -0.9085 -1.3499 -1.4653
   69MOL   H32031736   6.133   4.757   6.776  1.0092 -0.9309  0.5594
   69MOL   H32131737   5.919   4.608   6.827  1.5810  0.6812 -1.3194
   69MOL   H32231738   5.884   4.851   7.189  2.5317  1.8977  0.8902
   69MOL   H32331739   6.073   4.993   7.108  1.0274 -0.6105  1.6665
   69MOL   O32431740   5.603   4.565   7.212 -0.1125 -0.3547 -0.4415
   69MOL   C32531741   5.478   4.588   7.149 -0.1262  0.0910  0.4601
   69MOL   C32631742   5.418   4.724   7.184  0.4871 -0.5292  0.8841
   69MOL   O32731743   5.323   4.718   7.289  0.3875  0.3054  0.0950
   69MOL   C32831744   5.363   4.733   7.417 -0.2138 -0.4088 -0.3062
   69MOL   O32931745   5.477   4.721   7.459  0.6546 -0.5201 -0.3407
   69MOL   C33031746   5.248   4.763   7.503  0.2777  0.2094  0.0334
   69MOL   C33131747   5.272   4.826   7.628 -0.1022 -0.1292 -0.0823
   69MOL   C33231748   5.168   4.837   7.722  0.7940  0.1343  0.3769
   69MOL   C33331749   5.032   4.818   7.680 -0.9832 -0.8103 -0.1734
   69MOL   C33431750   4.922   4.856   7.770  0.8714  0.1383 -0.1484
   69MOL   O33531751   4.806   4.810   7.751  0.0210  0.2369 -0.5701
   69MOL   O33631752   4.955   4.950   7.863  0.1725 -0.5790 -0.2174
   69MOL   C33731753   5.004   4.756   7.554 -0.8229  0.3215 -0.0613
   69MOL   C33831754   5.115   4.721   7.471 -0.7156 -0.2047  0.1961
   69MOL   H33931755   5.494   4.585   7.041 -0.5727 -0.3894  0.4043
   69MOL   H34031756   5.407   4.511   7.181 -0.7842 -0.2107 -1.6296
   69MOL   H34131757   5.374   4.762   7.092  0.2878 -0.4848  0.9951
   69MOL   H34231758   5.488   4.802   7.212 -1.2118  1.0501  0.8745
   69MOL   H34331759   5.368   4.869   7.656  0.3063  0.0737 -1.7460
   69MOL   H34431760   5.190   4.888   7.815  0.6777 -1.7603  1.4686
   69MOL   H34531761   4.901   4.739   7.525 -1.1873  1.8584  0.2406
   69MOL   H34631762   5.095   4.680   7.373 -0.6820  1.0203 -0.3301
   69MOL   O34731763   4.842   4.990   7.960  0.4288 -0.2788 -0.2006
   69MOL   C34831764   4.876   4.949   8.084  0.1579  0.8072 -0.5699
   69MOL   C34931765   4.800   5.051   8.172  0.6701  0.1568 -0.1057
   69MOL   O35031766   4.680   4.993   8.224 -0.6128 -0.0375 -0.8769
   69MOL   C35131767   4.617   5.059   0.054  0.0730 -0.0710 -0.1077
   69MOL   O35231768   4.677   5.149   0.120  0.3866 -0.1442 -0.2100
   69MOL   C35331769   4.499   4.986   0.102 -0.4441  0.6622 -0.3813
   69MOL   C35431770   4.435   5.023   0.226  0.0769  0.1494  0.6041
   69MOL   C35531771   4.324   4.948   0.265  0.8245 -0.1810 -0.4001
   69MOL   C35631772   4.274   4.839   0.185 -0.3685  0.5849 -0.5449
   69MOL   C35731773   4.152   4.773   0.236 -0.2947  0.5909  0.4177
   69MOL   O35831774   4.089   4.816   0.336 -0.1511 -1.0120  0.3905
   69MOL   O35931775   4.103   4.678   0.150 -0.4543  0.2341  0.0696
   69MOL   C36031776   4.341   4.803   0.068 -0.0729  0.1375  0.0482
   69MOL   C36131777   4.443   4.886   0.022 -0.2312  0.0383  0.3933
   69MOL   H36231778   4.856   4.844   8.104 -2.3143  1.6313  1.6589
   69MOL   H36331779   4.979   4.974   8.108 -0.0993  0.0718  1.3754
   69MOL   H36431780   4.770   5.138   8.115  0.0408 -0.9481 -1.4920
   69MOL   H36531781   4.856   5.081   8.260  1.5543 -2.0155  0.1095
   69MOL   H36631782   4.478   5.104   0.283  0.2619 -0.6536  1.6311
   69MOL   H36731783   4.283   4.966   0.363 -0.8017  0.6288 -1.2023
   69MOL   H36831784   4.320   4.716   0.007  0.2290  1.5669 -2.1581
   69MOL   H36931785   4.490   4.863   8.204 -1.7756  0.8675 -0.6213
   69MOL   O37031786   3.976   4.624   0.206 -0.0195 -0.9958  0.2631
   69MOL   C37131787   3.979   4.484   0.219  0.2249 -0.3151 -0.5146
   69MOL   C37231788   4.083   4.431   0.321 -0.2779 -0.1926  0.3123
   69MOL   O37331789   4.145   4.326   0.266  0.2912  0.1544 -0.4638
   69MOL   C37431790   4.239   4.345   0.174 -0.4417  0.6197 -0.3777
   69MOL   O37531791   4.277   4.448   0.117 -0.1363 -0.9924  0.1923
   69MOL   C37631792   4.316   4.219   0.147 -0.2853  0.6722 -0.0745
   69MOL   C37731793   4.258   4.090   0.135 -0.0133 -0.4261 -0.4576
   69MOL   C37831794   4.343   3.982   0.104  0.2916  0.3429 -0.2716
   69MOL   C37931795   4.481   3.998   0.080  0.5910  0.6444 -0.7650
   69MOL   C38031796   4.570   3.878   0.051 -0.8742  0.1736  1.2946
   69MOL   O38131797   4.520   3.767   0.035  0.0296  0.3206  0.4205
   69MOL   O38231798   4.699   3.912   0.032  0.1684  0.0883  0.1324
   69MOL   C38331799   4.536   4.126   0.091  0.1999 -0.1107  0.2071
   69MOL   C38431800   4.453   4.239   0.125 -1.0963  0.0058 -0.0332
   69MOL   H38531801   3.883   4.459   0.263 -1.0520 -0.8680 -3.5351
   69MOL   H38631802   3.978   4.432   0.124 -0.2279  0.9181 -1.1968
   69MOL   H38731803   4.031   4.398   0.410 -0.3778  0.4236  0.4849
   69MOL   H38831804   4.156   4.504   0.357  0.2421 -0.6809  0.2500
   69MOL   H38931805   4.156   4.069   0.164  0.6756 -0.1349  2.2637
   69MOL   H39031806   4.303   3.881   0.102  0.5134  0.1371  2.9275
   69MOL   H39131807   4.643   4.137   0.092 -0.0440  2.6342  2.7180
   69MOL   H39231808   4.497   4.336   0.141  0.6749 -1.1455  2.2998
   69MOL   O39331809   4.782   3.803   8.254  0.0107 -0.2364  0.1103
   69MOL   C39431810   4.842   3.736   0.091 -0.4883 -0.3426 -0.0004
   69MOL   C39531811   4.946   3.633   0.045 -0.3865 -0.0412 -0.1457
   69MOL   O39631812   4.957   3.543   0.153 -0.2251  0.6648 -0.3589
   69MOL   C39731813   5.049   3.440   0.147 -0.0281 -1.0114  0.0984
   69MOL   O39831814   5.100   3.398   0.045  0.5489 -0.1230  0.1196
   69MOL   C39931815   5.089   3.397   0.280 -0.7974  0.1039 -0.0032
   69MOL   C40031816   5.210   3.326   0.292 -0.0117  0.2728 -0.3606
   69MOL   C40131817   5.259   3.281   0.416  0.1588  0.1537 -0.2802
   69MOL   C40231818   5.180   3.299   0.530 -0.3428  0.3112 -0.0991
   69MOL   C40331819   5.221   3.234   0.654 -0.0719 -0.6166  0.6613
   69MOL   O40431820   5.171   3.273   0.758 -0.7791 -0.1998  0.2218
   69MOL   O40531821   5.312   3.132   0.646  0.3686 -0.4656  0.6567
   69MOL   C40631822   5.065   3.377   0.521  0.5549 -0.3609 -0.5076
   69MOL   C40731823   5.023   3.429   0.399 -0.0892 -0.0242 -0.5285
   69MOL   H40831824   4.884   3.813   0.155  2.2639 -1.4814 -0.3943
   69MOL   H40931825   4.761   3.685   0.145 -1.3817 -1.3455 -2.2197
   69MOL   H41031826   5.038   3.684   0.016 -1.0549  1.4426  0.2886
   69MOL   H41131827   4.904   3.579   8.235 -1.6074 -0.9109  0.9823
   69MOL   H41231828   5.267   3.299   0.205 -0.7147 -0.1979 -0.6751
   69MOL   H41331829   5.356   3.233   0.424  0.8716  1.5254 -0.4340
   69MOL   H41431830   5.008   3.397   0.611 -1.1096  0.2238 -1.6631
   69MOL   H41531831   4.926   3.478   0.401  0.2472  0.6608 -0.8388
   69MOL   O41631832   5.325   3.054   0.777  0.0010  0.0717  0.4578
   69MOL   C41731833   5.286   2.916   0.757  0.1862 -1.0395 -0.1145
   69MOL   C41831834   5.387   2.848   0.669 -0.2306  0.4316  0.3018
   69MOL   O41931835   5.389   2.896   0.535  0.2708  0.0626  0.3303
   69MOL   C42031836   5.432   2.807   0.433 -0.3444 -0.4863 -0.3620
   69MOL   O42131837   5.528   2.727   0.447  0.7483 -0.9987  0.3694
   69MOL   C42231838   5.375   2.837   0.298  0.5125  0.7288 -0.5397
   69MOL   C42331839   5.379   2.738   0.200 -0.2716 -0.4959  0.3558
   69MOL   C42431840   5.304   2.757   0.078  0.0108  0.1494 -1.0869
   69MOL   C42531841   5.231   2.874   0.050 -0.1885 -0.0992  0.0637
   69MOL   C42631842   5.151   2.904   8.203 -0.1603  0.1966  0.6194
   69MOL   O42731843   5.132   3.018   8.160  0.1227 -0.0664  0.1289
   69MOL   O42831844   5.129   2.795   8.141 -0.2585 -0.4965 -0.0892
   69MOL   C42931845   5.236   2.980   0.149  1.2571  0.7997  0.4459
   69MOL   C43031846   5.311   2.963   0.268  0.1024  0.3637  0.5281
   69MOL   H43131847   5.292   2.865   0.854  0.6389  0.8689  0.8854
   69MOL   H43231848   5.183   2.904   0.722  0.2813 -0.7923 -0.4761
   69MOL   H43331849   5.359   2.743   0.672 -0.0835  0.4191  1.8111
   69MOL   H43431850   5.490   2.863   0.702 -0.7968 -0.3739  2.4766
   69MOL   H43531851   5.429   2.644   0.221  0.6146  0.0707  0.7844
   69MOL   H43631852   5.301   2.668   0.016 -0.7985  0.2307 -1.1684
   69MOL   H43731853   5.176   3.067   0.129 -0.3067 -0.7586 -2.0177
   69MOL   H43831854   5.299   3.033   0.350 -2.3856 -1.5666  1.8930
   69MOL   O43931855   5.042   2.806   8.016 -0.6599 -0.5758  0.1737
   69MOL   C44031856   4.928   2.725   8.034  0.8744 -0.0829 -0.4803
   69MOL   C44131857   4.847   2.718   7.904  0.2077 -0.3411 -0.2534
   69MOL   O44231858   4.787   2.839   7.863  0.0738 -0.4748  0.4471
   69MOL   C44331859   4.661   2.877   7.900  0.0050  0.2670 -0.3274
   69MOL   O44431860   4.587   2.809   7.979 -0.2846 -0.0439 -0.1870
   69MOL   C44531861   4.618   3.003   7.850 -0.4380  0.8513  0.1266
   69MOL   C44631862   4.707   3.100   7.806 -0.0161 -0.4408 -0.0512
   69MOL   C44731863   4.671   3.233   7.774 -0.6892 -0.1655  0.0160
   69MOL   C44831864   4.534   3.258   7.772 -0.0161 -0.4723 -0.3038
   69MOL   C44931865   4.489   3.399   7.725  0.5381 -0.7671  0.0617
   69MOL   O45031866   4.558   3.473   7.656 -0.3215 -0.1642  0.4515
   69MOL   O45131867   4.367   3.440   7.770 -0.1926 -0.5360  0.8254
   69MOL   C45231868   4.439   3.162   7.799 -0.2367  0.4161 -0.2584
   69MOL   C45331869   4.481   3.033   7.843 -0.1431  0.1542 -0.2642
   69MOL   H45431870   4.954   2.621   8.054 -0.0151 -0.0058  1.1475
   69MOL   H45531871   4.870   2.762   8.119  0.8609 -1.6177  0.1955
   69MOL   H45631872   4.767   2.644   7.910 -1.2156  0.8964 -2.8401
   69MOL   H45731873   4.920   2.679   7.833  1.1660 -0.0921  0.5846
   69MOL   H45831874   4.815   3.093   7.815  0.1848  3.0501  1.4400
   69MOL   H45931875   4.747   3.306   7.749 -3.1797  1.7333 -2.2745
   69MOL   H46031876   4.334   3.188   7.796  0.0450  1.5869  0.0136
   69MOL   H46131877   4.408   2.967   7.886  0.2486 -0.5577 -0.6826
   69MOL   H46231878   4.364   3.534   7.775  0.9598 -0.4198 -0.3890
   70MOL     O131879   7.742   5.116   6.366  0.3627  0.5170 -0.8222
   70MOL     C231880   7.721   5.228   6.436  0.7221 -0.4573 -0.1137
   70MOL     C331881   7.580   5.288   6.416  0.0079  0.6883 -0.1977
   70MOL     O431882   7.498   5.201   6.487  0.2914  0.6102  0.4509
   70MOL     C531883   7.365   5.220   6.499  0.1225 -0.8219  0.1777
   70MOL     O631884   7.304   5.299   6.430 -0.3452 -0.3979 -0.3961
   70MOL     C731885   7.305   5.134   6.599 -0.2321  0.4369  1.3136
   70MOL     C831886   7.371   5.014   6.641  0.4915 -0.3908  0.0293
   70MOL     C931887   7.304   4.926   6.734 -0.2443 -0.4029 -0.5298
   70MOL    C1031888   7.177   4.949   6.779  0.7004 -0.1433  0.2000
   70MOL    C1131889   7.107   4.844   6.861  0.2560 -0.8890  0.6571
   70MOL    O1231890   7.168   4.755   6.913 -0.2222  0.0382 -0.3325
   70MOL    O1331891   6.971   4.849   6.871  0.2407 -0.6819  0.3013
   70MOL    C1431892   7.101   5.055   6.720  0.1469 -0.0629  0.9323
   70MOL    C1531893   7.167   5.150   6.639 -0.0349  0.3338  0.2737
   70MOL    H1631894   7.758   5.208   6.536  0.5499 -2.2578 -0.3985
   70MOL    H1731895   7.789   5.304   6.396  0.5455 -0.1997  0.0745
   70MOL    H1831896   7.537   5.290   6.315 -0.7642  1.5081  0.1297
   70MOL    H1931897   7.568   5.389   6.455 -1.9387  0.3285  0.2244
   70MOL    H2031898   7.470   4.988   6.606  0.3959 -0.2092 -0.3764
   70MOL    H2131899   7.351   4.834   6.767  0.8048  0.7753  1.3744
   70MOL    H2231900   7.000   5.078   6.749  0.2799  0.3277  1.0903
   70MOL    H2331901   7.106   5.227   6.594  0.0958  0.9518  1.1441
   70MOL    H2431902   7.684   5.132   6.294  1.0558  1.0445 -1.2609
   70MOL    O2531903   6.907   4.755   6.962  0.1876  0.2274  0.4150
   70MOL    C2631904   6.892   4.825   7.083 -0.5756 -0.4683 -0.0446
   70MOL    C2731905   6.827   4.727   7.171  0.0653 -0.0275  0.5029
   70MOL    O2831906   6.816   4.783   7.301  0.0654  0.4053 -0.2989
   70MOL    C2931907   6.737   4.730   7.393  0.2381 -0.4666  0.6801
   70MOL    O3031908   6.667   4.628   7.371 -0.1238 -0.0235 -0.6238
   70MOL    C3131909   6.743   4.805   7.517  0.1403 -0.6078  0.3870
   70MOL    C3231910   6.754   4.738   7.637  0.0896 -0.2077  0.0157
   70MOL    C3331911   6.785   4.814   7.758  0.2872  0.0266  0.3314
   70MOL    C3431912   6.805   4.958   7.744  0.3464  0.3917 -0.2187
   70MOL    C3531913   6.857   5.038   7.863 -0.1349  0.6179  0.3078
   70MOL    O3631914   6.856   5.159   7.876 -0.3102  0.0489 -0.2566
   70MOL    O3731915   6.900   4.957   7.964 -0.0209 -0.5015 -0.1408
   70MOL    C3831916   6.784   5.027   7.624  0.9136  0.7367 -0.3265
   70MOL    C3931917   6.745   4.950   7.513  0.5315  0.2661  0.1560
   70MOL    H4031918   6.989   4.858   7.122  0.6301 -1.0225 -2.4614
   70MOL    H4131919   6.828   4.913   7.071 -1.0495 -0.8316 -0.1516
   70MOL    H4231920   6.886   4.636   7.177 -0.9069 -0.7039 -0.0877
   70MOL    H4331921   6.729   4.701   7.130 -0.8105 -1.0360  3.0841
   70MOL    H4431922   6.737   4.631   7.637  2.4510 -0.6499  2.3158
   70MOL    H4531923   6.773   4.768   7.855 -1.1433  2.6436  1.4403
   70MOL    H4631924   6.804   5.132   7.608  0.5377  0.9247  0.4208
   70MOL    H4731925   6.735   5.004   7.420  1.5227  0.8395  0.3761
   70MOL    O4831926   6.971   5.025   8.073  0.0039  0.5539 -0.0638
   70MOL    C4931927   7.113   5.027   8.051 -0.2869 -0.0778  0.4336
   70MOL    C5031928   7.164   5.131   8.151  0.0250  0.4385  0.4565
   70MOL    O5131929   7.110   5.260   8.120  0.1059  0.0778  0.5094
   70MOL    C5231930   7.188   5.357   8.071  0.2091  0.1100  0.6456
   70MOL    O5331931   7.310   5.361   8.052  0.1540 -0.1615  0.3663
   70MOL    C5431932   7.102   5.481   8.040  0.0426 -0.3165 -0.0600
   70MOL    C5531933   6.965   5.485   8.078 -0.6317  0.0937 -0.2566
   70MOL    C5631934   6.897   5.603   8.049 -0.4648  0.5866  0.5419
   70MOL    C5731935   6.955   5.715   7.987 -0.1987  0.7110 -0.6042
   70MOL    C5831936   6.884   5.841   7.966  0.3282 -0.4206  0.2349
   70MOL    O5931937   6.769   5.846   8.004 -0.3785 -0.2567  0.0549
   70MOL    O6031938   6.944   5.930   7.882  0.2670 -0.2648 -0.0386
   70MOL    C6131939   7.087   5.699   7.952 -0.1603  0.5476  0.4439
   70MOL    C6231940   7.166   5.587   7.978  0.7332 -0.1523 -0.3759
   70MOL    H6331941   7.155   4.929   8.073 -2.4802 -1.0492  0.4584
   70MOL    H6431942   7.137   5.055   7.948 -0.5856 -1.4589 -0.0141
   70MOL    H6531943   7.273   5.133   8.162  0.6150 -1.1038 -3.8192
   70MOL    H6631944   7.139   5.105   8.253  2.1147  0.7485  1.0765
   70MOL    H6731945   6.910   5.402   8.120 -0.8626 -1.4546 -3.4777
   70MOL    H6831946   6.794   5.611   8.080 -1.2633 -1.7394 -1.3980
   70MOL    H6931947   7.137   5.781   7.902  0.0137  0.4776  0.5023
   70MOL    H7031948   7.270   5.587   7.949  0.2819  0.2484 -2.0963
   70MOL    O7131949   6.854   6.045   7.839 -0.0400 -0.5512 -0.2017
   70MOL    C7231950   6.871   6.159   7.922 -0.1036  0.4630  0.0886
   70MOL    C7331951   6.780   6.274   7.888 -0.4053 -0.8551  0.4349
   70MOL    O7431952   6.669   6.267   7.976 -0.7331 -0.8224  0.1589
   70MOL    C7531953   6.546   6.235   7.929 -0.3475 -0.0990 -0.9992
   70MOL    O7631954   6.528   6.196   7.812 -0.5166  0.3146 -0.6163
   70MOL    C7731955   6.438   6.240   8.028 -1.5686 -0.0235  0.3163
   70MOL    C7831956   6.450   6.310   8.146 -0.1639 -0.1954  0.1005
   70MOL    C7931957   6.340   6.323   8.231 -1.0493 -0.0935  0.3899
   70MOL    C8031958   6.217   6.268   8.195  0.0852 -0.0905 -0.8234
   70MOL    C8131959   6.104   6.279   0.014  0.3588  0.7324  0.1998
   70MOL    O8231960   6.108   6.334   0.122  0.3584  0.3965 -0.0799
   70MOL    O8331961   5.995   6.224   8.238  0.0033  0.6908  0.6039
   70MOL    C8431962   6.205   6.192   8.072  0.1539 -0.3523 -0.0046
   70MOL    C8531963   6.320   6.181   7.988  0.3565  0.5168 -0.4686
   70MOL    H8631964   6.841   6.115   8.017  1.1821 -0.0996  0.2482
   70MOL    H8731965   6.976   6.187   7.935  0.3042 -1.0705  0.1443
   70MOL    H8831966   6.747   6.282   7.785  0.8314  1.1340  0.1641
   70MOL    H8931967   6.838   6.363   7.911  1.9157 -1.7985 -1.5108
   70MOL    H9031968   6.541   6.362   8.170 -1.1673  1.4016  0.4780
   70MOL    H9131969   6.355   6.370   0.052  0.4545  0.6288 -0.1805
   70MOL    H9231970   6.105   6.159   8.045  0.4668 -1.0217 -0.3519
   70MOL    H9331971   6.297   6.124   7.899  0.9578  1.1496 -1.0365
   70MOL    O9431972   5.884   6.186   0.057  0.3342  0.3351  0.0167
   70MOL    C9531973   5.772   6.270   0.027  0.0978  0.7024  0.0928
   70MOL    C9631974   5.656   6.235   0.119  0.4292  0.0217 -0.0616
   70MOL    O9731975   5.542   6.303   0.082 -0.4588 -0.5705  0.3305
   70MOL    C9831976   5.512   6.436   0.114  0.4616 -0.1806  0.4467
   70MOL    O9931977   5.590   6.503   0.182  0.5261 -0.0496  0.4664
   70MOL   C10031978   5.386   6.488   0.058 -1.0751  0.8926  0.1090
   70MOL   C10131979   5.309   6.581   0.134  0.3410  0.0719 -0.0219
   70MOL   C10231980   5.183   6.618   0.083  0.6961 -0.5536  0.0241
   70MOL   C10331981   5.132   6.556   8.240  0.4195 -0.0500  0.3988
   70MOL   C10431982   4.995   6.585   8.190 -0.2277 -0.5978  0.2080
   70MOL   O10531983   4.915   6.662   8.245  0.4371 -0.1956 -0.0833
   70MOL   O10631984   4.954   6.492   8.100  0.2087 -0.1908 -0.2161
   70MOL   C10731985   5.214   6.475   8.162  0.5367 -1.1777  0.6587
   70MOL   C10831986   5.342   6.437   8.209 -0.1037 -0.0396 -0.7077
   70MOL   H10931987   5.792   6.373   0.055  1.0044  0.5863 -0.0975
   70MOL   H11031988   5.750   6.271   8.196  0.2548 -0.7220  0.0362
   70MOL   H11131989   5.679   6.271   0.219  1.6688 -0.1358 -0.2828
   70MOL   H11231990   5.624   6.131   0.127  1.8029 -0.2863  1.8606
   70MOL   H11331991   5.334   6.621   0.231 -1.6972 -0.6268  0.8285
   70MOL   H11431992   5.120   6.684   0.139  0.7265  1.3100 -2.0610
   70MOL   H11531993   5.182   6.434   8.067 -1.5563 -0.7382  1.1331
   70MOL   H11631994   5.395   6.355   8.162  3.0110 -0.3734  3.1007
   70MOL   O11731995   4.800   6.493   8.076 -0.1094  0.5037  0.3632
   70MOL   C11831996   4.767   6.569   7.961 -0.1185  0.2523  0.1335
   70MOL   C11931997   4.677   6.688   7.990 -0.2544 -0.2202 -0.2568
   70MOL   O12031998   4.746   6.811   7.989 -0.6895  0.2682  0.2544
   70MOL   C12131999   4.774   6.872   7.874  0.1063 -0.1388  0.9928
   70MOL   O12232000   4.747   6.826   7.765 -0.1870  0.1864  0.3814
   70MOL   C12332001   4.841   7.002   7.910 -0.4124 -0.1016  0.1947
   70MOL   C12432002   4.847   7.097   7.806 -0.7819  0.4048 -0.6189
   70MOL   C12532003   4.922   7.215   7.824 -0.1150  0.2566 -0.1778
   70MOL   C12632004   4.975   7.248   7.946  0.1530  0.3232  0.1809
   70MOL   C12732005   5.045   7.373   7.971  0.5487 -0.1763 -0.1911
   70MOL   O12832006   5.143   7.386   8.042 -0.3479 -0.3525 -0.1865
   70MOL   O12932007   5.007   7.472   7.890 -0.0409 -0.0162  0.1737
   70MOL   C13032008   4.969   7.148   8.053 -0.2830  0.6279 -0.0835
   70MOL   C13132009   4.910   7.021   8.029 -0.0056 -0.4559 -0.6443
   70MOL   H13232010   4.858   6.595   7.907 -1.3016  1.2623 -1.4194
   70MOL   H13332011   4.707   6.497   7.904 -1.6284  1.4687  0.1483
   70MOL   H13432012   4.611   6.687   8.076  1.0740  1.2706  0.8118
   70MOL   H13532013   4.600   6.691   7.913 -0.4781 -0.5086 -0.0428
   70MOL   H13632014   4.790   7.075   7.716 -0.3855  1.3891 -1.1211
   70MOL   H13732015   4.933   7.282   7.740 -0.7814 -1.8000 -1.9639
   70MOL   H13832016   5.021   7.169   8.145  0.4760  0.0312 -0.3780
   70MOL   H13932017   4.922   6.948   8.108 -0.9650 -0.8136 -0.8293
   70MOL   O14032018   5.118   7.569   7.858  0.0068 -0.1671 -0.6628
   70MOL   C14132019   5.089   7.681   7.942 -0.4731 -0.0261  0.1971
   70MOL   C14232020   4.972   7.779   7.901 -0.0292 -0.7709 -0.5694
   70MOL   O14332021   4.846   7.717   7.903 -0.5001  0.0431 -0.4603
   70MOL   C14432022   4.771   7.731   8.009 -0.3400  0.0434  0.0093
   70MOL   O14532023   4.806   7.790   8.115  0.2535 -0.4094  0.0584
   70MOL   C14632024   4.635   7.680   7.990  0.8812 -0.3793 -0.1663
   70MOL   C14732025   4.545   7.662   8.099  0.4854 -0.0811 -0.0752
   70MOL   C14832026   4.418   7.610   8.075 -0.3959  0.4405 -0.0815
   70MOL   C14932027   4.380   7.559   7.949  0.3875 -0.0249  0.1512
   70MOL   C15032028   4.249   7.495   7.931  0.1279 -0.7564  0.1283
   70MOL   O15132029   4.145   7.542   7.982  0.2216 -0.7135  0.5964
   70MOL   O15232030   4.261   7.396   7.848 -0.3873  0.1924  0.1441
   70MOL   C15332031   4.468   7.575   7.845 -0.1249 -0.2944  0.1009
   70MOL   C15432032   4.594   7.639   7.866  0.4868  0.7240 -0.3252
   70MOL   H15532033   5.100   7.658   8.048  0.2156 -0.7415 -0.0198
   70MOL   H15632034   5.179   7.742   7.933  1.1444 -2.5788 -2.0485
   70MOL   H15732035   4.987   7.820   7.801 -0.6921 -0.1625 -0.4265
   70MOL   H15832036   4.985   7.863   7.969  2.1107 -0.3414 -1.4885
   70MOL   H15932037   4.572   7.702   8.196 -1.6552  1.5662 -0.1300
   70MOL   H16032038   4.347   7.597   8.156  0.4557 -2.2569  0.2697
   70MOL   H16132039   4.440   7.532   7.749 -0.7884  1.9538 -0.7531
   70MOL   H16232040   4.655   7.650   7.777  0.7461 -1.9393 -0.5183
   70MOL   O16332041   4.123   7.357   7.785  0.1721 -0.0559 -0.4451
   70MOL   C16432042   4.115   7.411   7.653  0.6426 -0.2072  0.5152
   70MOL   C16532043   3.973   7.391   7.601  0.6359 -0.1482 -0.4449
   70MOL   O16632044   3.879   7.465   7.672 -0.0899  0.5806 -0.2031
   70MOL   C16732045   3.758   7.412   7.686  1.0871  0.7248 -0.6765
   70MOL   O16832046   3.716   7.305   7.646 -0.1510 -0.1979 -0.2100
   70MOL   C16932047   3.663   7.507   7.754 -0.7806  0.2680 -0.4066
   70MOL   C17032048   3.524   7.481   7.753 -0.3992 -0.0342  0.3151
   70MOL   C17132049   3.442   7.578   7.816 -1.0890 -0.1073 -0.0364
   70MOL   C17232050   3.495   7.696   7.867  0.1176 -0.2727  0.7525
   70MOL   C17332051   3.396   7.792   7.924  0.8617  0.1713  0.0758
   70MOL   O17432052   3.291   7.758   7.975 -0.0066  0.0778 -0.0856
   70MOL   O17532053   3.424   7.920   7.894  0.1612  0.0717 -0.2742
   70MOL   C17632054   3.634   7.717   7.863  0.3755  0.1664  0.2698
   70MOL   C17732055   3.718   7.618   7.821 -0.4448  0.4462  0.4949
   70MOL   H17832056   4.142   7.516   7.648  0.4652 -0.2779 -3.5949
   70MOL   H17932057   4.185   7.366   7.582  1.6691  1.4262  0.4628
   70MOL   H18032058   3.952   7.284   7.605  0.6982 -0.1388  0.1198
   70MOL   H18132059   3.966   7.404   7.493  0.5741 -0.0192 -0.4255
   70MOL   H18232060   3.482   7.391   7.710  0.6998  0.2194 -1.3391
   70MOL   H18332061   3.337   7.553   7.817 -0.6788 -1.8303  1.5965
   70MOL   H18432062   3.682   7.806   7.901  1.3359  0.7243 -2.1133
   70MOL   H18532063   3.825   7.630   7.832 -0.4205  1.6900 -0.8311
   70MOL   O18632064   3.305   8.002   7.881 -0.1696  0.3374  0.6465
   70MOL   C18732065   3.293   8.087   7.997  0.0612  0.0194 -0.1451
   70MOL   C18832066   3.161   8.167   7.972 -0.3733  0.3807  0.6234
   70MOL   O18932067   3.115   8.251   8.073 -0.1330 -0.5042 -0.3068
   70MOL   C19032068   3.131   0.112   8.065  0.8773  0.4741 -0.1688
   70MOL   O19132069   3.170   0.169   7.963  0.1145  0.3754  0.0645
   70MOL   C19232070   3.108   0.172   8.192  0.2542 -0.4216  0.4043
   70MOL   C19332071   3.038   0.107   0.020 -0.0328  0.3149  0.3490
   70MOL   C19432072   3.019   0.162   0.148  0.1143 -0.1440 -0.0453
   70MOL   C19532073   3.070   0.293   0.174  0.2665 -0.0396 -0.1003
   70MOL   C19632074   3.045   0.352   0.307 -0.7542  0.3137  0.1269
   70MOL   O19732075   2.973   0.302   0.398  0.2505 -0.7100 -0.2334
   70MOL   O19832076   3.115   0.463   0.328  0.7954  0.2841  0.6031
   70MOL   C19932077   3.135   0.363   0.071  0.1394  0.3491 -0.9537
   70MOL   C20032078   3.155   0.304   8.221 -0.3931 -0.1355 -0.5033
   70MOL   H20132079   3.304   8.015   8.078 -0.5829 -3.3691 -2.9079
   70MOL   H20232080   3.375   8.158   7.990  0.6028 -0.4942  0.9008
   70MOL   H20332081   3.079   8.098   7.954 -0.9374  1.1383  0.3017
   70MOL   H20432082   3.184   8.221   7.881  0.7788  1.7589  1.6949
   70MOL   H20532083   3.002   0.007   0.001  0.4830  0.5825 -2.2428
   70MOL   H20632084   2.971   0.113   0.232  2.1571 -1.4177  0.4290
   70MOL   H20732085   3.185   0.456   0.095 -2.1743  1.4854 -0.4241
   70MOL   H20832086   3.215   0.362   8.151 -2.1627  0.8902 -1.2075
   70MOL   O20932087   3.065   0.538   0.441 -0.3036 -0.7834 -0.4823
   70MOL   C21032088   3.002   0.657   0.387  1.1454 -0.2145 -0.2408
   70MOL   C21132089   3.099   0.777   0.364  0.0194  0.1235  0.2014
   70MOL   O21232090   3.118   0.866   0.479  0.3629 -0.5405 -0.8134
   70MOL   C21332091   3.169   0.816   0.600  0.2148  0.9661 -0.3763
   70MOL   O21432092   3.192   0.692   0.618 -0.1909 -0.3677  0.4135
   70MOL   C21532093   3.190   0.922   0.703 -0.4551  0.4231  0.2765
   70MOL   C21632094   3.175   1.058   0.670  0.1614 -0.3346  0.3096
   70MOL   C21732095   3.179   1.153   0.766 -0.2694  0.2331  0.7608
   70MOL   C21832096   3.194   1.121   0.906  0.3648  0.6532  0.0062
   70MOL   C21932097   3.204   1.217   1.013 -0.3963  0.5830 -0.4801
   70MOL   O22032098   3.150   1.199   1.119  0.1200  0.1738  0.2153
   70MOL   O22132099   3.283   1.323   0.977  0.3654  0.2465  0.2927
   70MOL   C22232100   3.214   0.982   0.935  0.0329 -1.1376 -0.4681
   70MOL   C22332101   3.209   0.889   0.835 -0.7858 -0.5300 -0.5775
   70MOL   H22432102   2.943   0.645   0.296 -0.6846 -0.8391  1.0091
   70MOL   H22532103   2.922   0.689   0.453  0.7005 -0.0782 -0.8345
   70MOL   H22632104   3.055   0.840   0.287 -0.1409 -2.4860 -1.9072
   70MOL   H22732105   3.187   0.748   0.306 -1.4111 -1.2126 -1.3223
   70MOL   H22832106   3.161   1.077   0.565  0.1717  1.3830  0.5954
   70MOL   H22932107   3.152   1.255   0.746  2.4830  0.8453 -0.0021
   70MOL   H23032108   3.217   0.938   1.034  1.8727 -2.8228 -1.2105
   70MOL   H23132109   3.220   0.787   0.869 -1.7852 -0.4325  0.0413
   70MOL   O23232110   3.332   1.415   1.083 -0.7424 -0.0918  0.3546
   70MOL   C23332111   3.242   1.525   1.100  0.8441  0.6787  0.1509
   70MOL   C23432112   3.264   1.594   1.236 -0.5049  0.5572  0.0178
   70MOL   O23532113   3.229   1.502   1.347  0.0057 -0.4210 -0.3159
   70MOL   C23632114   3.153   1.549   1.445 -0.3778  0.4538 -0.5725
   70MOL   O23732115   3.093   1.655   1.436 -0.0858 -0.4141  0.1857
   70MOL   C23832116   3.140   1.453   1.558 -0.0680 -1.3112  0.0512
   70MOL   C23932117   3.225   1.341   1.581  0.2497 -0.1548  0.2731
   70MOL   C24032118   3.204   1.258   1.688  0.1052 -0.1761  0.9526
   70MOL   C24132119   3.110   1.282   1.787 -0.3714  0.1006  0.7125
   70MOL   C24232120   3.107   1.186   1.901  0.6121 -0.6274 -0.3537
   70MOL   O24332121   3.179   1.081   1.904 -0.0408  0.3543 -0.0930
   70MOL   O24432122   3.011   1.213   1.996 -0.2771  0.0338  0.9917
   70MOL   C24532123   3.020   1.392   1.764  0.0941  0.3061 -0.1195
   70MOL   C24632124   3.035   1.471   1.649 -0.3959 -0.4797  0.0541
   70MOL   H24732125   3.268   1.592   1.018  1.9185 -0.7187 -0.6575
   70MOL   H24832126   3.138   1.496   1.087  1.5115 -2.5416  1.5654
   70MOL   H24932127   3.225   1.695   1.244 -1.7854  0.1835 -1.2869
   70MOL   H25032128   3.366   1.632   1.235  0.8812 -2.8993  1.6429
   70MOL   H25132129   3.300   1.311   1.509 -1.4296  0.6778 -1.8946
   70MOL   H25232130   3.268   1.172   1.706  0.5770 -0.1041 -0.3086
   70MOL   H25332131   2.942   1.423   1.831  0.3359  1.1842 -0.2243
   70MOL   H25432132   2.965   1.552   1.636 -1.1075 -1.0889  0.0269
   70MOL   O25532133   3.018   1.131   2.121  1.1970  0.6544 -0.2709
   70MOL   C25632134   3.112   1.191   2.213 -0.3370  0.1431 -0.0337
   70MOL   C25732135   3.062   1.324   2.274  0.0416 -0.1174  0.2102
   70MOL   O25832136   3.101   1.432   2.199 -0.6174 -0.2744  0.2526
   70MOL   C25932137   3.072   1.554   2.241 -0.6177 -0.7076  0.2838
   70MOL   O26032138   3.034   1.578   2.358  0.0547 -0.3033 -0.3314
   70MOL   C26132139   3.092   1.667   2.141 -0.2288  0.3825  0.0634
   70MOL   C26232140   3.060   1.801   2.175  0.2901 -0.4363 -0.4033
   70MOL   C26332141   3.059   1.911   2.084  0.0797 -0.1437 -0.0596
   70MOL   C26432142   3.090   1.880   1.946 -0.1810  0.3616 -0.7928
   70MOL   C26532143   3.070   1.986   1.848 -0.4869  0.2452 -0.0977
   70MOL   O26632144   3.075   2.103   1.869 -0.4929 -0.3829 -0.4356
   70MOL   O26732145   3.053   1.935   1.725 -0.4874  0.1606 -0.0437
   70MOL   C26832146   3.124   1.749   1.914 -0.1238 -0.9143 -0.1752
   70MOL   C26932147   3.129   1.644   2.006  0.9333 -0.1576 -0.8084
   70MOL   H27032148   3.127   1.115   2.289  1.4759  1.1257  0.6321
   70MOL   H27132149   3.207   1.210   2.163  0.4842 -3.1846  0.2030
   70MOL   H27232150   3.118   1.323   2.368  0.9698 -1.2809 -0.3342
   70MOL   H27332151   2.956   1.325   2.297  0.1229 -1.1026  0.6397
   70MOL   H27432152   3.011   1.824   2.269  1.6962  1.8959 -0.2027
   70MOL   H27532153   3.008   2.006   2.096  2.6802  1.2817  0.2536
   70MOL   H27632154   3.147   1.725   1.811  0.5466 -2.2855  0.2801
   70MOL   H27732155   3.153   1.546   1.967  0.6428 -2.0052  3.3812
   70MOL   O27832156   3.030   2.026   1.608 -0.1024  0.0477  0.9336
   70MOL   C27932157   3.148   2.026   1.532  0.0712  0.2314 -0.7287
   70MOL   C28032158   3.133   2.116   1.416  0.3463 -0.0596  0.1151
   70MOL   O28132159   3.049   2.057   1.316 -1.0751 -0.2416 -0.0909
   70MOL   C28232160   3.094   1.972   1.225 -0.3520  0.1987 -0.0419
   70MOL   O28332161   3.212   1.937   1.210 -0.1173 -0.4107 -0.2859
   70MOL   C28432162   2.984   1.919   1.139 -0.4086 -0.2208  0.0448
   70MOL   C28532163   3.016   1.818   1.047  1.0955  0.0402 -0.0999
   70MOL   C28632164   2.920   1.761   0.967 -0.2179  0.4566 -0.5224
   70MOL   C28732165   2.785   1.798   0.986  0.0916 -0.2141  0.2752
   70MOL   C28832166   2.675   1.743   0.902  0.3274 -0.5394  0.1011
   70MOL   O28932167   2.691   1.686   0.797  0.0780 -0.1558  0.2591
   70MOL   O29032168   2.557   1.762   0.958 -0.5819 -0.6762  0.1419
   70MOL   C29132169   2.750   1.898   1.078  0.2742  0.7417  0.0656
   70MOL   C29232170   2.846   1.958   1.154 -0.4835  0.1561 -0.5344
   70MOL   H29332171   3.228   2.064   1.596 -0.7261 -0.7114  0.8656
   70MOL   H29432172   3.174   1.921   1.519 -0.3318  0.2283 -1.4760
   70MOL   H29532173   3.234   2.142   1.384  0.1641 -3.1708 -3.3030
   70MOL   H29632174   3.085   2.209   1.447  0.0210 -0.5801  1.1745
   70MOL   H29732175   3.120   1.793   1.031  1.3455  1.1890 -0.2801
   70MOL   H29832176   2.953   1.684   0.899  0.7507 -0.3811  0.8818
   70MOL   H29932177   2.651   1.936   1.093 -0.7740 -2.7873  2.8653
   70MOL   H30032178   2.821   2.033   1.227 -1.5468 -0.0421 -0.6848
   70MOL   O30132179   2.442   1.708   0.878  0.5952  0.3001 -0.6084
   70MOL   C30232180   2.403   1.590   0.931  0.3889  0.1865 -1.4891
   70MOL   C30332181   2.295   1.533   0.847  0.2937  0.0486  0.2466
   70MOL   O30432182   2.247   1.416   0.910  0.0560 -0.1122  0.3206
   70MOL   C30532183   2.110   1.397   0.945 -0.0505  0.1028 -0.0613
   70MOL   O30632184   2.014   1.463   0.906 -0.2320 -0.3901 -0.1351
   70MOL   C30732185   2.098   1.298   1.052  0.2929  0.1163 -0.0397
   70MOL   C30832186   2.203   1.206   1.085  0.0658 -0.8321  0.0062
   70MOL   C30932187   2.190   1.124   1.202 -0.4093 -0.2388 -0.1101
   70MOL   C31032188   2.073   1.119   1.285  0.7812  0.2715 -0.1214
   70MOL   C31132189   2.076   1.049   1.416  0.5409 -0.1362  0.0176
   70MOL   O31232190   1.981   1.045   1.499 -0.0786  0.2282 -0.6943
   70MOL   O31332191   2.195   0.994   1.438  0.2860 -0.5749 -0.1038
   70MOL   C31432192   1.971   1.199   1.238 -0.0792 -0.2013 -0.5356
   70MOL   C31532193   1.982   1.283   1.125  0.6209 -0.3874  0.0020
   70MOL   H31632194   2.491   1.527   0.920 -1.1249 -2.4504  1.0644
   70MOL   H31732195   2.383   1.609   1.036 -0.9305  0.2813 -1.7462
   70MOL   H31832196   2.350   1.505   0.757  0.5867 -0.3420  0.5472
   70MOL   H31932197   2.222   1.612   0.829  1.5079  1.6919  2.3786
   70MOL   H32032198   2.296   1.221   1.033  1.2215  1.0249  2.4874
   70MOL   H32132199   2.278   1.069   1.234  0.2632 -0.2937 -1.9894
   70MOL   H32232200   1.875   1.190   1.287  0.3220 -0.5086  0.1939
   70MOL   H32332201   1.893   1.337   1.096 -0.0809 -2.2601 -1.4008
   70MOL   O32432202   2.196   0.890   1.554  0.1293  0.3244 -0.2420
   70MOL   C32532203   2.176   0.754   1.508  0.0025  0.4137  0.0869
   70MOL   C32632204   2.214   0.663   1.619 -0.1744  0.5291  0.4070
   70MOL   O32732205   2.229   0.537   1.561 -1.0453  0.4639 -0.0055
   70MOL   C32832206   2.171   0.428   1.617  0.2734 -0.4704 -0.0551
   70MOL   O32932207   2.113   0.432   1.724 -0.8034 -0.1398  0.2577
   70MOL   C33032208   2.185   0.302   1.534 -0.1573 -0.3618  0.0114
   70MOL   C33132209   2.108   0.193   1.570  0.4671  0.2510  0.2335
   70MOL   C33232210   2.111   0.076   1.491  0.0127  0.0112  0.3830
   70MOL   C33332211   2.196   0.067   1.377 -0.2656  0.8304 -0.2559
   70MOL   C33432212   2.220   8.213   1.317 -0.2207  0.9631 -0.1001
   70MOL   O33532213   2.179   8.107   1.364  0.2971 -0.4903  0.3518
   70MOL   O33632214   2.305   8.215   1.201  0.5241 -0.3053 -0.4371
   70MOL   C33732215   2.273   0.181   1.343 -0.2050  0.1932 -0.0897
   70MOL   C33832216   2.260   0.299   1.413 -0.5792  0.2510  0.4059
   70MOL   H33932217   2.070   0.747   1.486 -0.4111 -1.1022  2.3244
   70MOL   H34032218   2.232   0.736   1.417  0.2329  0.3161  0.2461
   70MOL   H34132219   2.156   0.682   1.710 -0.0115  1.0216  0.4102
   70MOL   H34232220   2.310   0.706   1.647 -0.3259  1.7630 -0.8879
   70MOL   H34332221   2.050   0.191   1.661 -2.3494 -0.7956 -1.5423
   70MOL   H34432222   2.064   8.260   1.522 -0.1133  0.0336  0.2633
   70MOL   H34532223   2.339   0.168   1.258 -0.2720 -0.7814  0.0022
   70MOL   H34632224   2.313   0.384   1.375 -0.8785 -0.1711 -0.9813
   70MOL   O34732225   2.339   8.077   1.147 -0.1749 -0.4389 -0.4296
   70MOL   C34832226   2.472   8.039   1.179 -0.5519 -0.5306 -0.2046
   70MOL   C34932227   2.497   7.989   1.319  0.1275  0.2524  0.0099
   70MOL   O35032228   2.498   8.093   1.414  0.0576  0.1529  0.3549
   70MOL   C35132229   2.567   8.070   1.526  0.3896 -0.1148 -0.4067
   70MOL   O35232230   2.629   7.970   1.555 -0.3054  0.3370  0.3703
   70MOL   C35332231   2.564   8.189   1.618  0.2876 -0.9067 -0.0973
   70MOL   C35432232   2.635   8.182   1.741  0.2317 -0.0969  0.1130
   70MOL   C35532233   2.628   0.015   1.829 -0.5805  0.4792 -0.2136
   70MOL   C35632234   2.554   0.133   1.795 -0.3561 -0.2302  0.2156
   70MOL   C35732235   2.574   0.252   1.886  0.1901 -0.2315 -0.5497
   70MOL   O35832236   2.664   0.257   1.976  0.3179  0.4463  0.4636
   70MOL   O35932237   2.497   0.358   1.854 -0.1313  0.4353  0.0885
   70MOL   C36032238   2.483   0.140   1.674  0.1002  0.1666  0.4179
   70MOL   C36132239   2.491   0.029   1.583 -0.2440  0.3582  0.3020
   70MOL   H36232240   2.501   7.964   1.105 -0.0916 -1.3642  0.7995
   70MOL   H36332241   2.532   8.130   1.171  0.6072 -0.9057  3.0850
   70MOL   H36432242   2.598   7.948   1.316  0.0962  0.2287 -0.8649
   70MOL   H36532243   2.432   7.905   1.343 -3.0173  2.7143  0.4215
   70MOL   H36632244   2.687   8.089   1.759  0.7050  0.0635 -0.4234
   70MOL   H36732245   2.682   0.009   1.922 -0.8613 -1.0577 -0.1397
   70MOL   H36832246   2.441   0.237   1.649  1.8658  0.6099 -0.9463
   70MOL   H36932247   2.440   0.037   1.489 -0.8826 -2.1759  0.3955
   70MOL   O37032248   2.510   0.471   1.947 -0.0788 -0.2039  0.4492
   70MOL   C37132249   2.392   0.472   2.030 -0.1436 -0.0169 -0.5600
   70MOL   C37232250   2.380   0.606   2.116  0.3441  0.0650  0.2084
   70MOL   O37332251   2.473   0.623   2.230 -0.1879  0.0807  0.1166
   70MOL   C37432252   2.443   0.583   2.362  0.7075 -0.5973 -0.6832
   70MOL   O37532253   2.328   0.568   2.405 -0.5304 -0.1578  0.3421
   70MOL   C37632254   2.560   0.577   2.455 -0.8369  0.5516  0.3619
   70MOL   C37732255   2.542   0.566   2.596 -0.3221 -1.5525  0.1120
   70MOL   C37832256   2.654   0.570   2.685  0.0788 -0.8449  0.4453
   70MOL   C37932257   2.784   0.574   2.630  0.2282  0.6409  0.5371
   70MOL   C38032258   2.901   0.602   2.720  0.1691  0.4811 -0.7222
   70MOL   O38132259   2.896   0.572   2.840 -0.9168 -0.5643  0.1416
   70MOL   O38232260   3.005   0.652   2.658 -0.1087  0.0631 -0.1822
   70MOL   C38332261   2.802   0.565   2.490 -0.5814  0.2965 -0.0531
   70MOL   C38432262   2.690   0.574   2.405  0.2911 -0.5965  0.1237
   70MOL   H38532263   2.294   0.465   1.983 -0.4249 -1.5064  0.1982
   70MOL   H38632264   2.387   0.383   2.093  2.2959 -0.9091 -1.5525
   70MOL   H38732265   2.273   0.615   2.137 -0.0264  2.4183 -2.4165
   70MOL   H38832266   2.395   0.684   2.043 -0.1903 -1.4156 -1.5157
   70MOL   H38932267   2.443   0.568   2.639  0.3399  2.0219  1.6375
   70MOL   H39032268   2.623   0.562   2.788  0.0999 -0.6986  0.4641
   70MOL   H39132269   2.893   0.582   2.433 -1.7239  1.3238 -1.6356
   70MOL   H39232270   2.702   0.567   2.298  1.0056  3.6221 -0.1266
   70MOL   O39332271   3.132   0.658   2.728  0.3518 -0.2328 -0.2093
   70MOL   C39432272   3.227   0.571   2.667  0.0378 -0.2848  0.0003
   70MOL   C39532273   3.377   0.615   2.699 -0.0886  0.7523 -0.2274
   70MOL   O39632274   3.439   0.544   2.806  0.2677 -0.5960 -0.7361
   70MOL   C39732275   3.482   0.412   2.786  0.3523 -0.6996  0.5875
   70MOL   O39832276   3.464   0.350   2.679 -0.6874  0.1119 -0.1138
   70MOL   C39932277   3.558   0.369   2.901 -0.6733 -0.6960  0.3446
   70MOL   C40032278   3.589   0.233   2.914  0.3634 -0.4495 -0.6065
   70MOL   C40132279   3.668   0.187   3.022  0.5068 -0.2408  0.5828
   70MOL   C40232280   3.730   0.282   3.114 -0.4504 -0.0390  0.2489
   70MOL   C40332281   3.812   0.243   3.233  0.5945  0.2057 -0.2562
   70MOL   O40432282   3.867   0.327   3.305 -0.1317  0.1068  0.6897
   70MOL   O40532283   3.816   0.107   3.254 -0.1277  0.2624 -0.1287
   70MOL   C40632284   3.712   0.418   3.090 -0.7888  0.2665 -0.2461
   70MOL   C40732285   3.621   0.460   2.984  0.7457  0.1397  0.5443
   70MOL   H40832286   3.208   0.470   2.703 -0.1749 -0.4999 -0.7062
   70MOL   H40932287   3.218   0.581   2.559 -1.8626 -1.7303  0.0035
   70MOL   H41032288   3.380   0.722   2.719 -0.5043  0.6628  0.3288
   70MOL   H41132289   3.440   0.598   2.612  0.4241  0.7714  0.1328
   70MOL   H41232290   3.544   0.166   2.842 -1.8908  1.2980 -0.8865
   70MOL   H41332291   3.690   0.082   3.026  3.3532  0.3365  1.8809
   70MOL   H41432292   3.739   0.484   3.171  0.7725 -1.5078  0.7178
   70MOL   H41532293   3.599   0.565   2.974  1.7662  0.1115 -2.2142
   70MOL   O41632294   3.911   0.077   3.364  0.8855  0.6518  0.5210
   70MOL   C41732295   3.850   8.275   3.460 -0.9343  0.1970 -0.1002
   70MOL   C41832296   3.747   0.093   3.536 -0.1605  0.0522  0.3275
   70MOL   O41932297   3.623   0.079   3.466 -0.1267 -0.0016 -0.6971
   70MOL   C42032298   3.509   0.129   3.520 -0.2305 -0.0088 -0.1853
   70MOL   O42132299   3.498   0.184   3.631  0.0744  0.3413  0.3853
   70MOL   C42232300   3.389   0.089   3.441  1.0879  0.0306 -0.4267
   70MOL   C42332301   3.260   0.112   3.497  0.1165 -0.1983 -0.1754
   70MOL   C42432302   3.142   0.060   3.443 -0.5173  0.3508 -0.4607
   70MOL   C42532303   3.150   8.243   3.340  0.2755 -0.0589 -0.5313
   70MOL   C42632304   3.032   8.169   3.291 -0.0748  1.0113  0.6682
   70MOL   O42732305   2.919   8.169   3.345 -0.1384 -0.3217  0.4068
   70MOL   O42832306   3.068   8.079   3.192 -0.1856  0.3491  0.0597
   70MOL   C42932307   3.272   8.213   3.279  0.1027 -0.3566  0.2496
   70MOL   C43032308   3.390   8.272   3.337  0.1044 -0.0620  1.4615
   70MOL   H43132309   3.802   8.185   3.422 -0.4221  0.5323 -1.5813
   70MOL   H43232310   3.922   8.239   3.534 -0.5498  1.2536  0.0455
   70MOL   H43332311   3.771   0.199   3.533 -2.1550  0.4866 -1.9586
   70MOL   H43432312   3.740   0.045   3.634 -0.2462 -0.5817  0.0158
   70MOL   H43532313   3.256   0.188   3.574  0.2388  0.6383 -0.9908
   70MOL   H43632314   3.043   0.082   3.481  0.4391  2.2602  1.0062
   70MOL   H43732315   3.274   8.168   3.181  2.3882  0.0061  0.0961
   70MOL   H43832316   3.477   8.259   3.275  0.0732  0.0073  1.4013
   70MOL   O43932317   2.960   7.982   3.149  0.2884 -0.5682 -0.3022
   70MOL   C44032318   3.002   7.851   3.181  0.3127 -0.1506 -0.6818
   70MOL   C44132319   2.869   7.767   3.207 -0.5524 -0.1537 -0.2851
   70MOL   O44232320   2.842   7.698   3.080  0.1957  0.3863 -0.2733
   70MOL   C44332321   2.754   7.748   2.991 -0.0748 -0.1198 -0.5579
   70MOL   O44432322   2.693   7.852   3.013 -0.0104 -0.6496 -0.2546
   70MOL   C44532323   2.742   7.655   2.874 -0.4226 -0.6206  0.3400
   70MOL   C44632324   2.644   7.671   2.773  0.5482 -0.6536 -0.3679
   70MOL   C44732325   2.628   7.575   2.671 -0.0590  0.3119 -0.8878
   70MOL   C44832326   2.717   7.464   2.664  0.2825 -0.2399  0.5095
   70MOL   C44932327   2.702   7.366   2.553  0.2983  0.2532 -0.2204
   70MOL   O45032328   2.694   7.243   2.568 -0.1506 -0.4632 -0.1303
   70MOL   O45132329   2.692   7.430   2.432 -0.5453 -0.5494 -0.2957
   70MOL   C45232330   2.824   7.451   2.758 -0.3911 -0.1896  0.0853
   70MOL   C45332331   2.831   7.544   2.865 -0.1355  0.5137 -0.6907
   70MOL   H45432332   3.048   7.814   3.090  2.5843 -0.5682  0.5952
   70MOL   H45532333   3.080   7.831   3.255 -0.6351  0.2822  0.4644
   70MOL   H45632334   2.791   7.840   3.229  0.2424  0.9905 -1.2018
   70MOL   H45732335   2.885   7.698   3.290 -1.3497  0.8211  0.6921
   70MOL   H45832336   2.570   7.749   2.787  1.0084  0.1187 -2.0931
   70MOL   H45932337   2.538   7.582   2.611 -0.9779  0.1938  0.4428
   70MOL   H46032338   2.890   7.366   2.757 -0.3656 -0.1962  1.4239
   70MOL   H46132339   2.916   7.536   2.931  1.6215  2.3486 -2.6545
   70MOL   H46232340   2.717   7.520   2.443 -1.1787 -0.0302 -2.8073
   71MOL     O132341   3.073   4.009   1.312  0.0289  0.2585 -0.0902
   71MOL     C232342   2.972   3.910   1.320  0.6396  0.1189 -0.1018
   71MOL     C332343   3.034   3.774   1.287 -0.3677 -0.6624 -0.1837
   71MOL     O432344   3.100   3.724   1.399  0.0412 -0.5620 -0.1081
   71MOL     C532345   3.228   3.753   1.416 -0.3995 -0.4111 -0.1049
   71MOL     O632346   3.285   3.828   1.334 -0.3543  0.2726 -0.0261
   71MOL     C732347   3.293   3.689   1.536  0.8224 -0.1923 -0.3318
   71MOL     C832348   3.433   3.682   1.540  0.3644 -0.5260  0.0086
   71MOL     C932349   3.506   3.628   1.647 -0.0832  0.3856  0.4050
   71MOL    C1032350   3.428   3.587   1.760 -1.0512  0.0709 -0.2482
   71MOL    C1132351   3.502   3.533   1.882  0.1654 -0.5697 -0.1791
   71MOL    O1232352   3.446   3.496   1.986  0.1481  0.2794 -0.1297
   71MOL    O1332353   3.639   3.519   1.876 -0.3862  0.7520  0.3142
   71MOL    C1432354   3.291   3.590   1.760 -0.0415 -0.0470 -0.3073
   71MOL    C1532355   3.223   3.640   1.645 -0.0217 -0.0197 -0.4901
   71MOL    H1632356   2.917   3.910   1.415 -0.1941 -0.3868 -0.5753
   71MOL    H1732357   2.908   3.941   1.238 -0.6510 -1.6041  0.2234
   71MOL    H1832358   3.089   3.774   1.193  1.2342 -1.1191  0.7451
   71MOL    H1932359   2.954   3.703   1.269 -2.5034  1.5876  0.1006
   71MOL    H2032360   3.494   3.717   1.458 -1.1372 -0.6351 -1.1710
   71MOL    H2132361   3.613   3.630   1.640 -0.0912 -2.0725 -0.7286
   71MOL    H2232362   3.242   3.560   1.852  0.2025  3.2413  1.0053
   71MOL    H2332363   3.115   3.634   1.645 -0.0380 -0.0481  1.7669
   71MOL    H2432364   3.136   3.983   1.378 -0.5929  0.4304  0.5725
   71MOL    O2532365   3.699   3.417   1.975 -0.0821 -0.0601 -0.1892
   71MOL    C2632366   3.709   3.290   1.910  0.4798  0.3872 -0.4456
   71MOL    C2732367   3.692   3.190   2.030  0.0843  0.2832  0.6202
   71MOL    O2832368   3.817   3.169   2.091 -0.4123  0.4982 -0.0202
   71MOL    C2932369   3.906   3.097   2.038  0.2777 -0.2558  0.5871
   71MOL    O3032370   3.912   3.058   1.919 -0.0431  0.4213  0.9574
   71MOL    C3132371   4.015   3.056   2.129 -0.2019 -0.3298 -0.2596
   71MOL    C3232372   4.129   2.988   2.082  0.6325 -0.2768 -0.6507
   71MOL    C3332373   4.234   2.952   2.171 -0.4264 -0.0319 -1.0492
   71MOL    C3432374   4.218   2.969   2.311 -0.9904  0.0383 -0.0467
   71MOL    C3532375   4.326   2.924   2.403 -0.2684  0.0797 -0.6409
   71MOL    O3632376   4.317   2.867   2.511  0.1477 -0.0223 -0.2892
   71MOL    O3732377   4.444   2.948   2.348  0.0537 -0.2479  0.1514
   71MOL    C3832378   4.100   3.027   2.359  0.3254  0.0734  0.2866
   71MOL    C3932379   4.009   3.083   2.269  0.6272  0.3462  0.1325
   71MOL    H4032380   3.635   3.276   1.831 -2.1564  0.1928  1.9701
   71MOL    H4132381   3.811   3.284   1.872  1.0888 -1.9806  1.3800
   71MOL    H4232382   3.660   3.092   1.995  1.9513 -1.0933  2.6308
   71MOL    H4332383   3.617   3.235   2.094  1.0166  2.3737  0.2721
   71MOL    H4432384   4.144   2.981   1.976 -0.6161 -0.9618 -0.7857
   71MOL    H4532385   4.330   2.920   2.134 -0.2179  1.1827 -1.6025
   71MOL    H4632386   4.080   3.036   2.465  0.8641 -0.1151  0.4042
   71MOL    H4732387   3.922   3.136   2.305 -0.6780 -4.0364  3.8987
   71MOL    O4832388   4.563   2.890   2.416  0.4350  0.3430 -0.1736
   71MOL    C4932389   4.641   2.988   2.483  0.0744  0.1756 -0.3855
   71MOL    C5032390   4.715   3.079   2.386 -0.6149  0.4896 -0.1284
   71MOL    O5132391   4.636   3.197   2.353  0.3970  0.1174 -0.3742
   71MOL    C5232392   4.676   3.257   2.246  0.0019  0.5704  0.3570
   71MOL    O5332393   4.772   3.217   2.183 -0.0123  0.1623  0.4144
   71MOL    C5432394   4.583   3.373   2.204 -0.3343  0.1083 -0.3630
   71MOL    C5532395   4.595   3.434   2.075  0.4036 -0.2761 -0.3672
   71MOL    C5632396   4.509   3.538   2.042  0.6216  0.5454 -0.3816
   71MOL    C5732397   4.412   3.590   2.130 -0.1770  0.1967 -0.4076
   71MOL    C5832398   4.322   3.708   2.102 -0.0667 -0.2683  0.3851
   71MOL    O5932399   4.243   3.750   2.182  0.1380 -0.3764  0.2606
   71MOL    O6032400   4.337   3.754   1.975 -0.1300 -0.3310 -0.2964
   71MOL    C6132401   4.404   3.526   2.258  0.1661  0.3912 -0.0938
   71MOL    C6232402   4.489   3.422   2.294  0.3829  0.1403  0.6645
   71MOL    H6332403   4.584   3.052   2.551 -1.2671  0.2617 -1.5578
   71MOL    H6432404   4.718   2.930   2.532 -0.5662  0.8387  1.4480
   71MOL    H6532405   4.725   3.013   2.300  0.3002 -0.1708  0.4830
   71MOL    H6632406   4.813   3.110   2.422 -0.3546 -0.0267 -0.3942
   71MOL    H6732407   4.670   3.399   2.006  0.3902  0.4216 -0.7377
   71MOL    H6832408   4.515   3.586   1.946 -2.0946  1.0969 -0.2965
   71MOL    H6932409   4.339   3.572   2.331  0.7589  0.2563  0.5247
   71MOL    H7032410   4.475   3.378   2.392  0.4558 -1.8754 -0.2054
   71MOL    O7132411   4.251   3.868   1.952 -0.7369  0.3944  0.1805
   71MOL    C7232412   4.330   3.989   1.976 -0.0199  0.5206 -0.4881
   71MOL    C7332413   4.245   4.111   1.956  0.2985 -0.3944  0.0870
   71MOL    O7432414   4.312   4.234   1.918 -0.1516  0.0031 -0.0677
   71MOL    C7532415   4.249   4.319   1.836 -0.8400 -0.2371 -0.7329
   71MOL    O7632416   4.132   4.308   1.801 -0.1930 -0.3325  0.1031
   71MOL    C7732417   4.332   4.424   1.779 -0.1638 -0.0749 -0.0872
   71MOL    C7832418   4.476   4.416   1.783 -0.2850  0.3691 -0.3132
   71MOL    C7932419   4.545   4.514   1.707 -0.1173  0.0147  0.1646
   71MOL    C8032420   4.481   4.604   1.628 -0.5415 -0.9361 -0.4784
   71MOL    C8132421   4.562   4.670   1.524 -0.4412 -0.9920 -0.8789
   71MOL    O8232422   4.650   4.605   1.468  0.3486 -0.1260  0.5175
   71MOL    O8332423   4.531   4.798   1.498 -0.3545 -0.0712 -0.3194
   71MOL    C8432424   4.344   4.617   1.632  0.1006  0.5307  0.2279
   71MOL    C8532425   4.266   4.527   1.707  0.4313 -0.0739 -0.6175
   71MOL    H8632426   4.367   3.989   2.078 -1.5751 -1.8642  0.1343
   71MOL    H8732427   4.409   3.992   1.901  0.3455 -2.2479 -0.2895
   71MOL    H8832428   4.187   4.137   2.045  0.4745 -0.1730  0.1358
   71MOL    H8932429   4.170   4.091   1.879  1.8161  2.4626 -2.2445
   71MOL    H9032430   4.538   4.345   1.836 -0.2177  2.0184  1.9247
   71MOL    H9132431   4.653   4.514   1.708 -0.1107 -1.5305  1.0830
   71MOL    H9232432   4.297   4.698   1.579 -1.0498 -0.6514 -0.5777
   71MOL    H9332433   4.160   4.530   1.725  0.6092  2.3617  0.1822
   71MOL    O9432434   4.600   4.851   1.378 -0.3040  0.6619 -0.0400
   71MOL    C9532435   4.506   4.861   1.273  0.5864 -0.0686 -0.3984
   71MOL    C9632436   4.584   4.869   1.144 -1.0310 -0.0095 -0.1446
   71MOL    O9732437   4.663   4.752   1.147 -0.8668 -0.4819  0.0533
   71MOL    C9832438   4.638   4.649   1.062  0.7047  0.1098  0.0682
   71MOL    O9932439   4.533   4.630   1.000  0.0386 -0.4100 -0.1531
   71MOL   C10032440   4.760   4.565   1.047  0.2115  0.0994 -0.4922
   71MOL   C10132441   4.862   4.553   1.148  0.1890  0.1269  0.6047
   71MOL   C10232442   4.983   4.493   1.123  0.0474 -0.0985 -0.5014
   71MOL   C10332443   5.006   4.428   0.999 -0.6945  0.3005  0.9844
   71MOL   C10432444   5.137   4.361   0.975  0.3261  0.3949  0.5216
   71MOL   O10532445   5.153   4.258   0.904 -0.4541  0.2910 -0.2675
   71MOL   O10632446   5.240   4.432   1.035  0.0059 -0.3355  0.8572
   71MOL   C10732447   4.903   4.431   0.902 -0.3682  0.5864 -0.0423
   71MOL   C10832448   4.781   4.501   0.923  0.3002 -0.1214  0.4872
   71MOL   H10932449   4.429   4.784   1.264  0.7944 -0.3161 -0.0716
   71MOL   H11032450   4.448   4.952   1.290  1.2034  0.2889 -0.1801
   71MOL   H11132451   4.648   4.957   1.131 -0.5561 -0.3723 -0.2615
   71MOL   H11232452   4.516   4.860   1.060 -1.2449 -0.4600  0.0742
   71MOL   H11332453   4.857   4.610   1.240  2.4700 -1.7018  1.9202
   71MOL   H11432454   5.056   4.496   1.202  0.2183  0.6082 -0.6821
   71MOL   H11532455   4.925   4.398   0.801 -0.7277 -1.8008  0.6451
   71MOL   H11632456   4.696   4.503   0.856  0.2211 -2.8360  0.4402
   71MOL   O11732457   5.369   4.371   1.014 -0.0053 -0.1510  0.2319
   71MOL   C11832458   5.400   4.308   1.139 -0.6201 -0.4104 -0.1065
   71MOL   C11932459   5.379   4.397   1.268  0.3528 -0.0129  1.0561
   71MOL   O12032460   5.391   4.320   1.390 -0.1323 -0.3781 -0.2356
   71MOL   C12132461   5.421   4.379   1.504  0.8776 -0.1216 -0.5458
   71MOL   O12232462   5.466   4.493   1.514  0.2878 -0.1438 -0.4465
   71MOL   C12332463   5.405   4.287   1.619 -0.7524 -0.4530  0.1723
   71MOL   C12432464   5.437   4.327   1.749  0.1389  0.1179  0.8057
   71MOL   C12532465   5.426   4.237   1.855  0.1331 -0.5718  0.1454
   71MOL   C12632466   5.381   4.102   1.831  0.9835  0.3047  0.2013
   71MOL   C12732467   5.363   4.012   1.944  0.2444  0.2022 -0.1526
   71MOL   O12832468   5.280   3.921   1.949 -0.3342  0.6612  0.1664
   71MOL   O12932469   5.438   4.053   2.052  0.5437  1.1010 -0.6439
   71MOL   C13032470   5.339   4.065   1.701  0.1374  0.2585 -0.1796
   71MOL   C13132471   5.361   4.153   1.598  0.6678  0.2189 -0.1841
   71MOL   H13232472   5.337   4.220   1.146 -1.7599  0.4805  0.9900
   71MOL   H13332473   5.505   4.278   1.145  0.1235  2.0878 -0.0579
   71MOL   H13432474   5.279   4.440   1.265 -0.2618 -1.4000  1.3619
   71MOL   H13532475   5.446   4.483   1.263 -1.7892  1.6422  0.0842
   71MOL   H13632476   5.457   4.432   1.764  2.0343  0.1704 -1.8042
   71MOL   H13732477   5.450   4.275   1.953  2.3067 -1.6667  0.0705
   71MOL   H13832478   5.299   3.966   1.681  1.2874 -0.2890  0.1750
   71MOL   H13932479   5.332   4.119   1.499 -1.1520  4.3439 -1.1792
   71MOL   O14032480   5.420   3.972   2.175 -0.1948 -0.0651  0.0256
   71MOL   C14132481   5.502   3.857   2.162  0.1353  0.4524  0.4817
   71MOL   C14232482   5.493   3.774   2.291 -0.3826  0.4070 -0.2349
   71MOL   O14332483   5.545   3.647   2.264  0.0826  0.1662  0.1581
   71MOL   C14432484   5.567   3.562   2.361 -0.0518 -0.8006 -0.6599
   71MOL   O14532485   5.538   3.579   2.479 -0.6672 -0.4352 -0.1069
   71MOL   C14632486   5.601   3.423   2.314 -0.0566 -0.6676 -0.0315
   71MOL   C14732487   5.567   3.317   2.402 -0.1248  0.0813  0.2313
   71MOL   C14832488   5.589   3.184   2.366 -0.0972  0.2086 -0.1445
   71MOL   C14932489   5.640   3.159   2.237  0.1581  0.0369 -0.2358
   71MOL   C15032490   5.671   3.017   2.199  1.3881  1.0483 -0.2881
   71MOL   O15132491   5.659   2.921   2.275 -0.8244 -0.1711  0.0286
   71MOL   O15232492   5.700   2.998   2.070  0.3003  0.0799 -0.3441
   71MOL   C15332493   5.670   3.262   2.146  0.1322  0.6101 -0.0561
   71MOL   C15432494   5.649   3.394   2.181 -0.2244  0.2534 -0.3995
   71MOL   H15532495   5.464   3.795   2.081 -0.6784  3.2359 -1.3521
   71MOL   H15632496   5.606   3.871   2.129 -0.0510  0.6550 -0.0310
   71MOL   H15732497   5.389   3.754   2.314 -0.8958  2.1843 -0.9124
   71MOL   H15832498   5.524   3.825   2.382  0.5734  0.4908 -0.5985
   71MOL   H15932499   5.517   3.347   2.492  1.4345 -1.3928  1.6206
   71MOL   H16032500   5.562   3.114   2.443 -2.2341  0.4307 -0.6612
   71MOL   H16132501   5.697   3.239   2.043 -0.5225  1.4968 -0.4317
   71MOL   H16232502   5.679   3.477   2.119 -0.1369  0.8498  0.4328
   71MOL   O16332503   5.665   2.858   2.027 -0.0864  0.3732 -0.4299
   71MOL   C16432504   5.789   2.791   2.019 -0.4059  1.0341 -0.0702
   71MOL   C16532505   5.777   2.647   1.967  0.1878 -0.3554  0.0698
   71MOL   O16632506   5.775   2.554   2.079 -0.5419 -0.3309  0.3177
   71MOL   C16732507   5.699   2.446   2.078 -0.4515 -0.5117  0.2287
   71MOL   O16832508   5.605   2.427   2.002  0.3542 -0.5438  0.4447
   71MOL   C16932509   5.738   2.350   2.185 -0.6397  0.2554 -0.0943
   71MOL   C17032510   5.645   2.257   2.238 -0.1214  0.8244  0.1134
   71MOL   C17132511   5.676   2.166   2.342 -0.2710  0.2703 -0.4898
   71MOL   C17232512   5.810   2.160   2.390 -0.1265 -0.2821  0.2530
   71MOL   C17332513   5.850   2.060   2.494  0.1954  0.0294  0.3729
   71MOL   O17432514   5.964   2.054   2.537  0.1238  0.5127 -0.7155
   71MOL   O17532515   5.754   1.980   2.546 -0.3154 -0.8148 -0.5139
   71MOL   C17632516   5.905   2.248   2.333  0.8367 -0.4771  0.2490
   71MOL   C17732517   5.870   2.347   2.245  0.3358 -0.5549  0.3509
   71MOL   H17832518   5.844   2.834   1.936 -0.0178 -0.2522 -0.4841
   71MOL   H17932519   5.858   2.797   2.103 -0.3862  0.7596 -0.0666
   71MOL   H18032520   5.867   2.615   1.916  0.5277  0.5045  0.1178
   71MOL   H18132521   5.695   2.631   1.897 -0.3765 -0.9722  0.8453
   71MOL   H18232522   5.549   2.246   2.189 -0.2860 -0.6345  0.7283
   71MOL   H18332523   5.604   2.092   2.376  0.1443  0.2820  0.4238
   71MOL   H18432524   6.003   2.240   2.379  1.1313  0.0765 -0.2747
   71MOL   H18532525   5.946   2.415   2.212  0.1323 -0.5998 -0.2197
   71MOL   O18632526   5.800   1.898   2.660  0.0446 -0.1218  0.2737
   71MOL   C18732527   5.861   1.773   2.614 -0.1993 -0.0682 -0.0873
   71MOL   C18832528   5.773   1.687   2.524 -0.1763 -0.3171 -0.7396
   71MOL   O18932529   5.795   1.719   2.386 -0.1038 -0.2867 -0.2502
   71MOL   C19032530   5.717   1.783   2.311 -0.0245  0.2990  0.1849
   71MOL   O19132531   5.613   1.826   2.353 -0.2140 -0.1556  0.1272
   71MOL   C19232532   5.763   1.794   2.173 -0.3484 -0.3481 -0.1458
   71MOL   C19332533   5.695   1.876   2.077 -0.1649  0.6682 -0.4795
   71MOL   C19432534   5.740   1.890   1.942  0.2061  0.1744  0.1818
   71MOL   C19532535   5.854   1.818   1.902 -0.3542  0.1164 -0.2798
   71MOL   C19632536   5.901   1.829   1.760 -0.2448  0.2426 -0.8060
   71MOL   O19732537   5.985   1.753   1.713 -0.2771  0.4354 -0.4871
   71MOL   O19832538   5.837   1.919   1.692  0.0539  0.1636  0.1476
   71MOL   C19932539   5.931   1.735   1.995  0.0599 -0.0480  0.6273
   71MOL   C20032540   5.881   1.728   2.131 -0.0070  0.2394  1.0717
   71MOL   H20132541   5.958   1.788   2.567 -0.9727  0.4606 -1.5471
   71MOL   H20232542   5.887   1.721   2.706  1.0569  1.3355  0.3649
   71MOL   H20332543   5.668   1.702   2.553 -0.0726 -0.3091 -0.3590
   71MOL   H20432544   5.775   1.579   2.537 -2.7247 -0.5157 -1.6934
   71MOL   H20532545   5.602   1.921   2.108  0.2614  1.2077  0.0071
   71MOL   H20632546   5.687   1.954   1.874 -2.0883 -1.3699  0.4481
   71MOL   H20732547   6.018   1.681   1.960  0.0096  0.8486 -0.8969
   71MOL   H20832548   5.939   1.668   2.199 -1.3363 -0.5215  1.5537
   71MOL   O20932549   5.870   1.919   1.542 -0.6940 -0.7706 -0.1711
   71MOL   C21032550   5.954   2.024   1.506 -0.3154 -0.1879  0.7628
   71MOL   C21132551   6.095   1.984   1.505  0.4732 -0.3497 -0.1269
   71MOL   O21232552   6.108   1.895   1.401  0.0521  0.2254  0.0986
   71MOL   C21332553   6.134   1.935   1.279 -0.3553 -0.1975  0.1133
   71MOL   O21432554   6.159   2.051   1.244 -0.8418 -0.1944  0.1119
   71MOL   C21532555   6.140   1.819   1.187  0.0189 -0.0700 -0.5610
   71MOL   C21632556   6.108   1.686   1.228  0.5684 -0.0873 -0.2481
   71MOL   C21732557   6.107   1.584   1.136  0.0008 -0.1214 -0.8592
   71MOL   C21832558   6.143   1.615   1.001 -0.0406 -0.0806 -0.1828
   71MOL   C21932559   6.110   1.511   0.894  0.3771 -0.2229 -0.0666
   71MOL   O22032560   6.038   1.414   0.919  0.1667  0.6627  0.5624
   71MOL   O22132561   6.169   1.538   0.774  0.2120  0.0487  0.2075
   71MOL   C22232562   6.181   1.746   0.958  1.4943 -0.6060  0.8124
   71MOL   C22332563   6.185   1.842   1.055 -0.5284 -0.3159 -0.0587
   71MOL   H22432564   5.910   2.045   1.409  1.6389 -2.8262 -0.7472
   71MOL   H22532565   5.940   2.113   1.568  1.0397  0.5255  0.0654
   71MOL   H22632566   6.106   1.924   1.595 -0.4089 -1.4275 -0.7355
   71MOL   H22732567   6.161   2.071   1.509  0.2994 -0.2548  1.2712
   71MOL   H22832568   6.073   1.665   1.328  1.5234 -2.0040 -0.3145
   71MOL   H22932569   6.066   1.491   1.171  0.1791  0.9369  2.3152
   71MOL   H23032570   6.198   1.769   0.854  0.0270 -1.8548  0.2764
   71MOL   H23132571   6.216   1.941   1.024 -0.6508 -0.9418 -2.2767
   71MOL   O23232572   6.135   1.439   0.663 -0.2322 -0.0429 -0.2552
   71MOL   C23332573   6.063   1.505   0.554  0.3180 -0.7450  0.1414
   71MOL   C23432574   6.161   1.556   0.454 -0.0653  0.0412  0.4788
   71MOL   O23532575   6.217   1.680   0.498 -0.3594  0.0718  0.0702
   71MOL   C23632576   6.339   1.724   0.450  0.5187  0.1883  0.0996
   71MOL   O23732577   6.405   1.662   0.366  0.2605 -0.0170  0.3846
   71MOL   C23832578   6.376   1.854   0.502  0.3182  0.3234  0.2650
   71MOL   C23932579   6.486   1.920   0.445  0.4380  1.0165 -0.4289
   71MOL   C24032580   6.525   2.044   0.493 -0.6531 -0.6259  0.8679
   71MOL   C24132581   6.469   2.103   0.603 -0.4107 -0.5149 -0.3878
   71MOL   C24232582   6.528   2.229   0.653  0.0478 -0.4733 -0.1478
   71MOL   O24332583   6.624   2.290   0.602 -0.4506 -0.0343 -0.3349
   71MOL   O24432584   6.465   2.264   0.767 -0.0766  1.0826  0.2500
   71MOL   C24532585   6.354   2.042   0.664 -0.3150  0.1064  0.8207
   71MOL   C24632586   6.312   1.915   0.615 -0.5195  0.4712  0.0589
   71MOL   H24732587   6.006   1.431   0.498  0.3760  0.5250 -1.6277
   71MOL   H24832588   5.990   1.579   0.584  2.4739  0.8884  1.5323
   71MOL   H24932589   6.108   1.579   0.361  0.4637  4.7345  1.2081
   71MOL   H25032590   6.242   1.484   0.440  1.9586  1.4838  4.0272
   71MOL   H25132591   6.528   1.883   0.352 -0.8037 -0.2425 -0.5181
   71MOL   H25232592   6.611   2.088   0.444  0.2019  0.0851  2.9539
   71MOL   H25332593   6.312   2.084   0.754  2.4929  0.6775  1.9304
   71MOL   H25432594   6.225   1.874   0.664  0.0018 -0.3150  0.3519
   71MOL   O25532595   6.516   2.386   0.840 -0.4265 -0.3528  0.6801
   71MOL   C25632596   6.396   2.472   0.855  0.3756 -0.5397 -0.2515
   71MOL   C25732597   6.426   2.590   0.958  0.0624  1.1004  0.2550
   71MOL   O25832598   6.438   2.535   1.091  0.2748 -0.2870 -0.0831
   71MOL   C25932599   6.474   2.615   1.200  0.7326  0.6376 -0.0431
   71MOL   O26032600   6.488   2.735   1.193 -0.0030  0.4643 -0.2565
   71MOL   C26132601   6.469   2.540   1.327 -0.2495  0.3348 -0.2613
   71MOL   C26232602   6.431   2.407   1.325  0.1222 -0.6577  0.2725
   71MOL   C26332603   6.428   2.329   1.441 -0.3720  0.3363  0.3790
   71MOL   C26432604   6.468   2.392   1.561  0.8132 -0.9373 -0.4264
   71MOL   C26532605   6.481   2.310   1.689 -0.4595  0.3139 -0.5800
   71MOL   O26632606   6.551   2.348   1.783  0.4285  0.2760 -0.1547
   71MOL   O26732607   6.393   2.204   1.695  0.1953 -0.1558 -0.4358
   71MOL   C26832608   6.517   2.524   1.562  0.3157 -0.4146  0.0308
   71MOL   C26932609   6.509   2.603   1.445 -0.0336 -0.1142  0.5209
   71MOL   H27032610   6.365   2.501   0.755 -0.6422 -0.8720 -0.0411
   71MOL   H27132611   6.318   2.407   0.894  0.4794 -1.1287 -1.0071
   71MOL   H27232612   6.341   2.657   0.965 -1.0816 -0.2090 -0.8437
   71MOL   H27332613   6.516   2.641   0.924  1.2243 -1.4722 -0.6902
   71MOL   H27432614   6.398   2.360   1.234 -1.6891 -1.5415  1.3446
   71MOL   H27532615   6.379   2.233   1.431  0.7961  0.0195 -2.7902
   71MOL   H27632616   6.555   2.566   1.653 -0.4004  0.8394 -0.2341
   71MOL   H27732617   6.555   2.701   1.440 -2.5663  1.0878 -0.2602
   71MOL   O27832618   6.388   2.131   1.824 -0.3312  0.0551 -0.6196
   71MOL   C27932619   6.460   2.005   1.807 -0.5776  0.4452 -0.3971
   71MOL   C28032620   6.530   1.956   1.938 -0.6894  0.8573 -0.2003
   71MOL   O28132621   6.664   1.997   1.928 -0.4730  0.0413 -0.0051
   71MOL   C28232622   6.707   2.115   1.988 -0.0985 -0.8378 -0.1076
   71MOL   O28332623   6.644   2.192   2.060  0.3157 -0.1219 -0.4784
   71MOL   C28432624   6.856   2.141   1.968 -0.3317  0.6633  0.8700
   71MOL   C28532625   6.923   2.262   1.993  0.6750  0.6713 -0.7864
   71MOL   C28632626   7.062   2.278   1.981 -0.4930 -0.2778  0.4820
   71MOL   C28732627   7.140   2.166   1.944  0.3683 -0.2317  0.7946
   71MOL   C28832628   7.286   2.178   1.933 -0.2216 -1.7701 -0.0118
   71MOL   O28932629   7.340   2.282   1.959 -0.4997  0.2168 -0.0266
   71MOL   O29032630   7.345   2.060   1.903  0.3011  0.7358 -0.1692
   71MOL   C29132631   7.076   2.047   1.893  0.6054  0.1838 -0.3503
   71MOL   C29232632   6.934   2.034   1.915  0.3955  0.6573  0.4900
   71MOL   H29332633   6.382   1.936   1.776  1.4177 -1.9550 -0.2584
   71MOL   H29432634   6.526   1.989   1.722  1.4479  0.2389  1.1738
   71MOL   H29532635   6.546   1.849   1.951 -0.0138  0.8483 -1.0419
   71MOL   H29632636   6.473   1.993   2.023 -2.4567 -4.1902  0.9807
   71MOL   H29732637   6.860   2.337   2.038 -0.1070 -0.7753  0.5897
   71MOL   H29832638   7.106   2.376   1.994  1.1228 -1.0762  1.1602
   71MOL   H29932639   7.133   1.963   1.859 -2.6061 -2.0962 -0.3605
   71MOL   H30032640   6.892   1.937   1.888 -0.2941  1.0932 -0.0429
   71MOL   O30132641   7.473   2.067   1.815  0.3211 -0.2111 -0.4129
   71MOL   C30232642   7.435   2.013   1.685 -0.7696  0.4811  0.0692
   71MOL   C30332643   7.425   2.117   1.563  1.3446  0.2144  0.0137
   71MOL   O30432644   7.323   2.214   1.587 -0.9148  0.0604  0.9035
   71MOL   C30532645   7.192   2.183   1.581 -0.0053 -0.2582 -0.0295
   71MOL   O30632646   7.140   2.077   1.546  0.2986 -0.4959  0.2720
   71MOL   C30732647   7.111   2.304   1.623  0.4401  0.3986  0.0706
   71MOL   C30832648   7.168   2.431   1.645  0.6320  0.3645  0.3637
   71MOL   C30932649   7.089   2.536   1.678 -0.0117  0.4036 -0.4418
   71MOL   C31032650   6.954   2.521   1.702 -0.1742 -0.2379  0.0150
   71MOL   C31132651   6.873   2.638   1.746 -0.0270 -0.0770 -0.2181
   71MOL   O31232652   6.762   2.620   1.796  0.4490 -0.0346  0.5358
   71MOL   O31332653   6.914   2.761   1.723 -0.0772 -0.3789  0.6205
   71MOL   C31432654   6.893   2.397   1.681  0.7717 -0.3073  0.3697
   71MOL   C31532655   6.971   2.284   1.640  0.4922  0.3555 -0.5864
   71MOL   H31632656   7.499   1.928   1.667  0.1601  1.4250 -1.1872
   71MOL   H31732657   7.343   1.958   1.707  0.2773 -1.1403  0.4568
   71MOL   H31832658   7.396   2.052   1.481  0.2338 -0.7162  1.1171
   71MOL   H31932659   7.521   2.155   1.528  1.7859  0.4595  1.4656
   71MOL   H32032660   7.274   2.452   1.642  0.5695  0.8645  1.2474
   71MOL   H32132661   7.126   2.637   1.694  0.7269  0.4976 -2.5762
   71MOL   H32232662   6.787   2.391   1.705  0.9508 -0.8440  1.0391
   71MOL   H32332663   6.940   2.181   1.628 -0.6769  0.8010 -1.4045
   71MOL   O32432664   6.810   2.872   1.746 -0.4367  0.2074 -0.0035
   71MOL   C32532665   6.820   2.915   1.879 -0.1027 -0.3668 -0.4159
   71MOL   C32632666   6.682   2.971   1.925  0.2933 -0.0165  0.4111
   71MOL   O32732667   6.697   3.050   2.041 -0.4642  0.0664  0.1530
   71MOL   C32832668   6.729   3.178   2.033 -0.2996 -0.6668  0.3121
   71MOL   O32932669   6.750   3.238   1.931  0.4643  0.0385 -0.3399
   71MOL   C33032670   6.720   3.245   2.158  0.0199  0.0025  0.2469
   71MOL   C33132671   6.768   3.376   2.178 -0.0732 -0.1269 -0.0545
   71MOL   C33232672   6.762   3.446   2.297 -0.4544 -0.6125  0.0350
   71MOL   C33332673   6.689   3.391   2.405 -0.3522  0.4362  0.3184
   71MOL   C33432674   6.682   3.469   2.532  0.7980  0.1049 -0.9524
   71MOL   O33532675   6.651   3.417   2.638 -0.3373  0.0351 -0.5944
   71MOL   O33632676   6.733   3.594   2.524 -0.1527  0.1534  0.0243
   71MOL   C33732677   6.631   3.260   2.394  0.4440 -0.5207  0.4127
   71MOL   C33832678   6.646   3.192   2.270  0.0959  0.4042 -0.2138
   71MOL   H33932679   6.843   2.833   1.948  0.5582  0.1776  0.0207
   71MOL   H34032680   6.900   2.988   1.885 -0.9391  0.4215  1.5545
   71MOL   H34132681   6.617   2.888   1.953 -1.6493  1.5364  0.6068
   71MOL   H34232682   6.627   3.024   1.847 -1.0460  0.5135  1.6669
   71MOL   H34332683   6.804   3.429   2.091 -2.4104  3.4744  1.0776
   71MOL   H34432684   6.794   3.549   2.284  0.8369 -1.2702 -2.3248
   71MOL   H34532685   6.572   3.224   2.477 -0.3209  1.3079  0.6715
   71MOL   H34632686   6.603   3.094   2.261 -0.8857  0.9356 -1.4867
   71MOL   O34732687   6.725   3.673   2.654  0.5049  0.3593 -0.4206
   71MOL   C34832688   6.603   3.752   2.662 -0.1421  0.5148  0.3872
   71MOL   C34932689   6.593   3.818   2.801 -0.2409  0.9055 -0.4932
   71MOL   O35032690   6.557   3.956   2.802  0.5388  0.5166  0.4273
   71MOL   C35132691   6.437   3.988   2.750 -0.5789  0.5554  0.0488
   71MOL   O35232692   6.358   3.906   2.706  0.4350 -0.7954 -0.3406
   71MOL   C35332693   6.412   4.134   2.757 -0.1598  0.6375 -0.4347
   71MOL   C35432694   6.512   4.227   2.791 -0.2132 -0.1862 -0.3130
   71MOL   C35532695   6.482   4.359   2.795 -0.4683 -0.0920 -0.1209
   71MOL   C35632696   6.352   4.410   2.785 -0.4923 -0.3053  0.3046
   71MOL   C35732697   6.307   4.546   2.805 -0.3267  0.3296 -0.2906
   71MOL   O35832698   6.187   4.586   2.803 -0.1066  0.0992  0.0351
   71MOL   O35932699   6.412   4.630   2.838  0.4145 -0.1549  0.4042
   71MOL   C36032700   6.248   4.312   2.748  0.1300  0.9086 -0.5061
   71MOL   C36132701   6.280   4.177   2.730  0.3182  0.5053 -0.1667
   71MOL   H36232702   6.621   3.813   2.574  0.1145  0.3694  0.3378
   71MOL   H36332703   6.524   3.680   2.639  0.5650 -0.5832  1.2767
   71MOL   H36432704   6.691   3.814   2.850  1.2569  1.0545 -3.4098
   71MOL   H36532705   6.522   3.769   2.868  1.3755 -0.5742  0.1764
   71MOL   H36632706   6.610   4.191   2.817 -0.5934 -1.2427 -0.3259
   71MOL   H36732707   6.560   4.430   2.821  0.3333 -1.7095  1.9597
   71MOL   H36832708   6.143   4.331   2.731 -0.6232 -0.3215  2.4943
   71MOL   H36932709   6.204   4.105   2.700 -0.0469  0.5606  0.5857
   71MOL   O37032710   6.378   4.774   2.853 -0.4828  0.3053 -0.0246
   71MOL   C37132711   6.344   4.807   2.987  0.1444 -0.1031  0.5864
   71MOL   C37232712   6.471   4.852   3.070 -0.4508  0.3061 -0.2458
   71MOL   O37332713   6.425   4.928   3.179  0.4782  0.3142 -0.9241
   71MOL   C37432714   6.409   4.869   3.298  0.3459 -0.3491 -0.3032
   71MOL   O37532715   6.432   4.752   3.320  0.4844  0.1547  0.1959
   71MOL   C37632716   6.393   4.968   3.410 -1.0946 -0.3063  1.2460
   71MOL   C37732717   6.423   5.108   3.400  0.5544 -1.0636  0.1852
   71MOL   C37832718   6.415   5.196   3.509  0.8356 -0.3135 -0.1276
   71MOL   C37932719   6.377   5.142   3.638  0.8482  0.0329  0.1324
   71MOL   C38032720   6.380   5.231   3.760 -0.4391  0.6928 -0.9947
   71MOL   O38132721   6.399   5.350   3.756 -0.2907  0.2408  0.3011
   71MOL   O38232722   6.376   5.150   3.869 -0.5214 -0.5321  0.2542
   71MOL   C38332723   6.347   5.006   3.644  0.0532  1.0755  0.4226
   71MOL   C38432724   6.352   4.923   3.532  1.1808  0.0654 -0.1897
   71MOL   H38532725   6.264   4.881   2.992 -0.3296 -0.6010  0.5249
   71MOL   H38632726   6.314   4.714   3.036 -1.3606 -0.2292 -0.5296
   71MOL   H38732727   6.523   4.920   3.003  2.7510 -0.3847  1.4470
   71MOL   H38832728   6.532   4.766   3.098  0.9661  1.1088 -0.8378
   71MOL   H38932729   6.472   5.146   3.312  0.6853  0.6510  0.9773
   71MOL   H39032730   6.449   5.295   3.484 -2.0998  0.6011 -0.6257
   71MOL   H39132731   6.309   4.953   3.730 -0.0593 -1.6113 -1.2110
   71MOL   H39232732   6.331   4.819   3.553  0.8189  0.3371  0.8406
   71MOL   O39332733   6.413   5.215   3.999  0.8881  0.4122  0.0953
   71MOL   C39432734   6.552   5.202   4.026  0.1307  0.3865  0.1520
   71MOL   C39532735   6.588   5.307   4.137  0.7734 -0.1615 -0.0044
   71MOL   O39632736   6.565   5.437   4.093 -0.0438 -0.1886 -0.1353
   71MOL   C39732737   6.607   5.548   4.156 -0.0717  0.4429 -0.5859
   71MOL   O39832738   6.681   5.548   4.253 -0.0429  0.1501  0.0741
   71MOL   C39932739   6.532   5.673   4.104  0.0340 -0.3122  0.4518
   71MOL   C40032740   6.519   5.788   4.190  0.8530  0.3463 -0.2417
   71MOL   C40132741   6.448   5.903   4.153 -0.3853  0.3958 -0.6857
   71MOL   C40232742   6.381   5.906   4.028 -0.3983 -0.4955 -0.2192
   71MOL   C40332743   6.302   6.024   3.981  0.3229  0.6377  0.2591
   71MOL   O40432744   6.291   6.132   4.037 -0.3753 -0.0540 -0.1580
   71MOL   O40532745   6.242   6.000   3.865 -0.1936  0.3277 -0.1901
   71MOL   C40632746   6.392   5.793   3.940 -0.1815  0.1271  0.1352
   71MOL   C40732747   6.466   5.681   3.975 -0.0040  0.0737 -0.0418
   71MOL   H40832748   6.568   5.100   4.062 -2.0840 -0.5880 -1.5268
   71MOL   H40932749   6.613   5.220   3.938 -0.4870  0.3196 -0.2876
   71MOL   H41032750   6.694   5.289   4.154  0.7177 -0.6943 -0.2311
   71MOL   H41132751   6.521   5.293   4.222 -0.6246  1.1188 -0.8890
   71MOL   H41232752   6.583   5.793   4.277 -1.8214  1.9444  1.7398
   71MOL   H41332753   6.439   5.984   4.224 -0.9439 -0.3392  0.0909
   71MOL   H41432754   6.336   5.789   3.848 -0.0052 -3.0453  0.0995
   71MOL   H41532755   6.477   5.596   3.909 -1.9519  0.7944 -1.3274
   71MOL   O41632756   6.184   6.117   3.800  0.3686  0.1039 -0.3581
   71MOL   C41732757   6.256   6.149   3.689 -0.4016  0.7627 -0.6363
   71MOL   C41832758   6.171   6.214   3.576 -0.4972 -0.5321 -0.6460
   71MOL   O41932759   6.083   6.108   3.533 -0.2360 -0.0244 -0.1510
   71MOL   C42032760   5.949   6.133   3.511 -0.0712  0.1658 -0.0801
   71MOL   O42132761   5.900   6.244   3.523  0.5582  0.1082  0.0961
   71MOL   C42232762   5.872   6.018   3.477 -0.6406 -0.4968 -0.4563
   71MOL   C42332763   5.731   6.031   3.465 -0.2660 -0.3556  0.0213
   71MOL   C42432764   5.649   5.916   3.454 -0.3493  0.1434  0.0628
   71MOL   C42532765   5.708   5.786   3.456 -0.2501 -0.5763  0.3854
   71MOL   C42632766   5.626   5.660   3.440 -0.0376 -0.5094  0.4004
   71MOL   O42732767   5.515   5.656   3.383  0.5690 -0.3515 -0.4731
   71MOL   O42832768   5.690   5.552   3.497 -0.2106 -0.3833 -0.6070
   71MOL   C42932769   5.848   5.777   3.463 -0.5958 -1.1237 -0.2589
   71MOL   C43032770   5.931   5.891   3.467 -0.7665  0.0279 -0.1633
   71MOL   H43132771   6.338   6.216   3.715  0.3078 -0.2793 -0.2007
   71MOL   H43232772   6.285   6.053   3.647  1.7134  0.7897  0.7160
   71MOL   H43332773   6.236   6.244   3.494 -0.7761 -4.4464 -2.3753
   71MOL   H43432774   6.124   6.307   3.610  3.0103  1.4442 -0.8850
   71MOL   H43532775   5.682   6.127   3.473 -1.9364 -1.2541  0.8865
   71MOL   H43632776   5.542   5.927   3.456 -0.2263  1.0832  1.7916
   71MOL   H43732777   5.891   5.679   3.469  1.2860 -0.3355 -0.3639
   71MOL   H43832778   6.036   5.874   3.484 -0.9766  0.4451  1.6878
   71MOL   O43932779   5.632   5.426   3.464  0.2595 -0.3568 -0.0831
   71MOL   C44032780   5.552   5.385   3.576  0.3285 -0.1425 -0.3069
   71MOL   C44132781   5.516   5.242   3.552  0.9300 -0.1108  0.0203
   71MOL   O44232782   5.412   5.244   3.457  0.0809  0.2571  0.2700
   71MOL   C44332783   5.288   5.264   3.492  0.0450 -0.3709  0.6827
   71MOL   O44432784   5.251   5.316   3.601  0.3995 -0.4674 -0.2306
   71MOL   C44532785   5.192   5.226   3.376  0.0095  0.0131 -0.3328
   71MOL   C44632786   5.230   5.152   3.258  0.1413 -0.8729 -0.3396
   71MOL   C44732787   5.135   5.121   3.159 -0.3299  0.5436 -0.3241
   71MOL   C44832788   4.995   5.148   3.181 -0.3659 -0.1035  0.0315
   71MOL   C44932789   4.890   5.091   3.094 -0.6702 -0.9160 -0.5553
   71MOL   O45032790   4.775   5.134   3.095  0.6819 -0.5356 -0.0350
   71MOL   O45132791   4.929   4.985   3.026 -0.5287 -0.2131 -0.0628
   71MOL   C45232792   4.964   5.220   3.296  0.2426  0.0649 -0.2285
   71MOL   C45332793   5.062   5.273   3.386  0.3818  0.7239 -0.0112
   71MOL   H45432794   5.608   5.389   3.669 -4.7677  0.0528  2.9292
   71MOL   H45532795   5.463   5.447   3.590 -0.9859 -1.9499 -0.4891
   71MOL   H45632796   5.489   5.181   3.638 -1.3217 -1.7637 -1.7952
   71MOL   H45732797   5.601   5.199   3.498  1.1113  0.1664  0.0837
   71MOL   H45832798   5.328   5.108   3.246 -0.6161 -3.1752  1.5628
   71MOL   H45932799   5.152   5.065   3.068  0.7843 -0.0832  0.2678
   71MOL   H46032800   4.863   5.251   3.319 -0.1816 -1.1816 -0.4152
   71MOL   H46132801   5.036   5.332   3.473  0.4495 -0.1191  0.5829
   71MOL   H46232802   4.845   4.947   3.006 -0.9878  1.0332 -0.5045
   72MOL     O132803   5.961   1.897   0.263  0.3594  1.3850 -0.0336
   72MOL     C232804   5.917   1.803   0.165  0.3992  0.4183  0.5140
   72MOL     C332805   5.830   1.696   0.228  0.6059 -0.7874  0.6813
   72MOL     O432806   5.706   1.738   0.288 -0.1117 -0.4236  0.1066
   72MOL     C532807   5.704   1.760   0.420 -0.2580 -0.3748 -0.9747
   72MOL     O632808   5.809   1.777   0.481 -0.4181  0.0478 -0.0808
   72MOL     C732809   5.570   1.762   0.477 -0.4274 -0.0937 -0.0414
   72MOL     C832810   5.456   1.758   0.395 -0.4924  0.6205 -0.1458
   72MOL     C932811   5.329   1.751   0.457 -0.7193  0.0003  0.3109
   72MOL    C1032812   5.308   1.770   0.596  0.3837 -0.5441 -0.1163
   72MOL    C1132813   5.167   1.774   0.652  0.2121 -0.5973  0.7491
   72MOL    O1232814   5.072   1.765   0.572  0.2080 -0.5818  0.6142
   72MOL    O1332815   5.166   1.794   0.791 -0.0634 -0.1134 -0.3144
   72MOL    C1432816   5.427   1.783   0.677  0.0437 -0.3157 -0.0469
   72MOL    C1532817   5.556   1.774   0.617  0.7086  0.5148  0.6177
   72MOL    H1632818   5.860   1.859   0.091 -1.6042 -2.4084 -0.1723
   72MOL    H1732819   5.998   1.758   0.107  0.7760 -0.3724  1.6448
   72MOL    H1832820   5.903   1.637   0.283  1.3144 -0.7600 -0.2199
   72MOL    H1932821   5.799   1.625   0.150 -1.4503  0.5350  0.2627
   72MOL    H2032822   5.465   1.746   0.288 -1.6878 -1.4247 -0.0540
   72MOL    H2132823   5.242   1.740   0.394  0.2309  2.1734 -1.4421
   72MOL    H2232824   5.417   1.817   0.779  2.9877 -1.7479  0.7534
   72MOL    H2332825   5.645   1.790   0.676  0.9384  1.0481  0.1330
   72MOL    H2432826   5.934   1.857   0.344 -1.6229  2.3061 -0.1905
   72MOL    O2532827   5.027   1.797   0.854  0.2978 -0.2106  0.2719
   72MOL    C2632828   4.974   1.925   0.858 -0.1308  0.4052 -0.2049
   72MOL    C2732829   4.844   1.924   0.933  0.7295 -0.2729 -0.3911
   72MOL    O2832830   4.739   1.852   0.865 -0.5329 -0.1379 -0.3328
   72MOL    C2932831   4.612   1.875   0.903  0.0629  0.3544  0.3275
   72MOL    O3032832   4.577   1.970   0.975 -0.2256  0.0440 -0.1556
   72MOL    C3132833   4.513   1.774   0.833 -0.0005 -0.0980 -0.1007
   72MOL    C3232834   4.546   1.706   0.713 -0.4239  0.3997 -0.2454
   72MOL    C3332835   4.455   1.612   0.657  0.2671 -0.4262 -0.1265
   72MOL    C3432836   4.328   1.592   0.717 -0.3417 -0.7471 -0.1639
   72MOL    C3532837   4.226   1.495   0.659  0.1035 -0.2423  0.0876
   72MOL    O3632838   4.134   1.445   0.721 -0.1444 -0.3616 -0.0662
   72MOL    O3732839   4.254   1.473   0.531 -0.4366 -0.1683  0.3359
   72MOL    C3832840   4.296   1.663   0.833 -1.5499 -0.2119 -0.1164
   72MOL    C3932841   4.391   1.753   0.890 -0.1420  0.3043 -1.4719
   72MOL    H4032842   5.042   1.995   0.908 -0.4473  0.2700  0.4166
   72MOL    H4132843   4.963   1.950   0.753  1.8074  0.6472 -0.3734
   72MOL    H4232844   4.807   2.027   0.936 -0.1708 -0.5785 -1.0899
   72MOL    H4332845   4.860   1.877   1.030  0.8942  1.2177  0.3221
   72MOL    H4432846   4.643   1.725   0.669  0.0783 -1.7142 -0.1537
   72MOL    H4532847   4.466   1.575   0.556 -3.0108 -0.2003 -0.6402
   72MOL    H4632848   4.203   1.661   0.889 -0.3150  0.8297  2.0517
   72MOL    H4732849   4.354   1.812   0.973  0.8953 -2.4214  0.9875
   72MOL    O4832850   4.175   1.358   0.464 -0.7461 -0.4565  0.0247
   72MOL    C4932851   4.261   1.265   0.413  0.3398  0.2576  0.0589
   72MOL    C5032852   4.183   1.163   0.318  0.8392  0.1931 -0.5378
   72MOL    O5132853   4.172   1.222   0.196  0.1916  0.4338  0.1807
   72MOL    C5232854   4.076   1.173   0.110 -0.2973 -0.0608  0.2038
   72MOL    O5332855   3.998   1.085   0.136 -0.7308 -0.4512 -0.3087
   72MOL    C5432856   4.070   1.251   8.260  0.3443  0.3453 -0.4381
   72MOL    C5532857   4.113   1.385   8.258 -0.1709 -0.0411 -0.2704
   72MOL    C5632858   4.111   1.465   8.143 -0.1215  0.2688  0.2444
   72MOL    C5732859   4.058   1.408   8.023  0.0559  0.5901 -0.2405
   72MOL    C5832860   4.045   1.492   7.899  0.3655  0.2569 -0.9654
   72MOL    O5932861   3.991   1.439   7.802 -0.3602  0.0781 -0.0284
   72MOL    O6032862   4.077   1.619   7.912 -0.1181 -0.3824  0.0136
   72MOL    C6132863   4.020   1.266   8.019  0.3043 -0.9538  0.2200
   72MOL    C6232864   4.029   1.190   8.140  0.4281 -0.0713 -0.5685
   72MOL    H6332865   4.347   1.301   0.357 -1.4103  1.7136 -1.7621
   72MOL    H6432866   4.288   1.208   0.501  1.1040  0.9166  0.2528
   72MOL    H6532867   4.086   1.139   0.361  0.3258  2.8637 -0.1249
   72MOL    H6632868   4.242   1.072   0.312 -0.7120 -0.9141  0.6990
   72MOL    H6732869   4.144   1.443   0.069  0.6806  0.5843 -0.9944
   72MOL    H6832870   4.130   1.571   8.145 -0.4426  0.3492 -0.6071
   72MOL    H6932871   3.971   1.212   7.940 -0.3123  1.6287 -1.2014
   72MOL    H7032872   4.003   1.086   8.128 -1.3400  0.3988 -0.8778
   72MOL    O7132873   4.023   1.720   7.806  0.7398 -0.6608  0.7597
   72MOL    C7232874   4.134   1.768   7.720  0.4785  0.3657 -0.3233
   72MOL    C7332875   4.099   1.916   7.679 -0.1012  0.9448 -0.3137
   72MOL    O7432876   4.150   2.012   7.772 -0.1954 -0.1419  0.2962
   72MOL    C7532877   4.083   2.033   7.889 -0.6627 -0.5770  0.5361
   72MOL    O7632878   3.971   1.986   7.927  0.0635  0.0538 -0.6622
   72MOL    C7732879   4.143   2.136   7.982 -0.2311 -0.5126  0.3089
   72MOL    C7832880   4.252   2.209   7.940 -0.2709 -0.8070  0.3737
   72MOL    C7932881   4.305   2.312   8.021 -0.4853  0.3985  0.1143
   72MOL    C8032882   4.253   2.345   8.151 -0.4520 -0.6127  0.4735
   72MOL    C8132883   4.315   2.452   8.239 -0.0151  0.3033  1.0209
   72MOL    O8232884   4.428   2.496   8.223 -0.5084  0.4072  0.7055
   72MOL    O8332885   4.249   2.484   0.074  0.1946  0.2635  0.2080
   72MOL    C8432886   4.132   2.276   8.187  1.1100  0.1986  0.3718
   72MOL    C8532887   4.088   2.171   8.107 -0.1422  0.0523 -0.3802
   72MOL    H8632888   4.232   1.757   7.766  0.5212 -1.8857 -0.8658
   72MOL    H8732889   4.127   1.695   7.639  1.1113  1.6228 -1.5423
   72MOL    H8832890   3.994   1.941   7.666  0.0841  1.9009 -0.0019
   72MOL    H8932891   4.150   1.933   7.584 -1.6653  1.0439 -1.1599
   72MOL    H9032892   4.292   2.204   7.840  0.2000  2.5169  0.3167
   72MOL    H9132893   4.391   2.369   7.989 -1.9655  1.7277 -1.5822
   72MOL    H9232894   4.077   2.295   0.002  0.4575  1.3956 -0.2607
   72MOL    H9332895   3.999   2.119   8.142 -0.1904  1.7194  2.0715
   72MOL    O9432896   4.311   2.596   0.148  0.4578  0.0875 -0.5369
   72MOL    C9532897   4.270   2.721   0.088  0.7973 -0.3262 -0.6388
   72MOL    C9632898   4.317   2.835   0.171  0.1935 -0.0221 -0.2133
   72MOL    O9732899   4.253   2.850   0.295 -0.1461  0.8384  0.1246
   72MOL    C9832900   4.137   2.916   0.299  0.1141 -0.8696 -0.0276
   72MOL    O9932901   4.096   2.986   0.202 -1.0362 -0.4581  0.1409
   72MOL   C10032902   4.060   2.914   0.426 -0.0583  0.0013  0.6187
   72MOL   C10132903   4.119   2.880   0.548 -0.1094 -0.0062 -0.5424
   72MOL   C10232904   4.044   2.893   0.663  0.5813  0.7984  0.5663
   72MOL   C10332905   3.909   2.941   0.665  0.1568 -0.2999 -0.0333
   72MOL   C10432906   3.840   2.961   0.797 -1.5374 -0.6196  0.7736
   72MOL   O10532907   3.882   2.935   0.908 -0.4507  0.2134  0.2001
   72MOL   O10632908   3.720   3.022   0.775  0.2865 -0.2607 -0.0560
   72MOL   C10732909   3.854   2.977   0.541 -0.3300 -0.1571  0.1573
   72MOL   C10832910   3.932   2.972   0.424  0.9367  0.8295 -0.3291
   72MOL   H10932911   4.314   2.728   8.264  1.2196 -2.5223 -0.6288
   72MOL   H11032912   4.162   2.737   0.087  0.7487 -0.3952  1.1610
   72MOL   H11132913   4.313   2.928   0.114 -3.3301  0.9575  1.4705
   72MOL   H11232914   4.424   2.826   0.184  0.3790  2.2228 -0.0657
   72MOL   H11332915   4.217   2.837   0.566  0.4008  0.4044 -2.2583
   72MOL   H11432916   4.092   2.845   0.746 -0.4791  0.3269  0.9091
   72MOL   H11532917   3.755   3.020   0.529 -0.2233  0.1621  0.4230
   72MOL   H11632918   3.885   3.007   0.334 -2.4316 -0.2386  0.9106
   72MOL   O11732919   3.650   3.053   0.902  0.0089 -0.4560  0.1357
   72MOL   C11832920   3.628   3.194   0.894  0.4935 -0.5997  0.0704
   72MOL   C11932921   3.552   3.239   1.013 -0.4677 -0.8764 -0.0754
   72MOL   O12032922   3.495   3.363   0.994  0.0385  0.7338  0.6688
   72MOL   C12132923   3.387   3.380   0.918  0.2247 -0.4143  0.1028
   72MOL   O12232924   3.332   3.291   0.862 -0.3204  0.2435 -0.8990
   72MOL   C12332925   3.345   3.520   0.926  0.4245  0.2350 -0.4464
   72MOL   C12432926   3.226   3.559   0.855  0.0595 -0.2342 -0.7641
   72MOL   C12532927   3.176   3.692   0.871  0.1638 -0.2955  0.6652
   72MOL   C12632928   3.237   3.789   0.955  0.1022  0.4036 -0.3892
   72MOL   C12732929   3.195   3.926   0.963  0.2924 -0.5463 -0.4287
   72MOL   O12832930   3.098   3.971   0.904 -0.4798  0.4359  0.0380
   72MOL   O12932931   3.272   4.001   1.034 -0.1708 -0.0273 -0.5620
   72MOL   C13032932   3.350   3.745   1.030  0.1571 -0.3342  0.7209
   72MOL   C13132933   3.402   3.615   1.017  0.4628 -0.1146 -0.3720
   72MOL   H13232934   3.727   3.240   0.887  1.7106 -3.0033  0.5454
   72MOL   H13332935   3.575   3.217   0.801 -2.1222 -1.3903  1.3161
   72MOL   H13432936   3.632   3.242   1.087 -0.1145  0.5632 -0.5025
   72MOL   H13532937   3.471   3.180   1.056  1.2176 -1.2906  2.6119
   72MOL   H13632938   3.172   3.487   0.795 -1.1248 -0.5960  0.7099
   72MOL   H13732939   3.095   3.734   0.813 -1.2822 -1.4077  1.8487
   72MOL   H13832940   3.392   3.812   1.103  0.0820 -3.0019  3.2874
   72MOL   H13932941   3.488   3.600   1.081  0.2901 -0.7494 -0.2903
   72MOL   O14032942   3.300   4.140   0.985  0.1146  0.5053  0.4462
   72MOL   C14132943   3.203   4.227   1.042  0.2608 -0.4175  0.2622
   72MOL   C14232944   3.218   4.366   0.987  0.0136 -0.1383  0.5346
   72MOL   O14332945   3.193   4.372   0.845  0.2041 -0.0879 -0.0147
   72MOL   C14432946   3.181   4.485   0.785  0.8747 -0.2578 -0.0293
   72MOL   O14532947   3.201   4.596   0.841  0.1783  1.2399  0.2687
   72MOL   C14632948   3.139   4.468   0.643 -0.1478 -0.5351  0.2595
   72MOL   C14732949   3.169   4.348   0.563  0.2866 -0.1504 -0.1363
   72MOL   C14832950   3.130   4.349   0.427  0.4965  0.0637 -0.2187
   72MOL   C14932951   3.059   4.458   0.366 -0.5841 -0.4124  0.5112
   72MOL   C15032952   2.998   4.454   0.223  0.2643  0.1902 -0.7149
   72MOL   O15132953   2.928   4.553   0.179 -0.6270  0.0469  0.4614
   72MOL   O15232954   3.018   4.336   0.160 -0.0252  0.1522  0.1021
   72MOL   C15332955   3.045   4.577   0.442 -0.6145 -0.2971  0.8501
   72MOL   C15432956   3.069   4.578   0.579 -0.4993 -0.0220  0.4023
   72MOL   H15532957   3.102   4.189   1.036  0.2069 -0.1044 -0.9289
   72MOL   H15632958   3.218   4.239   1.150 -2.3028 -1.3645  0.7529
   72MOL   H15732959   3.320   4.389   1.017  0.0378 -1.3996  1.4585
   72MOL   H15832960   3.150   4.436   1.035 -0.6436 -0.0791 -0.4631
   72MOL   H15932961   3.224   4.269   0.612  1.7726 -0.2803 -1.9362
   72MOL   H16032962   3.134   4.261   0.365 -0.8702  0.0265 -0.2684
   72MOL   H16132963   3.013   4.666   0.390 -0.8174 -1.3716 -0.9370
   72MOL   H16232964   3.049   4.677   0.618  0.8602  1.3529 -2.2112
   72MOL   O16332965   2.913   4.301   0.066 -0.2981 -0.4775 -0.6975
   72MOL   C16432966   2.959   4.321   8.209 -0.1234  0.1743  0.3103
   72MOL   C16532967   3.060   4.211   8.174  0.0818  0.6590  0.2237
   72MOL   O16632968   3.188   4.209   8.243  0.3138  0.1951  0.0217
   72MOL   C16732969   3.302   4.242   8.178 -0.0783 -0.0993  0.0067
   72MOL   O16832970   3.298   4.284   8.063  0.0009  0.1366  0.3240
   72MOL   C16932971   3.427   4.222   8.265  0.2326 -0.7005 -0.0728
   72MOL   C17032972   3.549   4.269   8.215 -0.6430 -0.0442  0.7878
   72MOL   C17132973   3.667   4.239   0.004 -0.4658  0.4467 -0.0067
   72MOL   C17232974   3.674   4.164   0.125 -0.0914  0.7774 -0.3472
   72MOL   C17332975   3.802   4.128   0.182 -0.1820  0.6333  0.3804
   72MOL   O17432976   3.912   4.142   0.121  0.3879 -0.2275 -0.1316
   72MOL   O17532977   3.792   4.072   0.303  0.2336  0.5635  0.0335
   72MOL   C17632978   3.552   4.132   0.185 -0.5453  0.0488  0.0930
   72MOL   C17732979   3.428   4.156   0.114  0.2333 -0.2278  0.1792
   72MOL   H17832980   2.873   4.314   8.142 -0.3549  2.6235  0.3071
   72MOL   H17932981   3.002   4.421   8.202 -1.5504  0.6576 -1.9878
   72MOL   H18032982   3.073   4.207   8.065 -0.8559 -0.2295  0.1344
   72MOL   H18132983   3.022   4.113   8.200  1.3625  0.2376  0.5511
   72MOL   H18232984   3.546   4.316   8.118 -0.8778  1.7619  1.6482
   72MOL   H18332985   3.758   4.269   8.228 -1.1768  2.3310 -0.2046
   72MOL   H18432986   3.557   4.081   0.279  1.3763  0.8490  0.4539
   72MOL   H18532987   3.334   4.133   0.161 -0.7274  2.0274 -0.5582
   72MOL   O18632988   3.927   4.058   0.373  0.1420 -0.2197 -0.6775
   72MOL   C18732989   3.966   3.921   0.361 -0.1737  0.0308 -0.0709
   72MOL   C18832990   4.097   3.915   0.450 -0.0709  0.2182  0.4707
   72MOL   O18932991   4.182   3.813   0.392  0.4044  0.6228 -0.1944
   72MOL   C19032992   4.189   3.683   0.444 -0.5543  0.9200 -0.4676
   72MOL   O19132993   4.131   3.661   0.550  0.3235  0.2326  0.0697
   72MOL   C19232994   4.247   3.581   0.350  0.2595  0.6806  1.0290
   72MOL   C19332995   4.242   3.446   0.393 -0.2787 -0.1350 -0.3032
   72MOL   C19432996   4.310   3.347   0.323 -0.2730  0.1169  0.4897
   72MOL   C19532997   4.385   3.373   0.208  0.5733 -0.0559  0.3102
   72MOL   C19632998   4.459   3.255   0.142  0.0542  0.1127 -0.5954
   72MOL   O19732999   4.456   3.138   0.179 -0.1499 -0.1918 -0.1452
   72MOL   O19833000   4.513   3.286   0.023 -0.8236 -0.3846  0.3363
   72MOL   C19933001   4.391   3.510   0.166 -0.2892  0.5376  0.6866
   72MOL   C20033002   4.323   3.612   0.231  0.4103  0.6179 -0.2299
   72MOL   H20133003   3.887   3.850   0.382  1.0038 -0.3976  3.0715
   72MOL   H20233004   3.987   3.896   0.257  1.6455 -1.5737  0.6585
   72MOL   H20333005   4.065   3.905   0.553  0.9658 -0.8525  0.6938
   72MOL   H20433006   4.157   4.005   0.437  2.0468 -1.4123 -1.4782
   72MOL   H20533007   4.193   3.425   0.487  2.0602 -0.8320  0.7817
   72MOL   H20633008   4.295   3.243   0.350 -1.0512 -0.0438 -0.5182
   72MOL   H20733009   4.446   3.541   0.079 -2.1350 -1.2754 -1.1622
   72MOL   H20833010   4.326   3.717   0.205  0.3285  0.3681 -1.2591
   72MOL   O20933011   4.575   3.169   8.228 -0.4765  0.3388 -0.0862
   72MOL   C21033012   4.702   3.209   8.168 -0.4807  0.1494  0.0823
   72MOL   C21133013   4.796   3.263   8.272  0.1335  0.5406 -0.1285
   72MOL   O21233014   4.861   3.164   0.071  0.4813  0.3606  0.3859
   72MOL   C21333015   4.839   3.150   0.202  0.4224  0.9297 -0.2262
   72MOL   O21433016   4.776   3.230   0.270  0.2331  0.0361 -0.3518
   72MOL   C21533017   4.902   3.031   0.254 -0.4089  0.1346 -0.1131
   72MOL   C21633018   4.947   3.022   0.387  0.3732  0.4674 -0.3860
   72MOL   C21733019   5.009   2.910   0.430 -0.0281  0.6927  0.0401
   72MOL   C21833020   5.008   2.791   0.355 -0.6509 -0.1368  0.1082
   72MOL   C21933021   5.062   2.667   0.409 -0.5162 -0.2447  0.2169
   72MOL   O22033022   5.133   2.661   0.512 -0.1929  0.3926 -0.4108
   72MOL   O22133023   5.029   2.557   0.336  0.2572 -0.1855  0.0938
   72MOL   C22233024   4.955   2.789   0.223 -0.9120  0.5153  0.3277
   72MOL   C22333025   4.911   2.912   0.172 -0.8017  0.0322  0.5216
   72MOL   H22433026   4.753   3.128   8.116  0.2094  0.7659 -0.1946
   72MOL   H22533027   4.683   3.285   8.093  0.6998  1.2758  0.9044
   72MOL   H22633028   4.745   3.338   0.057  0.0054 -1.5422  2.4161
   72MOL   H22733029   4.876   3.316   8.220  0.0197 -0.0579 -0.9226
   72MOL   H22833030   4.947   3.112   0.447  1.1186  1.2651 -1.5428
   72MOL   H22933031   5.045   2.907   0.532 -0.6382 -2.2635  0.2286
   72MOL   H23033032   4.975   2.703   0.161  0.6203  0.7610  0.4620
   72MOL   H23133033   4.883   2.911   0.068  0.3228  2.5047  0.1567
   72MOL   O23233034   5.099   2.428   0.382  0.5539 -0.2387 -0.2915
   72MOL   C23333035   5.224   2.414   0.312 -0.5710  0.2910  0.8429
   72MOL   C23433036   5.216   2.420   0.156 -0.5538 -0.2592 -0.2236
   72MOL   O23533037   5.160   2.293   0.115  0.3489 -0.1599 -0.3054
   72MOL   C23633038   5.106   2.271   8.272 -0.1085  0.9368  0.2126
   72MOL   O23733039   5.105   2.357   8.184 -0.2215  0.3613  0.3465
   72MOL   C23833040   5.046   2.131   8.251 -0.0757  0.6612  0.4629
   72MOL   C23933041   5.078   2.021   0.057 -1.1738  0.6850 -0.5205
   72MOL   C24033042   5.032   1.887   0.034 -0.1157 -0.2598  0.8792
   72MOL   C24133043   4.957   1.862   8.191  0.2396 -0.2160 -0.2272
   72MOL   C24233044   4.895   1.727   8.179  0.2534 -0.1563 -0.8778
   72MOL   O24333045   4.824   1.704   8.079  0.5111  0.0066 -0.6333
   72MOL   O24433046   4.918   1.641   0.006  0.6672  0.1285 -0.6032
   72MOL   C24533047   4.937   1.964   8.096  0.2781  0.3579  0.1971
   72MOL   C24633048   4.975   2.095   8.132  0.6816  0.1625 -0.3717
   72MOL   H24733049   5.286   2.493   0.354 -0.7258 -0.1358  1.8842
   72MOL   H24833050   5.284   2.325   0.329  0.4709  1.5124  3.9900
   72MOL   H24933051   5.315   2.439   0.115 -0.1730 -2.3362 -0.3387
   72MOL   H25033052   5.162   2.510   0.126 -1.1746 -0.3807  0.5016
   72MOL   H25133053   5.131   2.039   0.149 -0.7309 -1.7219 -0.2524
   72MOL   H25233054   5.056   1.812   0.108 -0.3285 -1.0807  0.1180
   72MOL   H25333055   4.889   1.948   8.001 -0.2300  0.4318  0.4412
   72MOL   H25433056   4.950   2.175   8.065  1.4349 -0.0755 -0.9495
   72MOL   O25533057   4.827   1.518   0.017 -0.3628 -0.2494 -0.7420
   72MOL   C25633058   4.906   1.417   8.237 -0.5009 -0.0335 -0.3233
   72MOL   C25733059   4.835   1.286   8.257 -0.2232 -0.7684 -0.5920
   72MOL   O25833060   4.715   1.275   8.175  0.6433  0.2276 -0.1114
   72MOL   C25933061   4.728   1.236   8.046 -0.0149 -0.8217 -0.7458
   72MOL   O26033062   4.836   1.226   7.984  0.1308 -0.0081  0.2195
   72MOL   C26133063   4.601   1.191   7.999 -0.3639 -0.7833 -0.3815
   72MOL   C26233064   4.591   1.176   7.858  0.8420 -0.4268 -0.2828
   72MOL   C26333065   4.481   1.108   7.798  0.5394  0.3784 -0.1699
   72MOL   C26433066   4.370   1.077   7.873  0.7315  0.4426  0.4201
   72MOL   C26533067   4.257   1.003   7.810 -0.2252 -0.4678  0.2033
   72MOL   O26633068   4.244   0.991   7.687  0.5159 -1.0337  0.0022
   72MOL   O26733069   4.180   0.940   7.897 -0.7523 -0.4072  0.0327
   72MOL   C26833070   4.365   1.115   8.007  1.2518  0.4257  0.5296
   72MOL   C26933071   4.482   1.164   8.075  0.0456 -0.7404  0.3283
   72MOL   H27033072   4.921   1.429   8.130  0.4531 -0.6225 -0.2674
   72MOL   H27133073   5.010   1.414   8.270 -0.4147 -0.4766 -0.6257
   72MOL   H27233074   4.825   1.265   0.088 -0.7927 -1.3801 -0.7648
   72MOL   H27333075   4.901   1.209   8.218  0.9728 -0.7683  1.3554
   72MOL   H27433076   4.680   1.196   7.801 -0.1600 -1.5302 -2.2781
   72MOL   H27533077   4.492   1.087   7.693  2.3708 -1.4540  0.3535
   72MOL   H27633078   4.281   1.081   8.066 -0.0332 -0.1712 -1.5823
   72MOL   H27733079   4.473   1.192   8.178 -0.7592  0.4940 -0.0711
   72MOL   O27833080   4.080   0.842   7.842  0.3648 -0.4141 -0.1531
   72MOL   C27933081   3.956   0.901   7.820  0.5976  0.9604  0.1259
   72MOL   C28033082   3.926   0.909   7.669 -0.4182  0.3398  0.0468
   72MOL   O28133083   3.885   0.783   7.612  0.6266  0.0679  0.4090
   72MOL   C28233084   3.770   0.730   7.643  0.0555 -0.3168 -0.2982
   72MOL   O28333085   3.684   0.782   7.721 -0.4212 -0.3797  0.3603
   72MOL   C28433086   3.744   0.602   7.563  0.2618  0.3640 -0.6608
   72MOL   C28533087   3.646   0.510   7.607 -0.4169 -0.0188 -0.0139
   72MOL   C28633088   3.622   0.399   7.527  0.4888  0.7753  0.5740
   72MOL   C28733089   3.692   0.371   7.408  0.6394  1.0257  0.7398
   72MOL   C28833090   3.681   0.246   7.331 -0.9961 -0.2209  0.5082
   72MOL   O28933091   3.752   0.227   7.234  0.2307 -0.8455 -0.0675
   72MOL   O29033092   3.584   0.159   7.371  0.4701  0.7402  0.4797
   72MOL   C29133093   3.789   0.468   7.362  0.3570 -0.3688  0.2333
   72MOL   C29233094   3.810   0.586   7.439  0.0309 -0.2104 -0.1086
   72MOL   H29333095   3.872   0.846   7.863 -0.2030  1.5007 -0.7103
   72MOL   H29433096   3.942   0.997   7.870 -1.7768  0.0580  1.2810
   72MOL   H29533097   4.022   0.931   7.621 -0.0455 -0.9959  0.1831
   72MOL   H29633098   3.868   0.994   7.632  0.6454  1.1667  0.2380
   72MOL   H29733099   3.606   0.520   7.707 -0.2282 -0.9148  0.1615
   72MOL   H29833100   3.579   0.313   7.576 -1.9966 -0.4679 -3.5572
   72MOL   H29933101   3.843   0.465   7.269  0.2702  0.6245  0.1500
   72MOL   H30033102   3.873   0.667   7.406  0.7698  0.2771  2.4625
   72MOL   O30133103   3.595   0.021   7.311 -0.4058  0.1899  0.1463
   72MOL   C30233104   3.473   0.001   7.234 -0.5550  0.4905 -0.6692
   72MOL   C30333105   3.492   8.150   7.154 -0.2191  0.1662  0.3914
   72MOL   O30433106   3.604   8.166   7.060  0.0191 -0.2890 -0.3699
   72MOL   C30533107   3.704   8.083   7.069  0.5076  0.5648 -0.1665
   72MOL   O30633108   3.695   7.977   7.131  0.1746 -0.7180  0.3377
   72MOL   C30733109   3.830   8.133   7.017 -0.1932 -0.3243  0.2811
   72MOL   C30833110   3.941   8.052   6.996 -0.0089  0.3259 -0.1370
   72MOL   C30933111   4.062   8.112   6.970  0.0041 -0.8548 -0.0048
   72MOL   C31033112   4.080   8.252   6.969  0.1073  0.1409  0.3760
   72MOL   C31133113   4.216   0.034   6.955  0.4786 -0.6014  0.2386
   72MOL   O31233114   4.320   8.242   6.956  0.3225 -0.3027  0.6673
   72MOL   O31333115   4.215   0.165   6.951 -0.1512 -0.6255  0.0707
   72MOL   C31433116   3.969   0.061   6.991  0.3744  0.3617  0.5697
   72MOL   C31533117   3.851   8.273   7.017  0.3948 -0.2957  0.4403
   72MOL   H31633118   3.375   8.270   7.281 -0.1817 -0.1173  0.0359
   72MOL   H31733119   3.471   0.080   7.158  1.0873  1.4060  0.2050
   72MOL   H31833120   3.413   8.120   7.084  0.6398 -2.5724  0.5299
   72MOL   H31933121   3.506   8.065   7.222 -1.1782 -0.1624  0.1905
   72MOL   H32033122   3.930   7.945   7.009  1.2906 -0.0293 -1.8125
   72MOL   H32133123   4.145   8.054   6.934  1.1151  0.5927  0.1787
   72MOL   H32233124   3.984   0.168   6.998  3.5305  0.0373 -0.7668
   72MOL   H32333125   3.779   0.069   7.053  1.6255  0.9953  0.4189
   72MOL   O32433126   4.347   0.231   6.983  0.4310  0.3388 -0.1656
   72MOL   C32533127   4.396   0.285   6.864 -0.6553  0.2274 -0.1993
   72MOL   C32633128   4.547   0.320   6.860 -0.8086 -0.4977 -0.5339
   72MOL   O32733129   4.566   0.426   6.951 -0.4105 -0.0328  0.4531
   72MOL   C32833130   4.551   0.550   6.908 -0.0728  0.6975 -0.2864
   72MOL   O32933131   4.535   0.584   6.792 -0.0423 -0.4672 -0.2980
   72MOL   C33033132   4.537   0.644   7.025  0.2370  0.0223 -0.8715
   72MOL   C33133133   4.501   0.779   7.010 -0.4516  0.3819 -0.0507
   72MOL   C33233134   4.492   0.867   7.120  0.9851 -0.7045 -0.1855
   72MOL   C33333135   4.522   0.829   7.256  0.5396  0.9528 -0.3116
   72MOL   C33433136   4.524   0.927   7.364  0.2225 -0.2012  0.1846
   72MOL   O33533137   4.494   0.893   7.476  0.0290  0.0127  0.1271
   72MOL   O33633138   4.567   1.051   7.334  0.2728  0.7726  0.2504
   72MOL   C33733139   4.551   0.690   7.273  0.4524 -0.2744  0.4119
   72MOL   C33833140   4.553   0.599   7.161  0.1668  0.0584 -0.6669
   72MOL   H33933141   4.376   0.210   6.787  1.9650 -0.7496  0.0211
   72MOL   H34033142   4.335   0.371   6.839  0.4778  1.0006 -0.3321
   72MOL   H34133143   4.587   0.347   6.763  1.5491  1.1581  0.8447
   72MOL   H34233144   4.614   0.242   6.896  0.5772  0.8230 -0.2076
   72MOL   H34333145   4.492   0.808   6.906 -2.2953 -1.6055 -0.4838
   72MOL   H34433146   4.459   0.965   7.088  0.1649 -0.4311  1.4282
   72MOL   H34533147   4.566   0.656   7.374  1.7845 -2.3394 -0.4581
   72MOL   H34633148   4.573   0.495   7.181  2.7679  1.2676  3.8735
   72MOL   O34733149   4.587   1.135   7.448 -0.6364 -0.0649 -0.7155
   72MOL   C34833150   4.722   1.156   7.482 -0.8117  0.0814 -0.3536
   72MOL   C34933151   4.786   1.047   7.579 -0.7407 -0.5383  0.7729
   72MOL   O35033152   4.831   0.944   7.495 -0.0290  0.4463  0.3491
   72MOL   C35133153   4.878   0.825   7.538  0.2127  0.1585 -0.1295
   72MOL   O35233154   4.884   0.800   7.659 -0.7677 -0.1443  0.5109
   72MOL   C35333155   4.914   0.728   7.432 -0.3032 -1.5920 -0.0735
   72MOL   C35433156   4.959   0.769   7.304  0.3569 -0.0289 -0.0379
   72MOL   C35533157   5.016   0.682   7.209 -0.1498 -0.8612  0.2386
   72MOL   C35633158   5.021   0.542   7.238 -0.0535  0.7791  0.0462
   72MOL   C35733159   5.072   0.451   7.137 -0.2269 -0.0249  0.7963
   72MOL   O35833160   5.086   0.490   7.019 -0.0220 -0.4846 -0.3573
   72MOL   O35933161   5.092   0.331   7.186  0.0190 -0.3999  0.7766
   72MOL   C36033162   4.961   0.502   7.360 -0.3729 -1.3670  0.2740
   72MOL   C36133163   4.907   0.595   7.449  0.4171  0.8969  0.8422
   72MOL   H36233164   4.777   1.187   7.393 -0.0180  2.5644  0.9677
   72MOL   H36333165   4.715   1.254   7.530 -2.1010  0.3176 -1.0007
   72MOL   H36433166   4.708   1.023   7.651  0.5960 -0.9770  2.0928
   72MOL   H36533167   4.865   1.092   7.640 -0.6488  0.0066  0.2543
   72MOL   H36633168   4.968   0.875   7.281  0.4904 -0.1503 -0.5600
   72MOL   H36733169   5.057   0.719   7.117 -0.3515 -1.8183 -0.2365
   72MOL   H36833170   4.969   0.404   7.402  2.2456 -1.9956 -1.5131
   72MOL   H36933171   4.873   0.553   7.543 -0.4722  1.6814  0.8750
   72MOL   O37033172   5.166   0.237   7.093  0.2614  0.5779 -0.2777
   72MOL   C37133173   5.082   0.129   7.062  0.1730  0.2589  0.4535
   72MOL   C37233174   5.164   0.001   7.094  0.2548  0.6501  0.0616
   72MOL   O37333175   5.171   8.259   7.235  0.0722 -0.3483  0.1255
   72MOL   C37433176   5.136   8.139   7.289  0.0271 -0.0373  0.0495
   72MOL   O37533177   5.148   8.031   7.231 -0.4622 -0.1521  0.2895
   72MOL   C37633178   5.104   8.150   7.434 -0.7653  0.4349 -0.0941
   72MOL   C37733179   5.113   8.031   7.515 -0.1525 -0.1068 -0.1002
   72MOL   C37833180   5.099   8.037   7.658 -0.2539 -0.1223  0.2806
   72MOL   C37933181   5.094   8.164   7.720 -0.5264 -0.4206  0.3094
   72MOL   C38033182   5.107   8.177   7.860 -0.0233 -0.6466  0.0051
   72MOL   O38133183   5.122   8.084   7.937 -0.5644 -0.5988 -0.4147
   72MOL   O38233184   5.098   0.029   7.900 -0.4386 -0.2289  0.2809
   72MOL   C38333185   5.058   8.275   7.635  0.1033 -0.2493  0.1059
   72MOL   C38433186   5.060   8.265   7.495  0.3140 -0.1632 -0.0885
   72MOL   H38533187   4.990   0.122   7.120 -0.4282  0.0258 -0.5277
   72MOL   H38633188   5.058   0.121   6.956  0.8760 -0.1669  0.3192
   72MOL   H38733189   5.266   0.002   7.057  0.3447 -0.0008  0.2928
   72MOL   H38833190   5.116   8.187   7.055  0.2417  1.8563 -2.8076
   72MOL   H38933191   5.132   7.939   7.463  0.3171 -0.1113  0.0826
   72MOL   H39033192   5.118   7.950   7.719  1.3755  1.3449  1.9168
   72MOL   H39133193   5.038   0.098   7.676  2.9478 -1.0669  3.6829
   72MOL   H39233194   5.051   0.081   7.438  0.2864 -0.7663 -1.0639
   72MOL   O39333195   5.133   0.053   8.047 -0.2768 -1.0502  0.8240
   72MOL   C39433196   5.259   0.126   8.032  0.2460  0.5037  0.9222
   72MOL   C39533197   5.307   0.162   8.168 -0.2911 -0.4474  0.5440
   72MOL   O39633198   5.218   0.249   8.228 -0.5753  0.6547  0.4755
   72MOL   C39733199   5.245   0.294   0.069  0.8563  0.8254  0.2401
   72MOL   O39833200   5.344   0.264   0.133  0.4289 -0.7845 -0.1742
   72MOL   C39933201   5.127   0.375   0.121  0.5854 -0.0094 -0.0001
   72MOL   C40033202   5.007   0.406   0.043  0.3368 -0.5519 -0.3992
   72MOL   C40133203   4.906   0.494   0.089 -0.1986 -0.1823  0.2696
   72MOL   C40233204   4.920   0.548   0.221 -0.0081 -0.4952 -0.1071
   72MOL   C40333205   4.805   0.629   0.271 -0.6169 -0.0829  0.1842
   72MOL   O40433206   4.693   0.634   0.224 -0.2119 -0.3823  0.3972
   72MOL   O40533207   4.851   0.718   0.367  0.1700  0.0884 -0.3002
   72MOL   C40633208   5.043   0.531   0.293  0.1119  0.3016 -0.4387
   72MOL   C40733209   5.143   0.438   0.252 -0.4585  0.0055 -0.1085
   72MOL   H40833210   5.331   0.054   7.994  1.4284  2.3500 -0.4298
   72MOL   H40933211   5.233   0.208   7.964 -1.8409 -2.0348 -1.4675
   72MOL   H41033212   5.409   0.200   8.166  0.3640 -2.1528  0.7446
   72MOL   H41133213   5.308   0.070   8.228  1.0521 -0.2776  0.7946
   72MOL   H41233214   4.996   0.366   8.219  0.6143 -2.1153  0.1909
   72MOL   H41333215   4.816   0.511   0.031  0.6143 -1.5587 -1.4077
   72MOL   H41433216   5.058   0.589   0.383 -0.4174 -0.5660  0.2183
   72MOL   H41533217   5.221   0.405   0.318 -2.7751 -1.9208  1.7852
   72MOL   O41633218   4.764   0.845   0.385  0.0527 -0.1743 -0.3882
   72MOL   C41733219   4.811   0.943   0.297 -0.4369 -0.4473 -0.5410
   72MOL   C41833220   4.695   1.037   0.279 -0.3711  0.0300  0.2764
   72MOL   O41933221   4.589   0.980   0.203  0.1063 -0.5733 -0.4850
   72MOL   C42033222   4.606   0.967   0.075 -0.2934 -0.6748  0.1462
   72MOL   O42133223   4.704   1.006   0.011  0.1408  0.3728  0.4361
   72MOL   C42233224   4.489   0.890   0.016 -0.0080  0.5515 -0.1102
   72MOL   C42333225   4.512   0.799   8.191  0.3344  0.1700 -0.0559
   72MOL   C42433226   4.406   0.726   8.127 -0.0240  0.0324 -0.3617
   72MOL   C42533227   4.276   0.742   8.173  0.1007 -0.4967 -0.1017
   72MOL   C42633228   4.163   0.667   8.107  0.2585  0.3014 -0.1147
   72MOL   O42733229   4.180   0.564   8.033 -0.2176 -0.6927  0.4112
   72MOL   O42833230   4.048   0.715   8.138  0.3407 -0.4040 -0.1722
   72MOL   C42933231   4.248   0.829   0.002  0.5057 -0.0309 -0.3291
   72MOL   C43033232   4.355   0.903   0.058  0.1852 -0.1954 -0.1278
   72MOL   H43133233   4.897   0.981   0.352 -1.3324  0.6038  0.1531
   72MOL   H43233234   4.851   0.892   0.210  1.8249 -0.8755  0.6929
   72MOL   H43333235   4.734   1.130   0.237  1.6184 -0.8053  0.1742
   72MOL   H43433236   4.669   1.070   0.379  2.5705 -3.5621  2.3557
   72MOL   H43533237   4.607   0.804   8.139  0.9577 -2.6131  0.7552
   72MOL   H43633238   4.435   0.656   8.050  0.2010  0.8516 -1.0328
   72MOL   H43733239   4.148   0.831   0.042  0.3937 -1.4290 -0.5178
   72MOL   H43833240   4.331   0.953   0.150  1.8865  0.2973  0.0610
   72MOL   O43933241   3.939   0.660   8.048 -0.7184 -0.6001  0.1016
   72MOL   C44033242   3.871   0.552   8.110  0.7587  0.7587  0.2311
   72MOL   C44133243   3.757   0.501   8.022 -0.5372 -0.5676 -0.4772
   72MOL   O44233244   3.717   0.378   8.066  0.2865 -0.3425 -0.2102
   72MOL   C44333245   3.595   0.350   8.107  0.5492  0.2774  0.4652
   72MOL   O44433246   3.498   0.431   8.116  0.3578 -0.6899  0.1208
   72MOL   C44533247   3.578   0.203   8.139  0.5981 -0.5598  0.6943
   72MOL   C44633248   3.676   0.110   8.093 -1.3581 -0.6342 -0.6132
   72MOL   C44733249   3.657   8.252   8.134 -0.5885 -0.2066 -0.1831
   72MOL   C44833250   3.544   8.213   8.211  0.1624 -0.2140  0.6745
   72MOL   C44933251   3.529   8.068   8.259  0.2599 -0.5479  0.1926
   72MOL   O45033252   3.423   8.020   0.032 -0.3077  0.2515 -0.0748
   72MOL   O45133253   3.643   7.997   8.234  0.2822 -0.2526 -0.4963
   72MOL   C45233254   3.452   0.034   8.251 -0.1184  0.2635  0.2894
   72MOL   C45333255   3.470   0.168   8.219 -0.3075  0.5143  0.3003
   72MOL   H45433256   3.942   0.472   8.128  0.4889  0.3528 -0.5085
   72MOL   H45533257   3.826   0.591   8.201  1.4639  0.9315  0.5088
   72MOL   H45633258   3.798   0.487   7.922  1.1500  2.4612 -0.2932
   72MOL   H45733259   3.677   0.575   8.018  0.4164  0.4733 -0.7171
   72MOL   H45833260   3.760   0.146   8.035 -2.2746  1.6741 -0.5678
   72MOL   H45933261   3.727   8.175   8.106  0.5927  1.7225 -2.6934
   72MOL   H46033262   3.369   0.015   0.043  0.3686 -1.3527  0.4643
   72MOL   H46133263   3.393   0.237   8.252  0.1417  0.0802  2.3276
   72MOL   H46233264   3.611   7.908   8.225 -2.0904  0.2823  1.9242
   73MOL     O133265   0.247   8.134   7.655 -0.3528  0.4638  0.8952
   73MOL     C233266   0.261   8.162   7.514 -0.3229  0.3011  0.2898
   73MOL     C333267   0.200   0.025   7.489  0.2197 -0.0844  0.2727
   73MOL     O433268   0.061   0.005   7.461  0.1514  0.5808 -0.1959
   73MOL     C533269   8.244   0.027   7.552  0.6314 -0.1492 -0.3891
   73MOL     O633270   0.003   0.050   7.669  0.2086 -0.0654 -0.1273
   73MOL     C733271   8.105   0.013   7.498 -0.8567 -0.1927  0.4970
   73MOL     C833272   8.073   8.265   7.359  0.0202  0.0291 -0.4474
   73MOL     C933273   7.934   8.246   7.319  0.1649  0.0825  0.2034
   73MOL    C1033274   7.828   8.252   7.418 -0.2937 -0.1536 -0.2375
   73MOL    C1133275   7.686   8.250   7.376 -0.9339  0.0554  0.7440
   73MOL    O1233276   7.588   8.258   7.455 -0.2491 -0.0214  0.2966
   73MOL    O1333277   7.668   8.253   7.241  0.4576  0.2688  0.6390
   73MOL    C1433278   7.859   8.272   7.554 -0.1723  0.1519  0.1437
   73MOL    C1533279   7.994   0.016   7.590  0.6148 -0.3726 -0.2181
   73MOL    H1633280   0.366   8.167   7.489 -0.2468  1.0540  0.7511
   73MOL    H1733281   0.211   8.079   7.464  1.7358 -0.2674 -0.8463
   73MOL    H1833282   0.240   0.064   7.396  0.2453  0.3237  0.4566
   73MOL    H1933283   0.221   0.088   7.575  0.0182 -0.2431  0.4380
   73MOL    H2033284   8.148   8.256   7.281 -1.0094 -3.3907 -1.1440
   73MOL    H2133285   7.909   8.226   7.216 -1.3830 -0.6979  0.7238
   73MOL    H2233286   7.784   0.010   7.630  1.0436  1.5057  1.1436
   73MOL    H2333287   8.015   0.032   7.695 -1.4015 -1.1447  0.3327
   73MOL    H2433288   0.157   8.140   7.683 -1.0863  1.8440 -1.6014
   73MOL    O2533289   7.523   0.009   7.203 -0.0366  0.3148 -0.3169
   73MOL    C2633290   7.505   0.148   7.164  0.1040 -0.5205  0.4563
   73MOL    C2733291   7.363   0.177   7.123  0.0336 -0.0048  0.3875
   73MOL    O2833292   7.329   0.076   7.030  0.1061  0.4622  0.1516
   73MOL    C2933293   7.198   0.043   7.020 -0.3616  0.1865  0.1644
   73MOL    O3033294   7.118   0.129   7.055 -0.0141 -0.0395  0.7469
   73MOL    C3133295   7.167   8.190   6.947 -0.3024  0.1289  1.1732
   73MOL    C3233296   7.258   8.085   6.939  0.1306 -0.0156  0.1994
   73MOL    C3333297   7.238   7.970   6.870  0.0702  0.6705  0.5612
   73MOL    C3433298   7.110   7.945   6.807  0.0650 -0.2109  0.5858
   73MOL    C3533299   7.083   7.821   6.729 -0.2545  0.4533 -0.1329
   73MOL    O3633300   7.171   7.749   6.687 -0.7221 -0.6070 -0.6782
   73MOL    O3733301   6.953   7.799   6.706 -0.2174  0.2701 -0.1558
   73MOL    C3833302   7.007   8.046   6.827 -0.4840 -0.1791  0.1092
   73MOL    C3933303   7.041   8.170   6.888  0.2621 -0.8376 -0.7155
   73MOL    H4033304   7.536   0.207   7.251  0.1675 -0.3546  0.3205
   73MOL    H4133305   7.571   0.183   7.085 -0.6423  0.5785  0.3128
   73MOL    H4233306   7.336   0.276   7.086  1.0616 -0.5406 -1.8545
   73MOL    H4333307   7.296   0.160   7.208  0.8106  0.0080  1.0156
   73MOL    H4433308   7.349   8.100   6.995  0.9994 -1.8079 -0.7403
   73MOL    H4533309   7.311   7.893   6.851 -0.7478 -0.2719  1.1637
   73MOL    H4633310   6.908   8.019   6.794 -0.9364  1.9666 -0.3555
   73MOL    H4733311   6.957   8.236   6.904 -0.2286 -1.6526  0.1503
   73MOL    O4833312   6.927   7.686   6.614 -0.2614  0.2337 -0.1154
   73MOL    C4933313   6.899   7.573   6.692 -0.7105  0.2412 -0.5386
   73MOL    C5033314   6.790   7.487   6.633  0.2822 -0.4360 -0.0471
   73MOL    O5133315   6.671   7.563   6.629 -0.1916 -0.7449 -0.5663
   73MOL    C5233316   6.596   7.592   6.736  0.0145  0.0892 -0.1538
   73MOL    O5333317   6.606   7.524   6.835  0.3190  0.2396 -0.8354
   73MOL    C5433318   6.507   7.708   6.731  0.7699  0.4060 -0.3949
   73MOL    C5533319   6.489   7.775   6.607  0.2073  0.3304 -0.9011
   73MOL    C5633320   6.395   7.880   6.601 -0.1990  0.1580  0.0839
   73MOL    C5733321   6.325   7.920   6.719 -0.7604 -0.1120  0.9070
   73MOL    C5833322   6.236   8.033   6.724  0.2400 -0.1224  1.1755
   73MOL    O5933323   6.184   8.076   6.823 -0.4092  0.0401  0.1361
   73MOL    O6033324   6.196   8.070   6.602 -0.3558  0.0244  0.8075
   73MOL    C6133325   6.342   7.848   6.837 -0.2194 -0.4939  0.8027
   73MOL    C6233326   6.428   7.737   6.841  0.1185  0.2748  0.6273
   73MOL    H6333327   6.982   7.505   6.707 -0.5347  0.4778 -0.4372
   73MOL    H6433328   6.877   7.610   6.792 -0.8715  0.9700 -0.8401
   73MOL    H6533329   6.757   7.404   6.695  1.8313  0.0980  1.5145
   73MOL    H6633330   6.821   7.452   6.534  1.3066  2.4929 -0.8121
   73MOL    H6733331   6.545   7.744   6.520 -1.1131 -0.0921 -1.6196
   73MOL    H6833332   6.383   7.925   6.504 -0.2270 -2.4757 -1.1977
   73MOL    H6933333   6.281   7.879   6.920 -0.9171  1.3302 -0.3694
   73MOL    H7033334   6.434   7.680   6.933  0.3109 -1.6378 -0.5280
   73MOL    O7133335   6.089   8.173   6.594  0.0434 -0.3451 -0.9775
   73MOL    C7233336   5.961   8.102   6.575  0.0777  0.1128 -0.2816
   73MOL    C7333337   5.940   8.001   6.463  0.1269  0.0060  0.8301
   73MOL    O7433338   5.986   7.870   6.492  0.2032  0.3526 -0.8002
   73MOL    C7533339   5.963   7.782   6.389  0.2937 -0.3633  0.2797
   73MOL    O7633340   5.869   7.788   6.307  0.1584  0.0407 -0.1761
   73MOL    C7733341   6.048   7.651   6.396  0.8845 -0.3048  0.1780
   73MOL    C7833342   6.143   7.636   6.491 -0.6959  0.2137 -0.1363
   73MOL    C7933343   6.224   7.517   6.495 -0.3604 -0.0001 -0.4262
   73MOL    C8033344   6.208   7.423   6.397  0.0484 -0.2960 -0.0754
   73MOL    C8133345   6.300   7.302   6.392 -0.6587  1.1476 -0.4425
   73MOL    O8233346   6.282   7.213   6.310 -0.1291 -1.0144 -0.3455
   73MOL    O8333347   6.404   7.310   6.482  0.2547  0.0447  0.5233
   73MOL    C8433348   6.107   7.439   6.300  0.7966 -0.8543 -0.4078
   73MOL    C8533349   6.022   7.554   6.302  0.3362  0.5004 -0.0410
   73MOL    H8633350   5.944   8.051   6.669  0.1152 -0.5849 -0.6462
   73MOL    H8733351   5.887   8.181   6.563  1.5755  1.5476 -0.3917
   73MOL    H8833352   6.002   8.033   6.379  0.3443 -0.5210  0.7870
   73MOL    H8933353   5.835   8.000   6.435  0.9749  0.9852 -2.7313
   73MOL    H9033354   6.153   7.710   6.569 -1.1609  1.5043 -1.2865
   73MOL    H9133355   6.297   7.501   6.572 -1.1753 -1.8397 -0.0116
   73MOL    H9233356   6.090   7.350   6.241  1.1812 -0.1094 -1.6389
   73MOL    H9333357   5.939   7.554   6.233  0.7148 -0.6479 -0.5140
   73MOL    O9433358   6.503   7.198   6.472 -0.1715  0.8419 -0.4286
   73MOL    C9533359   6.618   7.254   6.412  0.1010 -0.4235 -0.3153
   73MOL    C9633360   6.604   7.298   6.254  0.6132 -0.3932 -0.0187
   73MOL    O9733361   6.552   7.425   6.249 -0.6118  0.2677  0.5324
   73MOL    C9833362   6.618   7.541   6.267 -0.3707 -0.2843 -0.4453
   73MOL    O9933363   6.732   7.553   6.316 -0.2433  0.0846 -0.1615
   73MOL   C10033364   6.528   7.654   6.238  0.6357  0.5653 -0.2901
   73MOL   C10133365   6.411   7.642   6.159  0.4482 -0.2052  0.3898
   73MOL   C10233366   6.326   7.749   6.125 -0.7644 -0.4071  0.3712
   73MOL   C10333367   6.359   7.876   6.176  0.3588 -0.0110  0.7023
   73MOL   C10433368   6.283   8.004   6.146  0.4483  0.2954 -0.0392
   73MOL   O10533369   6.173   8.002   6.088  0.3140  0.2885  0.0021
   73MOL   O10633370   6.334   8.119   6.196  0.3787  0.3782  0.4007
   73MOL   C10733371   6.478   7.893   6.250 -0.1381 -0.0039  0.6215
   73MOL   C10833372   6.566   7.783   6.274  0.1310  0.1277  0.4729
   73MOL   H10933373   6.642   7.342   6.471  1.6936 -0.3347 -1.0682
   73MOL   H11033374   6.699   7.183   6.431 -0.0418 -0.3614  0.5153
   73MOL   H11133375   6.536   7.228   6.205 -0.2850  1.4232 -1.4437
   73MOL   H11233376   6.698   7.293   6.200  0.9241 -0.5392  0.5397
   73MOL   H11333377   6.388   7.550   6.108  1.9269  0.5594 -1.7484
   73MOL   H11433378   6.243   7.749   6.056  0.5461  0.7246 -1.2659
   73MOL   H11533379   6.521   7.990   6.272  0.2340  0.1437 -0.6894
   73MOL   H11633380   6.656   7.804   6.329 -0.6611 -0.3537  2.0005
   73MOL   O11733381   6.250   8.235   6.190 -0.0361  0.1063  0.1404
   73MOL   C11833382   6.211   8.274   6.325  0.2626  0.3153  0.4547
   73MOL   C11933383   6.334   0.030   6.415  0.0008  0.4163 -0.0929
   73MOL   O12033384   6.277   0.104   6.521  0.1029 -0.0284  0.1239
   73MOL   C12133385   6.307   0.231   6.528 -0.1298 -0.2945  0.1205
   73MOL   O12233386   6.380   0.289   6.450  0.1214 -0.1763 -0.7917
   73MOL   C12333387   6.248   0.291   6.657  0.1496 -0.8374  0.3070
   73MOL   C12433388   6.264   0.428   6.683 -0.1197  0.1631 -0.0024
   73MOL   C12533389   6.215   0.484   6.800  0.2578  0.1858  0.6829
   73MOL   C12633390   6.144   0.406   6.891 -0.2528 -0.3047  0.5704
   73MOL   C12733391   6.104   0.471   7.020  0.3623 -0.1633 -0.4221
   73MOL   O12833392   6.108   0.591   7.029 -0.3538 -0.0041  0.3575
   73MOL   O12933393   6.062   0.380   7.111  0.0206 -0.3381 -0.4800
   73MOL   C13033394   6.135   0.266   6.865 -0.2668 -0.0942  0.0616
   73MOL   C13133395   6.184   0.210   6.748  0.0118  0.0698 -0.2486
   73MOL   H13233396   6.147   0.085   6.342  0.0297  0.1285  0.5276
   73MOL   H13333397   6.149   8.195   6.367  0.7291  0.3648  1.2620
   73MOL   H13433398   6.418   0.079   6.367  0.0375  0.5387  0.0972
   73MOL   H13533399   6.375   8.221   6.470 -0.4966 -2.2438 -3.5873
   73MOL   H13633400   6.308   0.497   6.613 -1.5691  0.5721 -0.5301
   73MOL   H13733401   6.222   0.590   6.820  0.1055  0.5202 -0.9822
   73MOL   H13833402   6.085   0.199   6.934 -0.3488  1.1694  1.2487
   73MOL   H13933403   6.188   0.102   6.748  1.7756  0.0960  2.0176
   73MOL   O14033404   6.035   0.442   7.242  0.2856  0.1232 -0.6349
   73MOL   C14133405   5.901   0.435   7.259  0.9005  0.4546 -0.9286
   73MOL   C14233406   5.872   0.314   7.355  0.0351 -0.4284  0.1924
   73MOL   O14333407   5.880   0.189   7.283  0.2021  0.7621  0.0212
   73MOL   C14433408   5.895   0.075   7.348 -1.1759  0.5686 -0.4138
   73MOL   O14533409   5.904   0.064   7.470  0.0550  0.0402 -0.6107
   73MOL   C14633410   5.895   8.237   7.250  0.0962  0.0493 -0.0895
   73MOL   C14733411   5.891   8.108   7.298 -0.3429  0.8688  0.3297
   73MOL   C14833412   5.892   7.998   7.210 -0.2800 -0.2499 -0.0203
   73MOL   C14933413   5.892   8.020   7.073  0.5377  0.2691 -0.0860
   73MOL   C15033414   5.890   7.902   6.986  0.5975  0.3202  0.4418
   73MOL   O15133415   5.920   7.908   6.869 -0.5415  0.1780 -0.0125
   73MOL   O15233416   5.862   7.781   7.053  0.0078 -0.0407  0.1772
   73MOL   C15333417   5.893   8.154   7.018 -0.9966 -0.1019 -0.2379
   73MOL   C15433418   5.898   8.259   7.107  0.0393 -0.2181 -0.2211
   73MOL   H15533419   5.871   0.518   7.322  3.7233  1.3320 -0.6906
   73MOL   H15633420   5.840   0.432   7.168  1.3500 -0.2165 -1.2131
   73MOL   H15733421   5.775   0.319   7.405  0.4241  0.1902  0.8997
   73MOL   H15833422   5.946   0.313   7.435  3.4854  0.3370 -2.8513
   73MOL   H15933423   5.894   8.092   7.405 -3.5916  1.2672  0.5330
   73MOL   H16033424   5.895   7.908   7.270  2.1497 -0.2093 -0.0392
   73MOL   H16133425   5.910   8.175   6.913  0.5527 -1.4927 -0.2850
   73MOL   H16233426   5.906   0.081   7.062 -1.4190 -0.5287 -1.1802
   73MOL   O16333427   5.869   7.659   6.973  0.0230 -0.0799 -0.0577
   73MOL   C16433428   5.998   7.604   6.976 -0.2765 -0.3782  0.5480
   73MOL   C16533429   6.044   7.559   6.836  0.0740  0.5696  0.6179
   73MOL   O16633430   5.958   7.459   6.780  0.4452  0.2385  0.4263
   73MOL   C16733431   5.876   7.483   6.674  0.5334  0.4225 -0.5511
   73MOL   O16833432   5.849   7.591   6.629 -0.4130  0.3797 -0.7661
   73MOL   C16933433   5.823   7.362   6.612  0.2561 -0.1643  0.0475
   73MOL   C17033434   5.753   7.368   6.491  1.1430 -0.3489  0.7060
   73MOL   C17133435   5.706   7.250   6.435 -0.1679  0.1537 -0.2455
   73MOL   C17233436   5.726   7.128   6.493  0.3817 -0.2539 -0.0919
   73MOL   C17333437   5.672   7.007   6.437  0.4917  0.2462  0.0990
   73MOL   O17433438   5.667   6.905   6.501  0.1670 -0.1371 -0.6356
   73MOL   O17533439   5.605   7.022   6.316 -0.2265 -0.5469 -0.5745
   73MOL   C17633440   5.807   7.127   6.608 -0.3509  0.6503 -0.0912
   73MOL   C17733441   5.860   7.241   6.673 -0.1222  0.8781  0.2347
   73MOL   H17833442   6.069   7.662   7.034 -1.2920  1.4449 -0.0044
   73MOL   H17933443   5.987   7.518   7.041  2.9494 -0.0608  1.5762
   73MOL   H18033444   6.148   7.526   6.837 -0.3195 -0.7999 -1.4738
   73MOL   H18133445   6.040   7.653   6.781  0.5932 -0.0425 -0.4709
   73MOL   H18233446   5.728   7.463   6.446  1.7409 -1.6347 -2.4525
   73MOL   H18333447   5.650   7.253   6.343  0.1492 -0.8320 -0.4879
   73MOL   H18433448   5.830   7.035   6.660 -0.0520  0.1806 -1.0510
   73MOL   H18533449   5.916   7.223   6.763  0.0069 -1.8518 -0.3327
   73MOL   O18633450   5.545   6.895   6.260 -0.0764  0.1878 -0.3391
   73MOL   C18733451   5.405   6.880   6.301 -0.9389  0.3789 -0.1192
   73MOL   C18833452   5.347   6.751   6.233 -0.3582 -0.4744  0.7262
   73MOL   O18933453   5.214   6.711   6.261  0.2984 -0.1982  0.2772
   73MOL   C19033454   5.198   6.653   6.381  0.5311  0.9142 -0.5105
   73MOL   O19133455   5.285   6.652   6.467 -1.0973  0.0405  0.7776
   73MOL   C19233456   5.059   6.602   6.408 -0.9084  0.3653  0.1453
   73MOL   C19333457   4.956   6.610   6.310 -0.0839 -0.1876  0.4495
   73MOL   C19433458   4.835   6.534   6.321  0.1818  0.2809 -0.1016
   73MOL   C19533459   4.818   6.448   6.433  0.3254 -0.0586  0.3662
   73MOL   C19633460   4.698   6.361   6.432 -0.1047  0.4355  0.2411
   73MOL   O19733461   4.598   6.387   6.371 -0.1077 -0.0248 -0.1297
   73MOL   O19833462   4.715   6.260   6.517 -0.2094 -0.0560  0.1111
   73MOL   C19933463   4.918   6.451   6.533 -0.0891 -0.8864  0.4310
   73MOL   C20033464   5.040   6.527   6.525  0.0680 -0.8939 -0.4060
   73MOL   H20133465   5.402   6.858   6.408 -2.1756 -0.9428 -0.4084
   73MOL   H20233466   5.344   6.969   6.290 -0.7087  0.4867 -0.5351
   73MOL   H20333467   5.413   6.668   6.259  1.3056  0.8099  0.6613
   73MOL   H20433468   5.360   6.759   6.125  0.0252  0.6199  0.8486
   73MOL   H20533469   4.977   6.663   6.218  1.2350 -0.8128  0.3694
   73MOL   H20633470   4.767   6.529   6.238 -1.7892 -1.6194  1.5873
   73MOL   H20733471   4.912   6.375   6.610  1.3168 -1.0430  0.3977
   73MOL   H20833472   5.116   6.518   6.600  0.0085  2.3650  0.0871
   73MOL   O20933473   4.614   6.162   6.519 -0.1965  0.1472  0.2467
   73MOL   C21033474   4.528   6.192   6.624  0.4449 -0.0198 -0.4264
   73MOL   C21133475   4.428   6.074   6.650  0.2714  0.0544  0.2910
   73MOL   O21233476   4.303   6.094   6.576 -0.0704  0.6424 -0.2537
   73MOL   C21333477   4.272   6.019   6.475 -0.3283  0.2927  0.0509
   73MOL   O21433478   4.320   5.908   6.452 -0.3360  0.3733  0.0794
   73MOL   C21533479   4.153   6.082   6.400 -0.3734 -0.8601  0.4506
   73MOL   C21633480   4.063   6.004   6.326  1.0637  0.4931  0.0457
   73MOL   C21733481   3.940   6.054   6.277 -0.4074 -0.6083 -0.1718
   73MOL   C21833482   3.904   6.188   6.297 -0.1000  0.2019  0.2750
   73MOL   C21933483   3.779   6.249   6.243  0.0211 -0.0749 -0.4634
   73MOL   O22033484   3.770   6.366   6.212 -0.1425  0.1460  0.3396
   73MOL   O22133485   3.676   6.162   6.240  0.2192 -0.4743  0.6806
   73MOL   C22233486   3.989   6.271   6.375  0.9204  0.6013 -0.8879
   73MOL   C22333487   4.113   6.217   6.424  0.5617  0.1167  0.0039
   73MOL   H22433488   4.590   6.188   6.713 -2.5788 -2.8237  1.6799
   73MOL   H22533489   4.482   6.290   6.613 -0.1361 -0.4866 -2.4293
   73MOL   H22633490   4.397   6.066   6.754  0.5836  1.0550  0.4641
   73MOL   H22733491   4.469   5.975   6.630 -0.5997  0.0794 -1.8172
   73MOL   H22833492   4.087   5.899   6.314  0.4246  0.3099  0.3327
   73MOL   H22933493   3.869   5.992   6.223  0.4724 -1.4879 -0.3241
   73MOL   H23033494   3.974   6.378   6.382 -1.4381  0.1964  0.8161
   73MOL   H23133495   4.172   6.281   6.489  1.2224 -0.0312 -0.4508
   73MOL   O23233496   3.559   6.232   6.186 -0.1488 -0.2713  0.4623
   73MOL   C23333497   3.454   6.228   6.283 -0.1104  0.5351 -0.0996
   73MOL   C23433498   3.351   6.325   6.220  0.7609  0.0759 -0.0684
   73MOL   O23533499   3.268   6.266   6.121  0.1824 -0.2010  0.1353
   73MOL   C23633500   3.147   6.211   6.149  0.5074  0.3470 -1.0551
   73MOL   O23733501   3.106   6.182   6.263 -0.0759  0.4060 -0.4437
   73MOL   C23833502   3.072   6.192   6.023 -0.5179 -0.2310 -0.7940
   73MOL   C23933503   3.076   6.278   5.914  0.1481  0.2602 -0.4712
   73MOL   C24033504   2.994   6.248   5.802 -0.0473 -0.1927 -0.6163
   73MOL   C24133505   2.917   6.128   5.789 -0.2980 -0.9839 -0.2169
   73MOL   C24233506   2.827   6.107   5.672 -0.4135 -0.6762 -1.1915
   73MOL   O24333507   2.741   6.014   5.663 -0.6215  0.4187  0.2905
   73MOL   O24433508   2.856   6.191   5.567  0.4115  0.3202 -0.0968
   73MOL   C24533509   2.926   6.031   5.893  0.4956  0.0595  0.0450
   73MOL   C24633510   3.001   6.062   6.010 -1.2220  0.4890 -0.4623
   73MOL   H24733511   3.418   6.129   6.310 -0.5117  1.1287  1.6143
   73MOL   H24833512   3.493   6.271   6.376 -1.2273  1.6023 -0.1013
   73MOL   H24933513   3.394   6.411   6.170 -0.0699  0.3625 -0.3078
   73MOL   H25033514   3.292   6.362   6.304 -0.9125  1.2991 -1.7392
   73MOL   H25133515   3.130   6.371   5.917  1.0851 -0.2360 -1.6433
   73MOL   H25233516   2.997   6.317   5.719 -1.5024  0.2598 -0.3099
   73MOL   H25333517   2.871   5.939   5.876 -0.0292  0.5620 -1.0116
   73MOL   H25433518   2.996   5.983   6.084 -3.0626 -0.8655 -1.9963
   73MOL   O25533519   2.766   6.186   5.448  0.1541  0.2264 -0.4008
   73MOL   C25633520   2.687   6.307   5.440  0.7386 -0.4826  0.2079
   73MOL   C25733521   2.636   6.344   5.300 -0.6618  0.2331  0.1631
   73MOL   O25833522   2.530   6.251   5.262 -0.8988 -0.0552  0.2222
   73MOL   C25933523   2.563   6.119   5.220  0.4266 -0.0220  0.5872
   73MOL   O26033524   2.677   6.080   5.216 -0.0978 -0.2839  0.2447
   73MOL   C26133525   2.449   6.042   5.165 -0.0635 -1.1702  0.1099
   73MOL   C26233526   2.465   5.901   5.163 -0.2691 -0.0621 -0.2447
   73MOL   C26333527   2.361   5.814   5.121  0.1482  0.0050 -0.2657
   73MOL   C26433528   2.234   5.869   5.087 -0.0591 -0.3200  0.5765
   73MOL   C26533529   2.123   5.784   5.039 -0.3559 -0.7979  0.1853
   73MOL   O26633530   2.016   5.782   5.094 -0.0735  0.6275  0.4606
   73MOL   O26733531   2.150   5.705   4.932  0.0975  0.5905  0.6416
   73MOL   C26833532   2.222   6.014   5.090 -0.4853  0.0631 -0.8981
   73MOL   C26933533   2.328   6.102   5.128 -0.1624 -0.2916  0.1443
   73MOL   H27033534   2.603   6.309   5.510  0.6983  2.3706  0.1287
   73MOL   H27133535   2.760   6.377   5.482  0.3095  1.2164 -1.8462
   73MOL   H27233536   2.725   6.335   5.238  0.3997 -1.5283  1.8719
   73MOL   H27333537   2.607   6.449   5.296  1.4280  0.7849 -1.6474
   73MOL   H27433538   2.555   5.844   5.179 -0.5567 -0.4197  0.1116
   73MOL   H27533539   2.377   5.708   5.108 -3.6920 -0.8939  1.7811
   73MOL   H27633540   2.121   6.052   5.078 -0.5640 -0.1691 -0.9817
   73MOL   H27733541   2.305   6.206   5.146 -0.3359 -0.4429  0.7803
   73MOL   O27833542   2.052   5.595   4.923 -0.0333 -0.0084  0.8317
   73MOL   C27933543   2.104   5.474   4.977 -0.4496 -0.5561  0.1855
   73MOL   C28033544   2.203   5.410   4.880  0.1138  0.2964  0.4922
   73MOL   O28133545   2.332   5.461   4.895 -0.4566 -0.0985  0.4455
   73MOL   C28233546   2.429   5.392   4.953 -1.0795 -0.5091  0.4699
   73MOL   O28333547   2.418   5.275   4.995 -0.0002 -0.6889 -0.4628
   73MOL   C28433548   2.552   5.478   4.961  0.9798 -0.7061  0.4865
   73MOL   C28533549   2.658   5.438   5.042 -0.2936  0.3134 -0.1159
   73MOL   C28633550   2.774   5.516   5.055 -0.3783  0.8238 -0.6350
   73MOL   C28733551   2.804   5.626   4.968 -0.0625 -0.0702  0.2827
   73MOL   C28833552   2.946   5.691   4.960  0.8211 -0.1516  0.7234
   73MOL   O28933553   2.978   5.760   4.867  0.5344  0.1223  0.5447
   73MOL   O29033554   3.021   5.672   5.067 -0.0383  0.4060  0.1165
   73MOL   C29133555   2.702   5.658   4.870 -0.0559 -0.1998  0.1668
   73MOL   C29233556   2.576   5.589   4.867  0.4785 -0.0653 -0.8521
   73MOL   H29333557   2.155   5.503   5.069 -1.0022  0.0667  0.2928
   73MOL   H29433558   2.020   5.410   5.002 -0.7376 -0.0501  0.4916
   73MOL   H29533559   2.168   5.416   4.776 -1.4942  2.0322  1.0965
   73MOL   H29633560   2.205   5.303   4.901  0.9169  0.3271  0.5838
   73MOL   H29733561   2.655   5.354   5.110 -2.0497  0.5660  0.1371
   73MOL   H29833562   2.845   5.484   5.130  1.1436  0.1894 -2.2931
   73MOL   H29933563   2.726   5.738   4.801  1.9913 -1.6251 -0.8326
   73MOL   H30033564   2.501   5.622   4.797  0.5560 -0.4235 -1.1044
   73MOL   O30133565   3.156   5.735   5.042 -0.4478  0.6454  0.1233
   73MOL   C30233566   3.248   5.636   5.067  0.1425  0.3165 -0.6665
   73MOL   C30333567   3.386   5.695   5.066  0.3275  0.1752 -0.9622
   73MOL   O30433568   3.503   5.610   5.072 -0.1378  0.1434 -0.3156
   73MOL   C30533569   3.550   5.566   5.190 -0.4066 -0.3895  0.2785
   73MOL   O30633570   3.473   5.546   5.283  0.1024  0.7740 -0.6309
   73MOL   C30733571   3.698   5.554   5.193 -0.4607  0.3390 -0.2938
   73MOL   C30833572   3.778   5.588   5.086  0.1422 -0.1129  0.5554
   73MOL   C30933573   3.918   5.587   5.087 -0.6829  0.2619  0.1002
   73MOL   C31033574   3.981   5.534   5.201 -0.1471  0.3603 -0.0989
   73MOL   C31133575   4.127   5.513   5.198 -0.4451 -0.4422 -0.6627
   73MOL   O31233576   4.204   5.556   5.110  0.3821  0.0935 -0.2092
   73MOL   O31333577   4.157   5.431   5.305 -0.1709  0.1459 -0.0585
   73MOL   C31433578   3.900   5.495   5.319  0.4529 -0.1454  0.0864
   73MOL   C31533579   3.760   5.505   5.310  0.1115  0.3409 -0.6041
   73MOL   H31633580   3.224   5.598   5.166 -0.5164 -1.6314 -1.5481
   73MOL   H31733581   3.227   5.544   5.013 -2.0477 -0.1250  0.8560
   73MOL   H31833582   3.408   5.757   5.153 -1.6889 -1.6145  0.8556
   73MOL   H31933583   3.383   5.767   4.984 -0.4476  1.5741  0.2767
   73MOL   H32033584   3.735   5.631   4.997  1.2277 -2.6100 -1.2328
   73MOL   H32133585   3.978   5.605   4.999 -2.1394 -1.2827 -1.2354
   73MOL   H32233586   3.938   5.453   5.411 -0.3614  0.6153  0.7778
   73MOL   H32333587   3.697   5.490   5.397 -0.5792 -0.9037 -1.3179
   73MOL   O32433588   4.300   5.407   5.341  0.4775 -0.7428  0.6744
   73MOL   C32533589   4.357   5.512   5.417  0.0569  0.2676  0.1878
   73MOL   C32633590   4.471   5.440   5.495  0.2216  0.1080  0.8213
   73MOL   O32733591   4.409   5.359   5.598 -0.2453  0.4898 -0.4949
   73MOL   C32833592   4.372   5.415   5.708 -0.1365  0.3209  0.6051
   73MOL   O32933593   4.377   5.535   5.726 -0.3337  0.1000 -0.0710
   73MOL   C33033594   4.315   5.318   5.806 -0.8924  0.4996 -0.2436
   73MOL   C33133595   4.350   5.184   5.813  0.4722 -0.1091  0.4144
   73MOL   C33233596   4.280   5.094   5.894 -0.1605  0.1723 -0.0378
   73MOL   C33333597   4.168   5.140   5.973  0.3948 -0.7238 -0.5130
   73MOL   C33433598   4.089   5.042   6.052  0.2282  0.0608  0.0370
   73MOL   O33533599   4.086   4.921   6.030  0.1811  0.1475 -0.2187
   73MOL   O33633600   4.015   5.097   6.145  0.3538  0.1431 -0.0580
   73MOL   C33733601   4.137   5.279   5.969  0.2329  0.1229 -0.1483
   73MOL   C33833602   4.208   5.368   5.883  0.7948  0.6443 -0.8631
   73MOL   H33933603   4.392   5.583   5.342 -1.3949  0.5966 -0.1848
   73MOL   H34033604   4.290   5.567   5.483  0.4848  1.9547 -0.7340
   73MOL   H34133605   4.541   5.521   5.514 -0.4711  1.2901 -1.4181
   73MOL   H34233606   4.518   5.375   5.422  0.0509  1.4817 -0.5507
   73MOL   H34333607   4.438   5.148   5.761  0.2660  1.4845 -1.0870
   73MOL   H34433608   4.306   4.990   5.895  0.8845  0.4223  0.0186
   73MOL   H34533609   4.043   5.316   6.006 -0.3781 -2.0306  0.5768
   73MOL   H34633610   4.172   5.466   5.856 -0.7827  0.2722 -0.1788
   73MOL   O34733611   3.911   5.002   6.213 -0.0412  0.1733  0.3909
   73MOL   C34833612   3.958   4.974   6.347  0.2066 -0.7454  0.3223
   73MOL   C34933613   4.057   4.861   6.337  0.2623  0.5362 -0.1366
   73MOL   O35033614   4.057   4.789   6.466 -0.4459  0.5088 -0.1614
   73MOL   C35133615   4.092   4.849   6.580 -0.0354  0.6179 -0.6498
   73MOL   O35233616   4.140   4.965   6.586 -0.0594 -0.1252 -0.1569
   73MOL   C35333617   4.073   4.764   6.702  0.0232 -0.6350  0.4100
   73MOL   C35433618   4.126   4.813   6.825 -0.6442 -0.0874 -0.1962
   73MOL   C35533619   4.109   4.743   6.939  0.0971 -0.3487  0.3571
   73MOL   C35633620   4.039   4.618   6.938 -0.1699  0.3815  1.3322
   73MOL   C35733621   4.022   4.542   7.064  0.4503 -0.0470 -0.4329
   73MOL   O35833622   3.984   4.424   7.063  0.1154 -0.3436  0.6719
   73MOL   O35933623   4.039   4.618   7.177 -0.1160 -1.0235 -0.6120
   73MOL   C36033624   3.986   4.573   6.822 -1.4236  0.4775  0.0963
   73MOL   C36133625   4.003   4.640   6.702 -0.2763 -0.5658  0.8181
   73MOL   H36233626   4.009   5.065   6.380 -0.9606 -0.2835  0.8856
   73MOL   H36333627   3.869   4.959   6.407 -0.5366  2.6623  0.1905
   73MOL   H36433628   4.155   4.902   6.313  0.6008  1.4351  2.6055
   73MOL   H36533629   4.031   4.789   6.260 -2.4271  0.9871  0.2759
   73MOL   H36633630   4.169   4.911   6.832 -2.1838  0.6345 -0.6134
   73MOL   H36733631   4.137   4.785   7.035 -1.0254 -0.9616  0.9739
   73MOL   H36833632   3.951   4.471   6.818 -0.6354  0.1586  1.0759
   73MOL   H36933633   3.954   4.603   6.613 -1.5283  0.9057  0.8912
   73MOL   O37033634   3.983   4.554   7.294  1.0381 -0.0138 -0.8790
   73MOL   C37133635   3.839   4.566   7.290 -0.0555  0.5797 -0.4872
   73MOL   C37233636   3.782   4.707   7.312  0.2868 -0.7185  0.6975
   73MOL   O37333637   3.783   4.779   7.184  0.1033  0.0449 -0.4882
   73MOL   C37433638   3.849   4.898   7.168  0.0578 -0.2996  0.1521
   73MOL   O37533639   3.918   4.951   7.253 -0.5066  0.6642  0.3584
   73MOL   C37633640   3.820   4.969   7.037  0.7570  0.6065  0.6801
   73MOL   C37733641   3.836   5.108   7.025 -0.6531  0.8399  0.1946
   73MOL   C37833642   3.808   5.175   6.901  0.2134  0.5869  0.2082
   73MOL   C37933643   3.765   5.102   6.787 -0.0728  0.2532 -0.3870
   73MOL   C38033644   3.719   5.180   6.665 -1.0481 -0.0182  1.3957
   73MOL   O38133645   3.742   5.302   6.649 -0.9383 -0.2699  0.1335
   73MOL   O38233646   3.650   5.110   6.571  0.1263 -0.0386 -0.2242
   73MOL   C38333647   3.757   4.964   6.795  0.1554 -0.7757 -0.1456
   73MOL   C38433648   3.781   4.899   6.917  0.7290  0.4960 -0.0005
   73MOL   H38533649   3.786   4.503   7.219  2.1595 -1.0800 -0.7433
   73MOL   H38633650   3.819   4.508   7.380  0.2656 -0.5611 -1.1303
   73MOL   H38733651   3.819   4.767   7.394 -0.6998  2.7781 -1.3175
   73MOL   H38833652   3.678   4.694   7.342 -0.7694  0.8432 -2.1013
   73MOL   H38933653   3.872   5.176   7.101 -1.8508  2.3226 -0.5315
   73MOL   H39033654   3.826   5.281   6.907  1.5048  0.3310  0.8363
   73MOL   H39133655   3.717   4.905   6.714  1.0421 -1.0569 -0.3816
   73MOL   H39233656   3.777   4.791   6.918 -0.0890  0.5297  1.1321
   73MOL   O39333657   3.581   5.185   6.464 -0.2880 -0.7327  0.6020
   73MOL   C39433658   3.662   5.175   6.343  0.2415  0.3796  0.4920
   73MOL   C39533659   3.644   5.287   6.253  0.0738 -0.2836  0.5810
   73MOL   O39633660   3.719   5.259   6.133  0.2085  0.0418  0.6028
   73MOL   C39733661   3.720   5.351   6.029 -0.6615 -0.5627 -0.0830
   73MOL   O39833662   3.664   5.461   6.035  0.2602  0.2619  0.2969
   73MOL   C39933663   3.790   5.304   5.910 -0.0944  0.3280 -0.1604
   73MOL   C40033664   3.790   5.166   5.871 -0.0370 -0.0068  0.3019
   73MOL   C40133665   3.863   5.126   5.761 -0.1488  0.5692  0.3483
   73MOL   C40233666   3.939   5.214   5.688  1.1045 -0.0739 -0.1970
   73MOL   C40333667   4.023   5.168   5.576 -0.3176  0.5423  0.6061
   73MOL   O40433668   4.110   5.237   5.530 -0.2124  0.5407  0.5492
   73MOL   O40533669   3.998   5.042   5.539 -0.6016 -0.3406 -0.2093
   73MOL   C40633670   3.931   5.351   5.723  0.8616 -0.4032 -0.2297
   73MOL   C40733671   3.854   5.398   5.831  0.1941  0.3877 -0.4589
   73MOL   H40833672   3.770   5.168   6.355  0.2856  0.2239  0.0157
   73MOL   H40933673   3.644   5.077   6.298 -0.5095  0.3783  0.8036
   73MOL   H41033674   3.674   5.378   6.305 -0.4460  0.5274 -0.5246
   73MOL   H41133675   3.536   5.291   6.242  0.1715  2.9363  0.1880
   73MOL   H41233676   3.726   5.094   5.920 -1.4941  1.6339  0.8209
   73MOL   H41333677   3.851   5.024   5.728  0.3232  1.1951 -1.7942
   73MOL   H41433678   3.993   5.422   5.671  1.2129 -1.0577 -0.7127
   73MOL   H41533679   3.861   5.502   5.859 -1.7498  1.0258 -2.1669
   73MOL   O41633680   4.076   4.991   5.422 -0.4142 -0.0502  0.2328
   73MOL   C41733681   4.147   4.875   5.464 -0.7905  0.1369  0.1491
   73MOL   C41833682   4.264   4.904   5.557 -0.5096  0.1317 -0.6611
   73MOL   O41933683   4.357   4.803   5.556 -0.0252  0.3109 -0.4296
   73MOL   C42033684   4.352   4.710   5.657 -0.1049  0.0705 -0.2996
   73MOL   O42133685   4.277   4.729   5.756  0.0432  0.1359  0.0709
   73MOL   C42233686   4.435   4.594   5.628  0.4735 -0.5909 -0.6555
   73MOL   C42333687   4.456   4.554   5.495  0.6549 -0.0842 -0.2454
   73MOL   C42433688   4.512   4.424   5.472 -1.0096 -0.0027  0.3724
   73MOL   C42533689   4.557   4.345   5.576  0.8572  0.2001 -0.2481
   73MOL   C42633690   4.611   4.207   5.556  0.4372  0.5427  0.3034
   73MOL   O42733691   4.605   4.116   5.635 -0.0654  0.2142 -0.7323
   73MOL   O42833692   4.668   4.189   5.431 -0.2719  0.3816 -0.2295
   73MOL   C42933693   4.548   4.397   5.709 -0.9533 -0.2206 -0.5369
   73MOL   C43033694   4.487   4.519   5.735  0.5752  0.5954  0.5393
   73MOL   H43133695   4.083   4.803   5.516 -0.0057  0.7074  1.9371
   73MOL   H43233696   4.179   4.815   5.378 -0.9934 -0.5581  0.5538
   73MOL   H43333697   4.232   4.939   5.655  0.1927 -2.1823  0.4428
   73MOL   H43433698   4.316   4.987   5.508 -0.2379 -0.9173 -2.1945
   73MOL   H43533699   4.429   4.617   5.411  1.5188 -2.2537 -2.2235
   73MOL   H43633700   4.532   4.386   5.373  2.5184  1.9132  0.2829
   73MOL   H43733701   4.583   4.329   5.785 -2.3168 -1.0466 -0.6420
   73MOL   H43833702   4.461   4.542   5.837  0.6174  0.8428  0.4949
   73MOL   O43933703   4.707   4.046   5.401  0.0686  0.1334  0.2809
   73MOL   C44033704   4.592   3.968   5.369 -0.6540 -0.2721  0.1333
   73MOL   C44133705   4.637   3.835   5.308 -0.1806  0.7970  0.5924
   73MOL   O44233706   4.636   3.842   5.163  0.3781  0.2080 -0.5558
   73MOL   C44333707   4.746   3.873   5.092  0.5095 -0.4428 -0.1452
   73MOL   O44433708   4.849   3.909   5.146  0.1280  0.8198 -0.8987
   73MOL   C44533709   4.734   3.839   4.955 -0.4047  0.4143  0.2330
   73MOL   C44633710   4.853   3.839   4.880 -0.8527 -0.3199 -0.5866
   73MOL   C44733711   4.848   3.809   4.744  0.0886  0.4754  0.0549
   73MOL   C44833712   4.727   3.787   4.678 -0.3003  0.0911 -0.6434
   73MOL   C44933713   4.731   3.751   4.536 -0.6343 -0.4452  0.4066
   73MOL   O45033714   4.830   3.771   4.465  0.3340  0.0253 -0.2459
   73MOL   O45133715   4.625   3.684   4.487  0.2996 -0.1173 -0.1927
   73MOL   C45233716   4.608   3.794   4.749 -0.0832 -0.4676 -0.1338
   73MOL   C45333717   4.612   3.816   4.889  0.2597 -0.1920  0.4318
   73MOL   H45433718   4.532   3.937   5.455  0.4831 -1.4278  0.5282
   73MOL   H45533719   4.524   4.024   5.305 -0.0133 -0.8702 -1.0680
   73MOL   H45633720   4.573   3.754   5.345 -1.4281  1.1515 -0.7242
   73MOL   H45733721   4.740   3.825   5.342 -0.3636  1.4195  1.3342
   73MOL   H45833722   4.949   3.861   4.924 -1.7573  2.6868 -0.0409
   73MOL   H45933723   4.940   3.815   4.688  0.2050 -0.8616  0.0908
   73MOL   H46033724   4.517   3.794   4.690 -1.3576 -0.0599  1.7999
   73MOL   H46133725   4.521   3.827   4.946 -1.0571  2.0956 -1.9948
   73MOL   H46233726   4.633   3.690   4.393 -1.6495  0.3740 -0.3447
   74MOL     O133727   0.583   6.873   3.358 -0.6547 -0.3422  0.4818
   74MOL     C233728   0.590   6.861   3.219  1.1212  0.1811  0.6894
   74MOL     C333729   0.490   6.950   3.150 -0.3712  0.0471 -0.4642
   74MOL     O433730   0.497   6.936   3.010  0.9898 -0.6097 -0.1258
   74MOL     C533731   0.422   7.015   2.931 -0.3107  0.4715  0.0636
   74MOL     O633732   0.352   7.106   2.976  0.1490  0.1008  0.8305
   74MOL     C733733   0.434   6.970   2.787 -0.0010  0.0779 -0.4473
   74MOL     C833734   0.488   6.848   2.748 -1.0004  0.7615 -0.2129
   74MOL     C933735   0.497   6.812   2.612  0.2751  0.3216  0.7800
   74MOL    C1033736   0.470   6.911   2.513 -0.2463 -0.8821 -0.0375
   74MOL    C1133737   0.485   6.864   2.370  0.2095  0.2690 -0.1221
   74MOL    O1233738   0.492   6.744   2.334 -0.7159  0.1471  0.1025
   74MOL    O1333739   0.477   6.968   2.280 -0.3994 -0.0552 -0.1848
   74MOL    C1433740   0.427   7.040   2.553  0.5191 -0.0668 -0.2727
   74MOL    C1533741   0.397   7.058   2.693  0.1249  0.3026 -0.1428
   74MOL    H1633742   0.695   6.884   3.198  1.5405 -2.3539 -0.2220
   74MOL    H1733743   0.576   6.755   3.199  1.6190  0.2807 -0.2200
   74MOL    H1833744   0.510   7.055   3.173  2.1081 -0.5340  0.1820
   74MOL    H1933745   0.388   6.923   3.177  0.2689 -1.6911  0.2752
   74MOL    H2033746   0.493   6.780   2.832 -0.6116  0.4276 -0.5020
   74MOL    H2133747   0.544   6.720   2.581 -3.4417 -1.2196 -0.5060
   74MOL    H2233748   0.390   7.116   2.485 -2.4323 -0.9181  0.2889
   74MOL    H2333749   0.343   7.152   2.702  1.0174  0.9706 -1.6248
   74MOL    H2433750   0.509   6.823   3.389 -1.2492 -0.0230 -0.3988
   74MOL    O2533751   0.489   6.927   2.129  0.7784  0.3992  0.3993
   74MOL    C2633752   0.359   6.945   2.070 -0.3513 -0.3195 -0.8375
   74MOL    C2733753   0.256   6.832   2.110  0.5304 -0.0042  0.1943
   74MOL    O2833754   0.129   6.879   2.075 -0.0084  0.5871  0.6436
   74MOL    C2933755   0.076   6.834   1.961  0.2095 -0.4331  0.3197
   74MOL    O3033756   0.128   6.759   1.885  0.1015  0.0593  0.7617
   74MOL    C3133757   8.211   6.887   1.936  0.3598  0.1108  0.3449
   74MOL    C3233758   8.148   6.920   1.813 -0.7106  0.0349  0.6358
   74MOL    C3333759   8.015   6.969   1.809 -0.5210  0.2039 -0.1850
   74MOL    C3433760   7.942   6.983   1.937  0.0105 -0.8846  0.1724
   74MOL    C3533761   7.800   7.032   1.928 -0.3107  0.9998  0.1937
   74MOL    O3633762   7.758   7.101   1.835  0.7870  0.0748  0.3597
   74MOL    O3733763   7.719   6.997   2.031 -0.3786  0.5168  0.0913
   74MOL    C3833764   8.010   6.958   2.055 -0.4781 -0.3995  0.3038
   74MOL    C3933765   8.138   6.906   2.059  0.7879  0.2866 -0.3322
   74MOL    H4033766   0.329   7.049   2.088 -0.2378 -0.5647  0.8393
   74MOL    H4133767   0.375   6.921   1.965 -0.8260 -1.0936 -0.7415
   74MOL    H4233768   0.261   6.826   2.218  3.7706  0.3999  0.1187
   74MOL    H4333769   0.283   6.733   2.074 -0.3651  0.6076 -2.2597
   74MOL    H4433770   8.199   6.916   1.718 -0.7719  3.7163  0.3546
   74MOL    H4533771   7.978   6.999   1.713 -1.5810  0.2267  0.2236
   74MOL    H4633772   7.956   6.975   2.147 -1.9744  0.1805 -0.6803
   74MOL    H4733773   8.176   6.885   2.158  0.3860 -1.9659 -0.6289
   74MOL    O4833774   7.652   7.114   2.099 -0.0116 -0.0151  0.0163
   74MOL    C4933775   7.727   7.154   2.210 -0.6925  0.1213  0.2545
   74MOL    C5033776   7.655   7.274   2.272 -0.1693 -0.0851 -0.1894
   74MOL    O5133777   7.528   7.241   2.320  0.7674 -0.0637 -0.1035
   74MOL    C5233778   7.513   7.166   2.426 -0.1673  0.5286 -0.8872
   74MOL    O5333779   7.609   7.099   2.474  0.6691  0.1280  0.5091
   74MOL    C5433780   7.379   7.182   2.485  0.1194  0.4808 -0.3146
   74MOL    C5533781   7.264   7.218   2.405 -0.3261 -0.2201  0.1682
   74MOL    C5633782   7.139   7.216   2.467  0.2403 -0.0528  0.9729
   74MOL    C5733783   7.120   7.198   2.607  0.5421  0.7091 -0.4027
   74MOL    C5833784   6.986   7.207   2.665  0.5073 -0.1864  0.7077
   74MOL    O5933785   6.888   7.234   2.594 -0.1900  0.0627  1.0005
   74MOL    O6033786   6.975   7.211   2.798 -0.2615 -0.0141  0.3328
   74MOL    C6133787   7.238   7.174   2.682  0.0047 -0.6571 -0.2344
   74MOL    C6233788   7.360   7.166   2.625 -0.5142  0.1671 -0.3625
   74MOL    H6333789   7.750   7.075   2.281 -2.0588 -0.4590  0.0731
   74MOL    H6433790   7.822   7.189   2.170 -1.0409  0.8881  0.0799
   74MOL    H6533791   7.642   7.365   2.213  1.5589 -0.6828 -1.5616
   74MOL    H6633792   7.713   7.303   2.359 -0.1213 -0.7700  0.0093
   74MOL    H6733793   7.273   7.244   2.301  2.4032  1.6986  0.8217
   74MOL    H6833794   7.052   7.238   2.407  0.6698 -2.6626 -0.7064
   74MOL    H6933795   7.214   7.163   2.787  2.6019  0.9626  0.5649
   74MOL    H7033796   7.446   7.150   2.688 -0.2411 -1.1516 -1.0415
   74MOL    O7133797   6.846   7.255   2.849  0.2290 -0.2479 -0.4984
   74MOL    C7233798   6.794   7.153   2.933 -0.2708  0.3752  0.1726
   74MOL    C7333799   6.731   7.045   2.853  0.5402 -0.0962  0.6905
   74MOL    O7433800   6.610   7.099   2.795  0.1974  0.5682 -0.2923
   74MOL    C7533801   6.598   7.083   2.660  0.1855 -0.4705 -0.2412
   74MOL    O7633802   6.660   7.009   2.587 -0.4695 -0.0391  0.1782
   74MOL    C7733803   6.481   7.153   2.606  0.0808  0.1626 -0.4662
   74MOL    C7833804   6.437   7.131   2.469  0.2532 -0.0414  0.5594
   74MOL    C7933805   6.321   7.198   2.421 -0.3790 -0.0043 -0.4904
   74MOL    C8033806   6.255   7.288   2.508 -1.3132  0.4313  0.2777
   74MOL    C8133807   6.156   7.381   2.449 -0.5170 -0.5083  0.2778
   74MOL    O8233808   6.097   7.357   2.338 -0.1218 -0.1644 -0.9590
   74MOL    O8333809   6.135   7.489   2.531  0.9377 -0.3275  0.1418
   74MOL    C8433810   6.310   7.315   2.636  0.6506  0.3828  0.3759
   74MOL    C8533811   6.412   7.242   2.693 -0.5861  0.5245 -0.4146
   74MOL    H8633812   6.870   7.118   3.003 -1.0340  1.6300  1.6404
   74MOL    H8733813   6.718   7.197   2.998  1.4709 -0.5298  2.9266
   74MOL    H8833814   6.710   6.961   2.919 -3.0475  0.4435  0.3068
   74MOL    H8933815   6.795   6.999   2.778  1.1300 -0.9754  1.7227
   74MOL    H9033816   6.494   7.065   2.406 -0.9427  1.3239 -2.0463
   74MOL    H9133817   6.287   7.187   2.320 -0.8956 -0.2563 -0.2911
   74MOL    H9233818   6.269   7.390   2.702 -0.3023 -0.0629  0.2934
   74MOL    H9333819   6.445   7.263   2.794 -0.8682  2.0140 -0.6168
   74MOL    O9433820   6.096   7.615   2.458  0.1974  0.8046  0.2739
   74MOL    C9533821   5.952   7.638   2.473 -0.1877  0.0886  0.0084
   74MOL    C9633822   5.912   7.655   2.622 -0.6850  0.6820  0.0861
   74MOL    O9733823   5.946   7.787   2.670 -0.1565 -0.3425  0.3156
   74MOL    C9833824   6.067   7.811   2.735 -0.1261 -0.0976 -0.1274
   74MOL    O9933825   6.134   7.719   2.785  0.1039  0.0821 -0.5706
   74MOL   C10033826   6.114   7.953   2.748 -0.5356 -0.4046 -0.6196
   74MOL   C10133827   6.034   8.062   2.715  0.9596  0.1619  0.2172
   74MOL   C10233828   6.086   8.191   2.728  0.0953  0.1191  0.4811
   74MOL   C10333829   6.218   8.221   2.763 -0.0850  0.1361 -0.8154
   74MOL   C10433830   6.271   0.076   2.794 -0.5503 -0.3029 -0.9390
   74MOL   O10533831   6.383   0.108   2.841  0.4140  0.2351 -0.1172
   74MOL   O10633832   6.171   0.165   2.767  0.2492 -0.2251 -0.0071
   74MOL   C10733833   6.302   8.108   2.788  0.0665 -0.6992 -0.1759
   74MOL   C10833834   6.247   7.977   2.792 -1.1085  0.5630 -0.6229
   74MOL   H10933835   5.910   7.729   2.430  1.6381  0.9628  0.0295
   74MOL   H11033836   5.893   7.553   2.440  1.6004 -0.5942 -1.4968
   74MOL   H11133837   5.940   7.577   2.694 -2.3486 -1.2945 -1.3497
   74MOL   H11233838   5.803   7.653   2.615 -0.6519  0.3504 -0.3286
   74MOL   H11333839   5.935   8.045   2.675  0.6419  3.2283 -0.3999
   74MOL   H11433840   6.017   8.265   2.690 -2.8952 -1.9316  1.6732
   74MOL   H11533841   6.406   8.112   2.817 -0.6696  1.6065  2.3831
   74MOL   H11633842   6.312   7.894   2.816 -1.4170  0.1405 -1.2185
   74MOL   O11733843   6.205   0.299   2.809 -0.5985  0.4637 -0.0892
   74MOL   C11833844   6.138   0.327   2.931  0.1546  0.0261  0.0345
   74MOL   C11933845   6.137   0.477   2.949  0.7673  0.1899 -0.2162
   74MOL   O12033846   6.006   0.525   2.905  1.2215  0.0290 -0.1290
   74MOL   C12133847   5.983   0.651   2.900  0.4392 -0.0060  0.0293
   74MOL   O12233848   6.065   0.734   2.936 -0.2576 -0.0604  0.2192
   74MOL   C12333849   5.850   0.681   2.842  0.7641 -0.0996 -1.0533
   74MOL   C12433850   5.752   0.585   2.801 -0.4468  0.2725 -0.2913
   74MOL   C12533851   5.636   0.612   2.733 -0.7185 -0.9719 -0.1642
   74MOL   C12633852   5.606   0.748   2.705 -0.0085  0.9357 -0.1902
   74MOL   C12733853   5.488   0.785   2.622 -0.0107  0.6966 -0.0068
   74MOL   O12833854   5.463   0.904   2.590  0.1570 -0.4664 -0.3379
   74MOL   O12933855   5.414   0.681   2.576 -0.0034  0.3762 -0.4101
   74MOL   C13033856   5.695   0.851   2.750 -0.1814  0.6071 -0.6384
   74MOL   C13133857   5.817   0.817   2.826 -0.0528  0.7298 -0.0477
   74MOL   H13233858   6.039   0.282   2.927 -0.2607  1.0300 -2.5398
   74MOL   H13333859   6.188   0.279   3.015 -0.9574 -1.0427  0.0930
   74MOL   H13433860   6.214   0.530   2.893 -0.3787  1.1143 -0.9391
   74MOL   H13533861   6.161   0.500   3.054 -1.8413  0.3412  0.3693
   74MOL   H13633862   5.761   0.479   2.820 -1.4045  0.3563  0.6728
   74MOL   H13733863   5.577   0.532   2.692 -0.8355 -1.5945  1.1886
   74MOL   H13833864   5.666   0.952   2.723 -0.2935  0.6421 -0.3843
   74MOL   H13933865   5.881   0.898   2.856 -1.8733  2.9069 -1.8351
   74MOL   O14033866   5.281   0.712   2.520 -0.5324  0.4378  0.4321
   74MOL   C14133867   5.191   0.712   2.624 -0.1085  0.0721 -0.2336
   74MOL   C14233868   5.045   0.722   2.571 -0.0764  0.6746  0.0224
   74MOL   O14333869   4.997   0.587   2.579 -0.1621  0.2681  0.2290
   74MOL   C14433870   5.003   0.504   2.480  0.7944 -0.2060  0.1898
   74MOL   O14533871   5.075   0.525   2.380 -0.1243 -0.7333 -0.2215
   74MOL   C14633872   4.921   0.381   2.510 -0.6033  0.3775  0.8720
   74MOL   C14733873   4.825   0.380   2.615  0.1609  0.0316  0.4566
   74MOL   C14833874   4.759   0.257   2.642 -1.1564  1.0793  0.3280
   74MOL   C14933875   4.780   0.144   2.568 -0.4411 -0.0200 -0.5633
   74MOL   C15033876   4.719   0.010   2.603 -0.0083 -0.6525  0.1385
   74MOL   O15133877   4.697   8.199   2.515 -0.2381 -0.1440  0.0096
   74MOL   O15233878   4.683   0.005   2.730  0.3063  0.5198 -0.6341
   74MOL   C15333879   4.866   0.145   2.459 -0.0383  0.9241 -0.1356
   74MOL   C15433880   4.941   0.261   2.433 -0.1737 -0.0204  0.3912
   74MOL   H15533881   5.194   0.631   2.697 -1.1758 -0.1091 -0.3953
   74MOL   H15633882   5.225   0.800   2.678 -0.6837 -0.6210  1.3137
   74MOL   H15733883   5.020   0.764   2.473 -1.2213 -2.0081 -0.8796
   74MOL   H15833884   4.974   0.764   2.641  2.2361  1.8371  1.7621
   74MOL   H15933885   4.822   0.462   2.686  0.8925  0.4754 -0.0123
   74MOL   H16033886   4.700   0.261   2.733  1.7153  1.3537  2.2552
   74MOL   H16133887   4.867   0.056   2.398 -1.5615 -0.4737  1.8084
   74MOL   H16233888   5.010   0.259   2.350  0.8972 -0.4472  1.2815
   74MOL   O16333889   4.604   8.157   2.762 -0.3275 -0.3592  0.2697
   74MOL   C16433890   4.466   8.191   2.787 -0.0854  0.0635 -0.4457
   74MOL   C16533891   4.391   8.205   2.658 -0.6219 -0.2654  0.3770
   74MOL   O16633892   4.390   8.080   2.575  0.4390  0.4348  1.0683
   74MOL   C16733893   4.307   7.978   2.589  0.6044  0.0629 -0.0092
   74MOL   O16833894   4.217   7.983   2.674 -0.5557 -0.0140 -1.1926
   74MOL   C16933895   4.337   7.867   2.492 -0.4561  0.5812  0.7423
   74MOL   C17033896   4.426   7.873   2.381  0.5166  0.0614 -0.3195
   74MOL   C17133897   4.449   7.758   2.308 -0.3493  0.1790 -0.7159
   74MOL   C17233898   4.381   7.631   2.322  0.4562  0.1490 -0.4170
   74MOL   C17333899   4.388   7.527   2.221 -0.0106 -0.0856 -0.7546
   74MOL   O17433900   4.475   7.527   2.132  0.3311  0.2823  0.1013
   74MOL   O17533901   4.298   7.434   2.245 -0.2690 -0.0249  0.4076
   74MOL   C17633902   4.286   7.634   2.426  0.8485 -0.3702 -0.9476
   74MOL   C17733903   4.260   7.748   2.505 -0.1893  0.2909 -0.1638
   74MOL   H17833904   4.420   8.112   2.847  1.6256 -0.7670 -0.1809
   74MOL   H17933905   4.459   0.012   2.838 -0.8993  0.2674 -0.9403
   74MOL   H18033906   4.454   8.267   2.594 -0.2440 -1.5368 -0.4930
   74MOL   H18133907   4.288   8.241   2.661 -1.3697 -2.1785 -1.0065
   74MOL   H18233908   4.482   7.962   2.359  0.2242 -0.1585 -2.0358
   74MOL   H18333909   4.520   7.775   2.228 -0.0353 -0.6080 -0.6115
   74MOL   H18433910   4.217   7.552   2.440 -0.1416  0.7067  0.7377
   74MOL   H18533911   4.178   7.746   2.575 -0.8532  0.0677 -0.9312
   74MOL   O18633912   4.295   7.323   2.146  0.1331  0.0355  0.3867
   74MOL   C18733913   4.224   7.368   2.030 -0.1647  0.1882  0.2031
   74MOL   C18833914   4.089   7.435   2.059 -0.2596 -0.4748 -1.1504
   74MOL   O18933915   4.116   7.572   2.057 -0.1946 -0.1651 -0.6880
   74MOL   C19033916   4.022   7.659   2.090  0.1403 -0.7330 -0.0999
   74MOL   O19133917   3.910   7.630   2.129  0.0088  0.3974 -0.1803
   74MOL   C19233918   4.069   7.802   2.074  0.6774 -0.4720 -0.8156
   74MOL   C19333919   4.207   7.834   2.046 -0.2930  0.8297 -0.0302
   74MOL   C19433920   4.251   7.962   2.033  0.2172 -0.4571  0.3557
   74MOL   C19533921   4.156   8.066   2.017  0.7133 -0.6607  1.2764
   74MOL   C19633922   4.193   8.204   1.968 -0.0499  0.2388 -0.3017
   74MOL   O19733923   4.119   0.023   1.962  0.0565 -0.4010  0.0168
   74MOL   O19833924   4.324   8.210   1.943  0.1274  0.6313 -0.3280
   74MOL   C19933925   4.021   8.042   2.056 -0.4069 -0.2353  0.6106
   74MOL   C20033926   3.978   7.909   2.091  0.0471 -0.2002 -0.0276
   74MOL   H20133927   4.291   7.435   1.976 -1.5914  0.2282 -1.5862
   74MOL   H20233928   4.216   7.280   1.966  1.0927  1.0149 -1.1142
   74MOL   H20333929   4.035   7.403   2.149  2.3551  2.0812  1.4462
   74MOL   H20433930   4.029   7.417   1.970  1.1089 -1.6757 -1.8303
   74MOL   H20533931   4.278   7.754   2.032 -1.3608  0.1424 -1.5721
   74MOL   H20633932   4.352   7.991   2.010 -0.1436  2.5370  2.2377
   74MOL   H20733933   3.954   8.127   2.052 -0.4898 -0.0897  3.9412
   74MOL   H20833934   3.872   7.893   2.108 -0.0280  0.1761 -0.1381
   74MOL   O20933935   4.382   0.071   1.902 -0.1575  0.4417  0.4713
   74MOL   C21033936   4.492   0.040   1.819  0.0895 -0.5245  0.1646
   74MOL   C21133937   4.437   0.034   1.671 -0.2921 -0.4178  0.2727
   74MOL   O21233938   4.389   8.181   1.643  0.8912  0.1994 -0.1010
   74MOL   C21333939   4.477   8.080   1.618  0.2851 -0.4544 -0.5024
   74MOL   O21433940   4.603   8.096   1.611  0.0497  0.2085 -0.4353
   74MOL   C21533941   4.416   7.948   1.622 -0.1884  0.1569  0.3876
   74MOL   C21633942   4.284   7.923   1.663 -0.0423 -0.2538 -0.3238
   74MOL   C21733943   4.237   7.788   1.676  0.1167 -0.4503  0.2434
   74MOL   C21833944   4.321   7.677   1.659 -0.2699  0.1201  0.1133
   74MOL   C21933945   4.271   7.541   1.687  0.5989 -0.2416 -0.4121
   74MOL   O22033946   4.167   7.519   1.745 -0.1236  0.0995  0.1058
   74MOL   O22133947   4.340   7.446   1.619  0.1338 -0.0340 -0.3834
   74MOL   C22233948   4.456   7.700   1.606  0.1283 -0.0107  0.4680
   74MOL   C22333949   4.499   7.835   1.598  0.4424 -0.4829  0.2756
   74MOL   H22433950   4.556   0.128   1.823 -2.0710  1.1577 -1.3948
   74MOL   H22533951   4.559   8.237   1.856  0.1508 -0.0936  0.9685
   74MOL   H22633952   4.515   0.060   1.600 -1.9914 -0.0674 -1.5200
   74MOL   H22733953   4.355   0.103   1.651  1.3226  2.3805  3.0877
   74MOL   H22833954   4.210   7.998   1.687 -2.4531 -2.3936 -0.7664
   74MOL   H22933955   4.140   7.766   1.716 -1.0445  0.2959 -2.0452
   74MOL   H23033956   4.531   7.628   1.577  0.0480 -0.6731  1.8678
   74MOL   H23133957   4.599   7.861   1.567  0.1484 -0.9288 -1.1292
   74MOL   O23233958   4.301   7.299   1.653 -0.1539 -0.2688 -0.2618
   74MOL   C23333959   4.206   7.260   1.558  0.0614  0.3689  0.5248
   74MOL   C23433960   4.168   7.115   1.583 -0.5675  0.0508 -0.1862
   74MOL   O23533961   4.091   7.106   1.699 -0.4990  0.0428  0.0165
   74MOL   C23633962   4.019   7.001   1.733 -0.1977 -0.5458  0.0316
   74MOL   O23733963   4.029   6.894   1.685  0.5222 -0.8576 -0.7459
   74MOL   C23833964   3.923   7.027   1.849  0.3571  0.2747 -0.4009
   74MOL   C23933965   3.852   6.915   1.906  0.2137 -0.1680  0.4759
   74MOL   C24033966   3.776   6.932   2.020  0.3951 -0.4359 -0.2909
   74MOL   C24133967   3.778   7.051   2.093 -0.9336 -0.3620 -0.2521
   74MOL   C24233968   3.708   7.060   2.221 -0.1742 -0.1187 -0.0247
   74MOL   O24333969   3.746   7.125   2.313 -0.0414  0.0060 -0.1697
   74MOL   O24433970   3.588   6.989   2.219  0.4720 -0.0509  0.6032
   74MOL   C24533971   3.851   7.159   2.040 -0.6326 -0.1990  0.1236
   74MOL   C24633972   3.920   7.142   1.917  0.3434 -0.3253  0.3781
   74MOL   H24733973   4.122   7.328   1.573  0.4445  0.7704  0.8553
   74MOL   H24833974   4.247   7.275   1.458  1.0888  3.8343  1.4182
   74MOL   H24933975   4.256   7.050   1.580 -0.3900  0.2415  0.7657
   74MOL   H25033976   4.111   7.087   1.495  2.1461 -1.8194 -1.4332
   74MOL   H25133977   3.858   6.814   1.871 -3.1886 -0.4759  0.6116
   74MOL   H25233978   3.735   6.841   2.060 -1.3556 -0.1635 -1.3947
   74MOL   H25333979   3.849   7.257   2.085 -2.1435  0.5685 -1.5526
   74MOL   H25433980   3.964   7.233   1.877 -2.5269  2.0327  2.2979
   74MOL   O25533981   3.510   7.004   2.351 -0.4065  0.1090 -0.3655
   74MOL   C25633982   3.509   6.879   2.416 -0.3761 -0.4456 -0.3233
   74MOL   C25733983   3.456   6.904   2.551 -0.7973  0.3851 -0.3037
   74MOL   O25833984   3.560   6.971   2.623 -0.3227 -0.4179 -0.1757
   74MOL   C25933985   3.656   6.897   2.682 -0.2229  0.0996 -0.5340
   74MOL   O26033986   3.680   6.779   2.659 -0.3201  0.1440 -0.3447
   74MOL   C26133987   3.728   6.986   2.767 -0.8568  0.4967  0.2130
   74MOL   C26233988   3.665   7.095   2.834  0.9589 -0.3962 -0.1058
   74MOL   C26333989   3.736   7.168   2.928 -0.5629 -0.2410 -1.0412
   74MOL   C26433990   3.870   7.137   2.962  0.5417  0.5996 -0.4565
   74MOL   C26533991   3.948   7.222   3.057 -0.2309  0.2488 -0.3207
   74MOL   O26633992   3.899   7.317   3.122 -0.2357 -0.1045  0.2077
   74MOL   O26733993   4.069   7.175   3.084 -0.1229 -0.5700  0.3378
   74MOL   C26833994   3.931   7.032   2.891  0.2656  0.1776 -0.1683
   74MOL   C26933995   3.864   6.957   2.797  0.2256  0.0665  0.1595
   74MOL   H27033996   3.440   6.826   2.350  0.1094 -0.7410 -0.6018
   74MOL   H27133997   3.605   6.829   2.405 -1.5757 -2.4603 -1.9822
   74MOL   H27233998   3.418   6.819   2.607 -2.4573  1.1267 -0.2683
   74MOL   H27333999   3.363   6.960   2.553 -1.3607 -0.5750  0.7305
   74MOL   H27434000   3.563   7.121   2.812  1.0130 -0.8302 -0.8799
   74MOL   H27534001   3.689   7.256   2.969 -0.2150 -0.8450  0.7062
   74MOL   H27634002   4.031   7.004   2.922  0.1766 -0.1558 -0.1811
   74MOL   H27734003   3.919   6.878   2.749  1.2625  0.9314 -0.0821
   74MOL   O27834004   4.142   7.267   3.180  0.0640  0.0791  0.2476
   74MOL   C27934005   4.250   7.325   3.102  0.0328  0.0070 -0.5782
   74MOL   C28034006   4.339   7.406   3.204  0.3912 -0.1357 -0.0299
   74MOL   O28134007   4.471   7.410   3.150  0.1477  0.1866 -0.0822
   74MOL   C28234008   4.576   7.448   3.229 -0.0322  0.0577 -0.1877
   74MOL   O28334009   4.559   7.512   3.337  0.1207 -0.1120 -0.2592
   74MOL   C28434010   4.710   7.424   3.173  0.3049  0.4629 -0.4202
   74MOL   C28534011   4.729   7.367   3.046 -0.4381  0.0606  0.0869
   74MOL   C28634012   4.859   7.343   3.002 -0.1432 -0.8461 -0.2860
   74MOL   C28734013   4.973   7.361   3.088 -0.1579  0.9280  1.3107
   74MOL   C28834014   5.110   7.320   3.035  0.6097  0.5089  1.1396
   74MOL   O28934015   5.128   7.253   2.929  0.3091  0.2695  0.3156
   74MOL   O29034016   5.209   7.380   3.104 -0.9781  0.7318  0.0267
   74MOL   C29134017   4.953   7.400   3.220 -0.1475 -0.1624 -0.4853
   74MOL   C29234018   4.820   7.427   3.265 -0.7407 -0.2090  0.0723
   74MOL   H29334019   4.302   7.244   3.050 -1.3732 -1.9991  1.0801
   74MOL   H29434020   4.213   7.386   3.020  0.7377  1.0974 -0.0900
   74MOL   H29534021   4.336   7.362   3.303  1.2011 -0.1290  0.0060
   74MOL   H29634022   4.295   7.505   3.212 -1.7061 -1.2098  2.3898
   74MOL   H29734023   4.645   7.340   2.983 -1.3796 -1.1136  1.8102
   74MOL   H29834024   4.883   7.302   2.905 -2.2018 -1.1608 -0.6779
   74MOL   H29934025   5.038   7.410   3.285 -0.4545 -0.7173  0.0058
   74MOL   H30034026   4.805   7.443   3.370 -1.6154 -0.5248  0.0049
   74MOL   O30134027   5.346   7.362   3.031 -0.0389  0.2895  0.2084
   74MOL   C30234028   5.374   7.487   2.967  0.2763 -0.7931 -0.2462
   74MOL   C30334029   5.531   7.502   2.956 -0.1762 -0.3566 -0.1039
   74MOL   O30434030   5.583   7.457   2.831 -0.7840  0.3515  0.2065
   74MOL   C30534031   5.620   7.334   2.813 -0.0466  0.7278 -0.6970
   74MOL   O30634032   5.624   7.241   2.900  0.4869 -0.8949 -0.7585
   74MOL   C30734033   5.659   7.315   2.671 -0.1271 -0.1795  0.4373
   74MOL   C30834034   5.748   7.209   2.647 -0.4263  0.8270  0.2056
   74MOL   C30934035   5.795   7.178   2.520  0.2869  0.1146  0.6061
   74MOL   C31034036   5.764   7.263   2.413 -1.0434 -0.2940  0.4083
   74MOL   C31134037   5.813   7.243   2.280 -0.3991  0.5806  0.5702
   74MOL   O31234038   5.810   7.327   2.191 -0.5126 -0.3416  0.4208
   74MOL   O31334039   5.850   7.117   2.257  0.4367  0.2377  0.4548
   74MOL   C31434040   5.683   7.369   2.432 -1.4354  0.1246  0.0565
   74MOL   C31534041   5.631   7.403   2.561  0.1629 -0.7387  0.0363
   74MOL   H31634042   5.330   7.510   2.870  1.2545 -0.2141 -0.5668
   74MOL   H31734043   5.343   7.563   3.039 -0.6020 -2.3996  1.0885
   74MOL   H31834044   5.597   7.482   3.040 -0.7335 -2.9083 -0.2454
   74MOL   H31934045   5.554   7.609   2.959  0.6412 -0.5499  0.4208
   74MOL   H32034046   5.786   7.153   2.732 -1.5087 -0.6468 -0.2577
   74MOL   H32134047   5.854   7.089   2.503  1.2207  1.1409 -1.8264
   74MOL   H32234048   5.654   7.436   2.351 -0.8711  3.8945  2.8319
   74MOL   H32334049   5.565   7.488   2.566  1.2516  0.1623 -0.6320
   74MOL   O32434050   5.886   7.087   2.110  0.2117  0.2298 -0.1448
   74MOL   C32534051   6.019   7.097   2.092 -0.2548  0.7686  0.0631
   74MOL   C32634052   6.092   6.992   2.176 -0.4413  0.6781 -0.3191
   74MOL   O32734053   6.068   6.869   2.109  0.1763 -0.2780  0.2458
   74MOL   C32834054   5.973   6.796   2.159 -0.0621 -0.3344  0.0049
   74MOL   O32934055   5.895   6.822   2.260  0.0485 -0.5227  0.6812
   74MOL   C33034056   5.973   6.669   2.087 -0.2158  0.0201  0.5636
   74MOL   C33134057   5.867   6.578   2.107  0.0472 -0.3278  0.4456
   74MOL   C33234058   5.858   6.459   2.035 -0.7652  0.2491  0.1746
   74MOL   C33334059   5.951   6.438   1.927 -0.4659 -0.1065 -0.3571
   74MOL   C33434060   5.936   6.329   1.831 -0.5455 -0.0066  0.3431
   74MOL   O33534061   6.023   6.302   1.751  0.1969  1.1827 -0.0328
   74MOL   O33634062   5.824   6.255   1.853 -0.2080 -0.7211  0.3219
   74MOL   C33734063   6.053   6.538   1.901  0.5345  0.4116 -0.4922
   74MOL   C33834064   6.058   6.652   1.979 -0.1301  0.0740  1.3116
   74MOL   H33934065   6.036   7.090   1.984 -0.1299  2.9544 -0.0757
   74MOL   H34034066   6.054   7.198   2.110  2.2735 -0.0317 -0.0865
   74MOL   H34134067   6.055   6.993   2.279 -0.1514 -0.9058 -0.1895
   74MOL   H34234068   6.199   7.013   2.178 -0.3252 -0.0328  1.2710
   74MOL   H34334069   5.799   6.602   2.188 -1.3447 -0.2486 -0.7380
   74MOL   H34434070   5.777   6.389   2.046  0.7452 -1.3883  1.1855
   74MOL   H34534071   6.126   6.529   1.823  0.8082  1.6157 -0.3926
   74MOL   H34634072   6.143   6.715   1.959  0.1628 -0.7647 -0.1994
   74MOL   O34734073   5.784   6.150   1.750  0.0361  0.1686 -0.2713
   74MOL   C34834074   5.835   6.027   1.798 -0.7299  0.1658 -0.2878
   74MOL   C34934075   5.746   5.907   1.742 -0.1861 -0.0365 -0.2840
   74MOL   O35034076   5.610   5.913   1.778  0.4681  0.3540 -0.1483
   74MOL   C35134077   5.570   5.871   1.893  0.2518  0.8117  0.5123
   74MOL   O35234078   5.644   5.813   1.970 -1.0237  0.5904  0.4308
   74MOL   C35334079   5.420   5.875   1.907  0.6577  0.4172 -0.2778
   74MOL   C35434080   5.358   5.755   1.953  0.2290  0.8076  0.4863
   74MOL   C35534081   5.219   5.755   1.965  0.4053  0.0024  0.4416
   74MOL   C35634082   5.139   5.868   1.939  0.1433  0.3775 -0.1218
   74MOL   C35734083   4.990   5.871   1.977  0.5483 -0.4642 -0.4326
   74MOL   O35834084   4.911   5.962   1.949  0.0049 -0.4406  0.2509
   74MOL   O35934085   4.952   5.759   2.045  0.9531  0.1132  0.2270
   74MOL   C36034086   5.205   5.987   1.894 -0.3602  0.0244 -0.0525
   74MOL   C36134087   5.345   5.988   1.878 -0.2283  0.5868  0.4475
   74MOL   H36234088   5.939   6.004   1.776 -0.8554  0.7404 -1.5043
   74MOL   H36334089   5.818   6.014   1.905 -0.0795  0.7988 -0.1065
   74MOL   H36434090   5.787   5.810   1.772  1.3539  1.0106  1.0866
   74MOL   H36534091   5.751   5.907   1.633  0.1562  0.2735 -0.2697
   74MOL   H36634092   5.410   5.661   1.961  2.9262  2.0757 -1.3826
   74MOL   H36734093   5.175   5.661   1.995  1.3697 -1.1963 -1.7399
   74MOL   H36834094   5.146   6.076   1.881  0.1874  0.4886  0.5962
   74MOL   H36934095   5.402   6.071   1.840 -0.3596 -0.0364 -1.1773
   74MOL   O37034096   4.805   5.760   2.085  0.4206  0.2486  0.2814
   74MOL   C37134097   4.727   5.693   1.987 -0.3029 -0.4970  0.5075
   74MOL   C37234098   4.604   5.614   2.046 -0.0863  0.1258  0.0940
   74MOL   O37334099   4.633   5.493   2.115 -0.5980  0.1347 -0.7104
   74MOL   C37434100   4.664   5.386   2.043 -0.0025  0.5901  0.4072
   74MOL   O37534101   4.682   5.382   1.922  0.4413 -0.1828  0.5619
   74MOL   C37634102   4.689   5.261   2.120  0.4337 -0.0511  0.0992
   74MOL   C37734103   4.722   5.138   2.060  0.5933  0.6001  0.0843
   74MOL   C37834104   4.759   5.026   2.130  0.1245  0.9238  0.2747
   74MOL   C37934105   4.740   5.016   2.270 -0.8735  0.1308 -0.4050
   74MOL   C38034106   4.767   4.889   2.336  0.2633 -0.2950  0.3184
   74MOL   O38134107   4.824   4.794   2.281 -0.3437 -0.2517  0.0800
   74MOL   O38234108   4.717   4.888   2.454  0.7369 -0.9713  0.3475
   74MOL   C38334109   4.694   5.133   2.337 -0.4279 -0.0061  0.2277
   74MOL   C38434110   4.672   5.255   2.263  0.2970  0.1301 -0.4079
   74MOL   H38534111   4.685   5.771   1.923  1.7637 -0.8086 -1.2915
   74MOL   H38634112   4.783   5.628   1.920 -0.1854  1.0787 -0.9764
   74MOL   H38734113   4.531   5.590   1.968  0.5318 -2.6759  0.3262
   74MOL   H38834114   4.558   5.676   2.123  3.3153  2.0525  0.6273
   74MOL   H38934115   4.736   5.125   1.954 -1.3334 -1.0420  0.0003
   74MOL   H39034116   4.793   4.935   2.084  0.2708 -0.0018  2.1754
   74MOL   H39134117   4.690   5.128   2.445 -0.8147  2.0441  0.3220
   74MOL   H39234118   4.669   5.344   2.325  0.0635  1.0060 -1.6540
   74MOL   O39334119   4.774   4.777   2.539  0.4267  0.0695 -0.6273
   74MOL   C39434120   4.688   4.663   2.536 -0.0680  0.8814 -0.0848
   74MOL   C39534121   4.696   4.587   2.667  0.3947  0.8021 -0.8041
   74MOL   O39634122   4.775   4.470   2.665 -0.4083 -0.0289  0.1249
   74MOL   C39734123   4.733   4.352   2.617 -0.4925 -0.0906 -0.2108
   74MOL   O39834124   4.616   4.336   2.580 -0.2365 -0.1946  0.4909
   74MOL   C39934125   4.832   4.251   2.607 -0.0230 -0.5176  0.5302
   74MOL   C40034126   4.964   4.271   2.644 -0.6993  0.7138 -0.2738
   74MOL   C40134127   5.069   4.173   2.617 -0.0867 -0.3950  0.5249
   74MOL   C40234128   5.032   4.053   2.547 -0.1594  0.0681 -0.2560
   74MOL   C40334129   5.136   3.950   2.519 -0.2227  0.1793 -0.6513
   74MOL   O40434130   5.257   3.972   2.527  0.3667  0.2883 -0.2587
   74MOL   O40534131   5.094   3.832   2.484 -0.1991  1.2317  0.0072
   74MOL   C40634132   4.895   4.036   2.515  0.1527 -0.5470 -0.1828
   74MOL   C40734133   4.793   4.127   2.545 -0.0357  0.3536  0.0342
   74MOL   H40834134   4.589   4.707   2.526 -0.4910 -0.4680 -1.9034
   74MOL   H40934135   4.716   4.605   2.449  0.6111  1.5004 -0.2874
   74MOL   H41034136   4.596   4.554   2.697 -0.9956  5.3236 -0.1141
   74MOL   H41134137   4.728   4.658   2.742 -1.5592 -0.1306  0.9678
   74MOL   H41234138   5.000   4.362   2.691  0.7119  0.8617 -1.6141
   74MOL   H41334139   5.171   4.189   2.648  0.3321 -0.5741 -0.7323
   74MOL   H41434140   4.870   3.944   2.464  0.2561 -2.1882  2.6174
   74MOL   H41534141   4.692   4.113   2.511 -0.1859  0.3399  0.4961
   74MOL   O41634142   5.197   3.730   2.443  0.1262 -0.2682 -0.0549
   74MOL   C41734143   5.206   3.628   2.540  0.6511  0.0858  0.4121
   74MOL   C41834144   5.273   3.690   2.667 -0.3918  0.0847  0.5546
   74MOL   O41934145   5.309   3.593   2.758 -0.0235 -0.2245 -0.4203
   74MOL   C42034146   5.214   3.559   2.850 -0.0424 -0.3825  0.4601
   74MOL   O42134147   5.101   3.606   2.868 -0.4160  0.0337  0.2042
   74MOL   C42234148   5.252   3.435   2.916  0.5825 -0.1203 -0.2487
   74MOL   C42334149   5.191   3.398   3.036 -0.4472 -0.3744 -0.3713
   74MOL   C42434150   5.245   3.296   3.116 -0.3085  0.3939 -0.1616
   74MOL   C42534151   5.341   3.206   3.061  0.0226 -0.0068  0.7899
   74MOL   C42634152   5.397   3.095   3.138 -0.6121  0.5163  0.1029
   74MOL   O42734153   5.502   3.031   3.119 -0.5267  0.1972 -0.5244
   74MOL   O42834154   5.318   3.060   3.242 -0.2123  0.2805  0.1881
   74MOL   C42934155   5.389   3.236   2.926  0.2912 -0.2842 -0.0026
   74MOL   C43034156   5.349   3.350   2.862  0.0103 -0.6394  0.0276
   74MOL   H43134157   5.103   3.602   2.562  0.8019 -0.1207  0.8914
   74MOL   H43234158   5.257   3.544   2.492 -0.7688  0.5626 -1.9903
   74MOL   H43334159   5.214   3.773   2.706 -0.4629  0.6441 -0.7228
   74MOL   H43434160   5.364   3.735   2.627 -0.0838 -0.7637  0.2838
   74MOL   H43534161   5.109   3.457   3.074  1.2047  1.8452 -0.1444
   74MOL   H43634162   5.214   3.284   3.219  1.4119  1.4734  0.4950
   74MOL   H43734163   5.455   3.163   2.882 -0.0730 -1.1123  0.8010
   74MOL   H43834164   5.401   3.382   2.773 -2.5791  1.0160 -0.9426
   74MOL   O43934165   5.381   2.957   3.332 -0.1209 -0.3007 -0.1163
   74MOL   C44034166   5.418   3.020   3.450  0.2391  0.0537  0.0660
   74MOL   C44134167   5.286   3.021   3.537 -0.7740  0.0729  0.0754
   74MOL   O44234168   5.325   2.985   3.670 -0.4024 -0.2703  0.2636
   74MOL   C44334169   5.244   3.016   3.770 -0.0399 -0.2208 -0.0774
   74MOL   O44434170   5.125   3.058   3.755 -0.2533  0.8740 -0.0441
   74MOL   C44534171   5.301   2.972   3.900 -0.0621 -0.2320 -0.0137
   74MOL   C44634172   5.400   2.877   3.917 -0.4141 -0.6508  0.2641
   74MOL   C44734173   5.447   2.841   4.040  0.3496 -1.0144 -0.0095
   74MOL   C44834174   5.391   2.891   4.159 -0.5759 -1.2069 -0.0743
   74MOL   C44934175   5.431   2.846   4.299 -0.7157  0.0397 -0.3874
   74MOL   O45034176   5.368   2.880   4.399  0.1809  0.1698  0.0479
   74MOL   O45134177   5.533   2.760   4.302  0.5270 -0.3462  0.1538
   74MOL   C45234178   5.292   2.989   4.142  0.1026  0.4649  0.2011
   74MOL   C45334179   5.249   3.028   4.017 -0.2795 -0.5551  0.1964
   74MOL   H45434180   5.500   2.962   3.494  0.2308  0.1567  0.2221
   74MOL   H45534181   5.464   3.119   3.442  1.4395 -0.2936  2.1763
   74MOL   H45634182   5.217   2.948   3.495 -1.8048  0.3567  1.2462
   74MOL   H45734183   5.232   3.114   3.521 -0.8561  0.2961  1.5362
   74MOL   H45834184   5.445   2.832   3.829 -2.7761 -3.4406  0.4091
   74MOL   H45934185   5.519   2.761   4.052  1.4647 -0.1955 -1.1256
   74MOL   H46034186   5.242   3.029   4.229 -0.8332  0.3546 -0.2804
   74MOL   H46134187   5.176   3.107   4.021 -1.5370 -1.6985  0.0253
   74MOL   H46234188   5.521   2.703   4.377 -2.7787 -1.3774 -1.0627
   75MOL     O134189   6.738   6.207   7.224  0.1439  0.2328  0.1927
   75MOL     C234190   6.797   6.330   7.188  0.0259 -0.3526  0.6926
   75MOL     C334191   6.680   6.427   7.186  0.3708 -0.7858 -0.2671
   75MOL     O434192   6.716   6.561   7.162 -0.5447  0.2830 -0.3657
   75MOL     C534193   6.635   6.641   7.087  0.6173 -0.1641 -0.2745
   75MOL     O634194   6.536   6.597   7.028  0.2884  0.2480  0.3730
   75MOL     C734195   6.688   6.777   7.064  0.6700  0.0557 -0.1088
   75MOL     C834196   6.644   6.857   6.954  0.1949  0.9039  0.5442
   75MOL     C934197   6.709   6.975   6.923  0.1234 -0.6334 -0.1773
   75MOL    C1034198   6.806   7.025   7.009  0.1133  0.0438  1.1006
   75MOL    C1134199   6.874   7.162   6.972  0.0557 -0.1178  0.1057
   75MOL    O1234200   6.830   7.224   6.876 -0.3937  0.0373  0.3380
   75MOL    O1334201   6.978   7.201   7.055 -0.3290  0.0127  0.3349
   75MOL    C1434202   6.855   6.951   7.118 -0.3097  0.5579 -0.1225
   75MOL    C1534203   6.794   6.827   7.146  0.3861  0.3605 -0.2758
   75MOL    H1634204   6.876   6.362   7.255 -0.9054  1.4172  0.9834
   75MOL    H1734205   6.826   6.323   7.084 -0.8468 -0.1510  0.4242
   75MOL    H1834206   6.622   6.429   7.278 -2.1513 -0.3615 -1.8343
   75MOL    H1934207   6.610   6.387   7.113 -2.9651  1.8956  1.3069
   75MOL    H2034208   6.561   6.827   6.892 -0.2565  0.6107  1.2775
   75MOL    H2134209   6.682   7.019   6.828 -0.5200  0.3366  0.4414
   75MOL    H2234210   6.939   6.982   7.179 -0.5373 -1.6326  1.3594
   75MOL    H2334211   6.839   6.773   7.228  0.3488  0.0483 -0.4609
   75MOL    H2434212   6.802   6.138   7.213  1.5359  1.5337  0.0210
   75MOL    O2534213   7.035   7.335   7.013  0.8234 -0.0089  0.6963
   75MOL    C2634214   6.968   7.441   7.077 -0.1213 -0.0317 -0.7943
   75MOL    C2734215   6.997   7.450   7.233  0.3693  1.1416  0.0140
   75MOL    O2834216   7.139   7.454   7.260  0.4578  0.7973  0.7560
   75MOL    C2934217   7.188   7.459   7.386  0.1110  0.2095 -0.0389
   75MOL    O3034218   7.122   7.446   7.491 -0.4885  0.1858 -0.2140
   75MOL    C3134219   7.332   7.474   7.390 -0.1731 -0.1384 -0.3690
   75MOL    C3234220   7.406   7.450   7.511  0.4922  0.3220  0.3596
   75MOL    C3334221   7.545   7.438   7.511 -0.1779 -0.7157 -0.0644
   75MOL    C3434222   7.617   7.450   7.389 -0.0641 -0.1243 -0.3225
   75MOL    C3534223   7.767   7.437   7.385 -0.2315  0.8182  0.7207
   75MOL    O3634224   7.837   7.470   7.287  0.7130 -0.3118  0.1626
   75MOL    O3734225   7.816   7.363   7.487 -0.0414 -0.6097 -0.3316
   75MOL    C3834226   7.547   7.480   7.273 -0.0499  0.0074  0.0245
   75MOL    C3934227   7.406   7.502   7.274  0.1294 -0.3173 -1.0174
   75MOL    H4034228   6.992   7.536   7.028  1.5620  0.1720  0.3643
   75MOL    H4134229   6.860   7.430   7.070 -0.2251  1.0666 -0.9844
   75MOL    H4234230   6.959   7.357   7.275 -1.7315  2.6235  1.4894
   75MOL    H4334231   6.931   7.526   7.274 -0.7913  0.6753 -0.9534
   75MOL    H4434232   7.353   7.434   7.603  0.0001 -1.5401 -0.2164
   75MOL    H4534233   7.600   7.419   7.602 -0.6325  0.1572  0.4026
   75MOL    H4634234   7.602   7.486   7.181  1.0033 -3.7293  0.3158
   75MOL    H4734235   7.357   7.525   7.181  0.8451 -1.5019 -1.6979
   75MOL    O4834236   7.960   7.347   7.488 -0.1016 -0.4898  0.1089
   75MOL    C4934237   8.014   7.379   7.613  0.2151 -0.1224  0.1707
   75MOL    C5034238   8.163   7.340   7.616  0.2507  0.7566  0.1280
   75MOL    O5134239   8.235   7.433   7.536  0.1638 -0.0217 -1.1088
   75MOL    C5234240   8.257   7.412   7.403 -0.0344 -0.0527 -0.1119
   75MOL    O5334241   8.220   7.310   7.341  0.0158 -0.4303 -0.3074
   75MOL    C5434242   0.037   7.528   7.332  0.5299  0.1005  0.2680
   75MOL    C5534243   0.054   7.526   7.190 -0.0822 -0.6405 -0.2313
   75MOL    C5634244   0.129   7.624   7.130  0.0735  0.0833  0.5626
   75MOL    C5734245   0.194   7.728   7.201 -0.3200  0.1783  0.4938
   75MOL    C5834246   0.296   7.819   7.137 -0.2994  1.0445 -0.1219
   75MOL    O5934247   0.358   7.915   7.194  0.1264  0.0559 -0.2413
   75MOL    O6034248   0.320   7.778   7.013 -0.3271 -0.6020  0.0438
   75MOL    C6134249   0.160   7.732   7.341 -0.4461 -0.6775 -0.4475
   75MOL    C6234250   0.079   7.636   7.404  0.5393 -0.4544 -0.7586
   75MOL    H6334251   8.005   7.487   7.631 -0.8561 -0.2179  0.2299
   75MOL    H6434252   7.962   7.345   7.703 -0.3545  0.9796  0.2677
   75MOL    H6534253   8.162   7.233   7.598 -1.0140  0.7231  0.3567
   75MOL    H6634254   8.182   7.348   7.723 -0.4705  2.0566  0.1802
   75MOL    H6734255   0.005   7.449   7.132 -2.2827 -0.0191  0.7344
   75MOL    H6834256   0.145   7.620   7.023 -3.3578 -2.6553  0.0805
   75MOL    H6934257   0.198   7.817   7.397  0.8124 -1.6677  0.2118
   75MOL    H7034258   0.057   7.646   7.510  1.6248 -1.8809 -0.3871
   75MOL    O7134259   0.439   7.857   6.957 -0.3717  0.2383  0.1500
   75MOL    C7234260   0.542   7.764   6.935 -0.3797  0.0810 -0.3536
   75MOL    C7334261   0.666   7.818   6.869  0.4254 -1.3339  0.7165
   75MOL    O7434262   0.738   7.707   6.838  0.6551 -0.3033  0.5853
   75MOL    C7534263   0.841   7.721   6.757 -0.4195  0.5279 -0.3061
   75MOL    O7634264   0.897   7.829   6.739  0.2350  0.1282 -0.1585
   75MOL    C7734265   0.878   7.594   6.684 -0.5900  0.2767 -0.1277
   75MOL    C7834266   0.985   7.601   6.594  0.1208 -0.3838 -0.2698
   75MOL    C7934267   1.023   7.488   6.523 -0.0124 -0.3877  0.4085
   75MOL    C8034268   0.954   7.367   6.532  0.4839 -0.0809  0.1513
   75MOL    C8134269   0.990   7.247   6.453  0.1143 -0.3151 -0.3630
   75MOL    O8234270   0.957   7.134   6.492  0.0018  0.1085  0.0149
   75MOL    O8334271   1.048   7.274   6.332 -0.5240 -0.5275  0.6223
   75MOL    C8434272   0.847   7.356   6.621  0.6641 -0.2126 -0.4474
   75MOL    C8534273   0.804   7.476   6.693  0.6114  0.3760 -0.4124
   75MOL    H8634274   0.559   7.716   7.031  1.3892  1.4653  0.0584
   75MOL    H8734275   0.498   7.688   6.870 -0.0786 -0.8487  0.5105
   75MOL    H8834276   0.729   7.882   6.930  0.5643 -0.2902 -0.5205
   75MOL    H8934277   0.643   7.868   6.775  1.4001 -2.6119 -0.2347
   75MOL    H9034278   1.022   7.703   6.587 -3.7906  1.2237  0.9997
   75MOL    H9134279   1.107   7.506   6.456  1.1031 -0.2512  1.8133
   75MOL    H9234280   0.798   7.262   6.641  0.3469  0.3089  1.3419
   75MOL    H9334281   0.728   7.474   6.770 -0.0154 -3.1280 -1.0743
   75MOL    O9434282   1.080   7.151   6.258 -0.1409 -0.3305  0.5522
   75MOL    C9534283   0.984   7.136   6.153  0.3867 -0.0048  0.5874
   75MOL    C9634284   0.864   7.053   6.204 -0.4194 -0.2973  0.1126
   75MOL    O9734285   0.771   7.129   6.287 -0.9392 -0.9003  0.2427
   75MOL    C9834286   0.636   7.105   6.276 -0.6571 -0.6961 -0.0830
   75MOL    O9934287   0.586   7.017   6.205  0.1548  0.1909 -0.0767
   75MOL   C10034288   0.553   7.192   6.366  0.0845 -0.2006  0.3216
   75MOL   C10134289   0.598   7.308   6.433 -0.7799  0.1548 -0.3184
   75MOL   C10234290   0.510   7.396   6.503 -0.1466 -0.0307 -0.0010
   75MOL   C10334291   0.375   7.359   6.526 -0.3344  0.2402  0.6958
   75MOL   C10434292   0.279   7.440   6.606 -0.0952  0.0574 -0.2662
   75MOL   O10534293   0.159   7.413   6.613 -0.5016 -0.5586  0.2603
   75MOL   O10634294   0.338   7.549   6.670  0.5321 -0.7085  0.6978
   75MOL   C10734295   0.328   7.248   6.452  0.5789  0.0257  0.3457
   75MOL   C10834296   0.411   7.165   6.371 -0.3026  1.2668 -0.4371
   75MOL   H10934297   0.960   7.232   6.108  1.5012  0.7350  1.5358
   75MOL   H11034298   1.041   7.077   6.081 -0.7358  1.9215 -1.9488
   75MOL   H11134299   0.905   6.973   6.266  0.2526  0.6568  0.9219
   75MOL   H11234300   0.824   7.015   6.111  1.4863 -1.3125 -0.3221
   75MOL   H11334301   0.700   7.340   6.416 -1.0970  0.7986 -1.0169
   75MOL   H11434302   0.559   7.481   6.550 -1.3787  0.1950  0.9130
   75MOL   H11534303   0.226   7.219   6.476  2.0021 -3.1941  2.7881
   75MOL   H11634304   0.368   7.078   6.325  1.8060  0.8129 -1.6050
   75MOL   O11734305   0.244   7.653   6.730  0.3644  0.0155 -0.1458
   75MOL   C11834306   0.252   7.769   6.647  0.4794 -0.5734  0.0838
   75MOL   C11934307   0.133   7.855   6.703 -0.2588  0.3214  0.3890
   75MOL   O12034308   0.166   7.961   6.791  0.3247 -0.3037  0.2249
   75MOL   C12134309   0.230   8.074   6.752  0.2099 -0.2264  0.0197
   75MOL   O12234310   0.291   8.082   6.643 -0.1078  0.1074  0.4719
   75MOL   C12334311   0.207   8.191   6.843 -0.1377  0.2379  0.2376
   75MOL   C12434312   0.175   8.164   6.984 -0.7592 -0.2563 -0.3472
   75MOL   C12534313   0.158   8.271   7.077 -0.0484 -0.2982  0.0746
   75MOL   C12634314   0.173   0.132   7.031  0.1739 -0.1028  0.5297
   75MOL   C12734315   0.143   0.242   7.123 -0.4544 -0.6925 -0.1358
   75MOL   O12834316   0.059   0.238   7.212  0.6372 -0.1223  0.2048
   75MOL   O12934317   0.200   0.355   7.091 -0.3198 -0.0851 -0.0040
   75MOL   C13034318   0.210   0.152   6.899 -0.3164  0.0975 -0.2561
   75MOL   C13134319   0.238   0.047   6.807 -0.0082 -0.6849  0.3771
   75MOL   H13234320   0.350   7.816   6.657  0.2369 -0.0979  0.2302
   75MOL   H13334321   0.244   7.733   6.544 -0.6468 -3.2251  1.0598
   75MOL   H13434322   0.054   7.790   6.740 -0.5844  0.0597 -0.7283
   75MOL   H13534323   0.092   7.895   6.610  1.3046 -0.5476 -0.6902
   75MOL   H13634324   0.148   8.063   7.010 -2.4709  0.1140 -0.6094
   75MOL   H13734325   0.126   8.254   7.179  0.1755 -2.5968 -0.2136
   75MOL   H13834326   0.230   0.254   6.868 -2.8267  0.2565 -1.5112
   75MOL   H13934327   0.263   0.063   6.703  0.3320 -1.0095  0.4064
   75MOL   O14034328   0.162   0.466   7.180 -0.3380 -0.3163 -0.0129
   75MOL   C14134329   0.276   0.491   7.267  0.2387  0.5199 -0.2922
   75MOL   C14234330   0.400   0.521   7.186 -0.6017 -0.0677  0.4891
   75MOL   O14334331   0.445   0.652   7.195 -0.3812 -0.4991 -0.0276
   75MOL   C14434332   0.496   0.718   7.095 -0.3184  0.7262  0.1785
   75MOL   O14534333   0.508   0.671   6.983 -0.5512 -0.2553  0.1055
   75MOL   C14634334   0.520   0.861   7.131 -0.3735 -0.3808 -0.5010
   75MOL   C14734335   0.532   0.949   7.028  0.6374 -0.0982 -0.5206
   75MOL   C14834336   0.550   1.090   7.053 -0.6306  0.7637  0.5761
   75MOL   C14934337   0.553   1.133   7.187  0.1940  0.0124  0.3054
   75MOL   C15034338   0.564   1.279   7.211 -0.5242  0.2055 -0.0531
   75MOL   O15134339   0.526   1.358   7.128 -0.1549 -0.5432 -0.9100
   75MOL   O15234340   0.616   1.303   7.329  0.0675 -0.3744 -0.1285
   75MOL   C15334341   0.555   1.038   7.292  0.8979  0.2933 -0.3310
   75MOL   C15434342   0.530   0.901   7.263  0.9517  0.1135 -0.1366
   75MOL   H15534343   0.249   0.567   7.341  1.6524  0.7130  0.0405
   75MOL   H15634344   0.300   0.403   7.327 -0.5009  0.6920  0.2662
   75MOL   H15734345   0.373   0.496   7.083  0.0578  0.8231  0.0955
   75MOL   H15834346   0.483   0.462   7.226  1.0699  0.1220 -2.5004
   75MOL   H15934347   0.522   0.902   6.932  1.5525 -1.9084  0.2470
   75MOL   H16034348   0.566   1.166   6.978 -3.1043 -1.3915 -2.3289
   75MOL   H16134349   0.567   1.077   7.392  0.0160 -0.2916  0.0083
   75MOL   H16234350   0.503   0.829   7.339 -0.7014 -0.2825 -1.0856
   75MOL   O16334351   0.641   1.444   7.355  0.0933  0.5020 -0.4033
   75MOL   C16434352   0.592   1.478   7.483  0.0520  0.1768  0.3903
   75MOL   C16534353   0.438   1.482   7.481  0.6013 -0.2712 -0.6091
   75MOL   O16634354   0.395   1.535   7.358  0.4684  0.2598 -0.4169
   75MOL   C16734355   0.370   1.662   7.338 -0.7961  0.1775  0.1778
   75MOL   O16834356   0.394   1.750   7.421 -0.2344 -0.4856  0.4028
   75MOL   C16934357   0.341   1.697   7.196 -0.1879  0.5629  0.4038
   75MOL   C17034358   0.294   1.603   7.104 -0.7202  0.2610  1.3927
   75MOL   C17134359   0.250   1.645   6.977  0.3982  0.0707 -0.2572
   75MOL   C17234360   0.261   1.777   6.941 -0.5499  0.3024  0.7330
   75MOL   C17334361   0.212   1.823   6.813  0.1729 -0.2165 -0.7422
   75MOL   O17434362   0.233   1.932   6.763 -0.6853 -0.7525 -0.1928
   75MOL   O17534363   0.129   1.738   6.753 -0.2127 -0.3137 -0.1937
   75MOL   C17634364   0.316   1.873   7.028  0.3412 -0.3860  0.1146
   75MOL   C17734365   0.358   1.834   7.153  0.9962  0.1575 -0.1845
   75MOL   H17834366   0.613   1.398   7.555 -2.3705 -1.4513 -0.6301
   75MOL   H17934367   0.638   1.570   7.520 -0.9052  0.9263 -0.2615
   75MOL   H18034368   0.402   1.545   7.563  1.6035 -2.1538  1.3390
   75MOL   H18134369   0.394   1.383   7.490 -0.1006  0.0024 -1.0531
   75MOL   H18234370   0.278   1.498   7.125 -1.2726  0.0592  0.0201
   75MOL   H18334371   0.209   1.573   6.908  0.5893  0.6384 -0.9675
   75MOL   H18434372   0.326   1.976   7.000 -0.5273 -0.5423 -0.8010
   75MOL   H18534373   0.371   1.910   7.229  1.0534  0.2272 -0.2653
   75MOL   O18634374   0.064   1.796   6.630 -0.1205  0.2540 -0.5666
   75MOL   C18734375   8.202   1.815   6.663 -0.1640  0.1735  0.0652
   75MOL   C18834376   8.119   1.706   6.589  0.1319  1.0400  0.1452
   75MOL   O18934377   7.973   1.728   6.601  0.4171  0.1000  0.5322
   75MOL   C19034378   7.876   1.639   6.567 -0.3750  0.1299  0.0419
   75MOL   O19134379   7.898   1.518   6.541  0.1988 -0.1799 -0.2301
   75MOL   C19234380   7.744   1.697   6.595  0.3145  0.0818  0.6087
   75MOL   C19334381   7.639   1.607   6.634  0.1422  0.1821  0.0174
   75MOL   C19434382   7.502   1.649   6.656 -0.8494 -0.5266 -0.2524
   75MOL   C19534383   7.472   1.790   6.633  0.0971 -0.3997  0.4553
   75MOL   C19634384   7.337   1.840   6.655 -0.0121  0.0457 -0.4995
   75MOL   O19734385   7.270   1.819   6.756  0.0139 -0.0071  0.1673
   75MOL   O19834386   7.303   1.927   6.568 -0.2603  0.4533 -0.1505
   75MOL   C19934387   7.579   1.882   6.597  0.6602  0.2852 -0.4653
   75MOL   C20034388   7.705   1.835   6.579 -0.3086 -0.1493  0.0132
   75MOL   H20134389   8.177   1.800   6.769 -1.4503 -0.2984 -0.2905
   75MOL   H20234390   8.166   1.910   6.625 -0.3605 -0.0408 -0.2809
   75MOL   H20334391   8.138   1.611   6.638 -1.3062  0.6768  0.0282
   75MOL   H20434392   8.139   1.697   6.483 -1.8942  0.1609 -0.1785
   75MOL   H20534393   7.659   1.503   6.656  0.1653  0.3919  1.0300
   75MOL   H20634394   7.425   1.580   6.683 -0.1898 -0.7160  1.2393
   75MOL   H20734395   7.555   1.986   6.584  0.6515  0.5636  1.5453
   75MOL   H20834396   7.778   1.907   6.546 -0.1288 -0.5779 -0.5437
   75MOL   O20934397   7.164   1.977   6.595  0.4679  0.3254 -0.6304
   75MOL   C21034398   7.078   1.954   6.485 -0.5009  0.2132  0.5711
   75MOL   C21134399   7.065   1.801   6.452  0.2493 -0.3525 -0.7519
   75MOL   O21234400   7.179   1.747   6.387 -0.1082  0.1964  0.6115
   75MOL   C21334401   7.164   1.631   6.321 -0.1151 -0.1425 -0.5452
   75MOL   O21434402   7.060   1.566   6.323  0.3097 -0.9509  0.4723
   75MOL   C21534403   7.292   1.597   6.253  0.8670 -0.4361 -0.0255
   75MOL   C21634404   7.295   1.523   6.135  0.7699 -0.3427  0.3019
   75MOL   C21734405   7.411   1.507   6.055  0.3604  0.2913 -0.2999
   75MOL   C21834406   7.530   1.565   6.107 -0.1994  0.2896  0.2161
   75MOL   C21934407   7.654   1.539   6.031  0.4373 -0.1491 -0.4800
   75MOL   O22034408   7.664   1.509   5.915  0.1551 -0.4243  0.1010
   75MOL   O22134409   7.764   1.549   6.109 -0.1193  0.1887 -0.0896
   75MOL   C22234410   7.526   1.639   6.230 -0.0571 -0.8504 -0.2662
   75MOL   C22334411   7.410   1.650   6.303  0.1696  0.5199  0.8360
   75MOL   H22434412   6.985   2.004   6.512  0.6787  2.5528  0.4446
   75MOL   H22534413   7.134   2.014   6.413 -0.8439 -1.3445 -1.0459
   75MOL   H22634414   6.982   1.784   6.384 -0.3947  0.0884 -0.0721
   75MOL   H22734415   7.052   1.741   6.542 -0.4773  0.5065 -0.2751
   75MOL   H22834416   7.203   1.474   6.110  1.0297 -1.0038  0.6378
   75MOL   H22934417   7.418   1.453   5.962  0.2673  0.2074 -0.2586
   75MOL   H23034418   7.617   1.678   6.274 -1.1458  0.9891  0.3920
   75MOL   H23134419   7.426   1.704   6.395  0.4881 -0.2923  1.2619
   75MOL   O23234420   7.901   1.548   6.037  0.3251  0.4325  0.1156
   75MOL   C23334421   7.940   1.680   5.996 -0.0558  0.5152  0.2683
   75MOL   C23434422   7.962   1.763   6.119  0.0770 -0.4455  0.5449
   75MOL   O23534423   7.851   1.855   6.113  0.3172  0.2697 -0.2279
   75MOL   C23634424   7.842   1.941   6.211  0.4378  0.1899  0.2091
   75MOL   O23734425   7.923   1.960   6.303  0.9816 -0.8904  0.2593
   75MOL   C23834426   7.720   2.027   6.200 -0.4593  0.0950  0.1506
   75MOL   C23934427   7.678   2.089   6.317 -0.2330  0.1443 -0.3010
   75MOL   C24034428   7.555   2.155   6.323  0.4083  0.4133 -0.0409
   75MOL   C24134429   7.468   2.160   6.211  0.7694  0.4627  0.8100
   75MOL   C24234430   7.345   2.243   6.212  0.7106  0.3766 -0.4158
   75MOL   O24334431   7.264   2.249   6.119 -0.3474  0.3374  0.2183
   75MOL   O24434432   7.332   2.318   6.322 -0.5945  0.1928 -0.2567
   75MOL   C24534433   7.507   2.090   6.096 -0.1942  0.8331  0.2903
   75MOL   C24634434   7.631   2.019   6.088 -0.0468 -0.3502 -0.0459
   75MOL   H24734435   8.027   1.673   5.930 -0.5783  2.7961 -0.7238
   75MOL   H24834436   7.865   1.722   5.929  0.0939 -1.6038 -1.2950
   75MOL   H24934437   8.059   1.811   6.120 -0.4099  0.5513  1.0966
   75MOL   H25034438   7.959   1.702   6.209 -2.9939 -0.5391  0.4339
   75MOL   H25134439   7.739   2.088   6.406  0.6538  0.9604 -0.8861
   75MOL   H25234440   7.522   2.198   6.416  0.6776  1.1763 -0.2944
   75MOL   H25334441   7.453   2.100   6.003  0.6300 -1.1393 -0.4125
   75MOL   H25434442   7.662   1.972   5.996  0.5783 -2.3775  1.1738
   75MOL   O25534443   7.216   2.420   6.331 -0.1955 -0.2819  0.0753
   75MOL   C25634444   7.122   2.361   6.414  0.4779  0.4851  0.4495
   75MOL   C25734445   7.003   2.458   6.413  0.0426 -0.6566  0.2560
   75MOL   O25834446   6.960   2.476   6.278 -0.4523  0.0615 -0.1922
   75MOL   C25934447   6.876   2.386   6.210 -0.4551 -0.3168 -0.3566
   75MOL   O26034448   6.831   2.286   6.266  0.0636 -0.5622 -0.7398
   75MOL   C26134449   6.861   2.431   6.067 -0.1679 -0.0303 -0.2506
   75MOL   C26234450   6.786   2.348   5.977  0.0973  0.2370  0.3064
   75MOL   C26334451   6.770   2.387   5.844  0.3767  0.1964 -0.1790
   75MOL   C26434452   6.841   2.502   5.799  0.2521 -0.0338 -0.0882
   75MOL   C26534453   6.823   2.535   5.655  0.0429  0.8075 -0.3764
   75MOL   O26634454   6.718   2.507   5.599 -0.2541 -0.4270 -0.5159
   75MOL   O26734455   6.923   2.600   5.604 -0.0395 -0.0896  0.0303
   75MOL   C26834456   6.927   2.579   5.878  0.1527 -0.2945 -0.7522
   75MOL   C26934457   6.944   2.538   6.011  0.1369  0.7302 -0.0919
   75MOL   H27034458   7.097   2.262   6.376  2.2844  0.6210 -1.2180
   75MOL   H27134459   7.156   2.359   6.517 -1.6035 -1.5025  1.1263
   75MOL   H27234460   7.029   2.558   6.447 -0.7621  0.3434 -1.9832
   75MOL   H27334461   6.922   2.434   6.481 -0.3390 -1.4978 -0.4732
   75MOL   H27434462   6.730   2.265   6.018  1.6286 -1.3326 -0.7386
   75MOL   H27534463   6.701   2.329   5.784  1.0323  0.7631 -1.4929
   75MOL   H27634464   6.985   2.664   5.846 -0.3081  1.2335  2.2835
   75MOL   H27734465   7.018   2.590   6.070  1.2195  0.1145 -0.8699
   75MOL   O27834466   6.908   2.642   5.463 -0.3798  0.3941 -0.1812
   75MOL   C27934467   6.968   2.549   5.374 -0.0086  0.0527  0.3137
   75MOL   C28034468   7.114   2.537   5.402  0.1484 -0.6538  0.5316
   75MOL   O28134469   7.140   2.449   5.504  0.3342  0.0190 -0.0878
   75MOL   C28234470   7.216   2.329   5.475 -0.8014  0.4188 -0.4431
   75MOL   O28334471   7.274   2.313   5.367 -0.6760 -0.5499 -0.3965
   75MOL   C28434472   7.207   2.222   5.581  0.1381  0.1019 -0.1251
   75MOL   C28534473   7.115   2.254   5.688  0.8230  0.2667 -0.0967
   75MOL   C28634474   7.099   2.177   5.797  0.9023  0.4561 -0.8236
   75MOL   C28734475   7.172   2.056   5.802 -0.6959  0.6256 -0.2384
   75MOL   C28834476   7.167   1.961   5.922  0.2534 -0.0464 -0.3937
   75MOL   O28934477   7.248   1.872   5.955 -0.0268  0.1330  0.1203
   75MOL   O29034478   7.055   1.986   5.997 -0.2725 -0.1559 -0.4157
   75MOL   C29134479   7.266   2.023   5.701 -0.4105 -0.1824 -0.5202
   75MOL   C29234480   7.290   2.108   5.590  0.4613  0.5226 -0.2427
   75MOL   H29334481   6.931   2.447   5.387 -3.1674  1.3568  2.3978
   75MOL   H29434482   6.946   2.579   5.272  2.4738 -0.8854 -0.5279
   75MOL   H29534483   7.155   2.631   5.438  0.2993 -0.9595  1.1603
   75MOL   H29634484   7.166   2.521   5.307  1.6006  0.3056  1.1413
   75MOL   H29734485   7.052   2.341   5.686  0.4131  0.0753  2.6644
   75MOL   H29834486   7.019   2.194   5.866 -0.6136 -2.6475 -1.7007
   75MOL   H29934487   7.321   1.930   5.705  0.3063  0.0052 -3.8780
   75MOL   H30034488   7.371   2.088   5.521 -0.3012  0.4291 -1.1193
   75MOL   O30134489   7.039   1.900   6.120 -0.0384  0.0140  0.2436
   75MOL   C30234490   6.953   1.790   6.089 -0.1258 -0.1196  0.4373
   75MOL   C30334491   6.808   1.836   6.077 -0.5497  0.2142 -0.2581
   75MOL   O30434492   6.786   1.891   5.950 -0.5958 -0.3505  0.7517
   75MOL   C30534493   6.757   1.817   5.837 -0.8099  0.0245 -0.5141
   75MOL   O30634494   6.731   1.699   5.837 -0.0881 -0.2027 -0.3468
   75MOL   C30734495   6.762   1.897   5.712  0.2273  0.4350  0.4336
   75MOL   C30834496   6.795   2.032   5.722 -0.1776  0.3073  0.1009
   75MOL   C30934497   6.771   2.117   5.612  0.1453  0.2645  0.2534
   75MOL   C31034498   6.723   2.067   5.487  0.0669 -0.2699 -0.7087
   75MOL   C31134499   6.689   2.155   5.373  0.7257  0.4990 -0.2720
   75MOL   O31234500   6.637   2.119   5.267  0.6743  0.1260 -0.0897
   75MOL   O31334501   6.723   2.283   5.396  0.3061 -0.2376 -0.1207
   75MOL   C31434502   6.688   1.933   5.482  0.0422 -0.3552  0.6101
   75MOL   C31534503   6.711   1.847   5.589 -0.4973  0.7033  0.5055
   75MOL   H31634504   6.987   1.738   6.000 -0.1685 -1.5818  1.2624
   75MOL   H31734505   6.958   1.728   6.179 -0.6654  1.6518  1.7073
   75MOL   H31834506   6.779   1.910   6.151  0.5613 -0.5945  1.0198
   75MOL   H31934507   6.741   1.752   6.098 -1.2575  0.5558 -1.0915
   75MOL   H32034508   6.840   2.075   5.810  1.0395  0.2838 -0.4993
   75MOL   H32134509   6.803   2.220   5.621  0.3294  0.0821  1.9135
   75MOL   H32234510   6.641   1.891   5.395 -0.1217 -0.2873  0.6653
   75MOL   H32334511   6.697   1.740   5.584  2.5999  0.2527  0.6989
   75MOL   O32434512   6.697   2.380   5.282  0.5277 -0.0081 -0.2701
   75MOL   C32534513   6.572   2.443   5.301  0.0761 -0.2782 -0.1575
   75MOL   C32634514   6.555   2.538   5.184 -0.7190 -0.0186 -0.4879
   75MOL   O32734515   6.641   2.650   5.216 -0.1604  0.4023  0.0655
   75MOL   C32834516   6.685   2.719   5.117  0.6061  0.5570  0.0961
   75MOL   O32934517   6.681   2.690   4.996  0.2572  0.0737 -0.2137
   75MOL   C33034518   6.729   2.850   5.175 -0.2025  0.8061  0.2055
   75MOL   C33134519   6.749   2.956   5.084  0.2978  0.1336 -0.6795
   75MOL   C33234520   6.800   3.082   5.133 -0.3493  0.0793  0.3045
   75MOL   C33334521   6.831   3.109   5.269  0.3107 -0.4367  0.4914
   75MOL   C33434522   6.887   3.234   5.317  0.0886  0.3368 -0.8626
   75MOL   O33534523   6.904   3.327   5.239  0.1667 -0.3306 -0.5799
   75MOL   O33634524   6.912   3.240   5.443  0.1835  0.7748 -0.4108
   75MOL   C33734525   6.802   3.003   5.360 -0.3321 -0.4931  0.1224
   75MOL   C33834526   6.752   2.880   5.310 -0.0193 -0.2051 -0.0483
   75MOL   H33934527   6.489   2.372   5.308 -2.6916  2.7776 -0.6903
   75MOL   H34034528   6.560   2.488   5.400 -3.7551  0.4693 -0.8922
   75MOL   H34134529   6.452   2.570   5.167 -0.5189  0.6692 -0.4515
   75MOL   H34234530   6.588   2.496   5.089  0.4255  0.2543 -0.2150
   75MOL   H34334531   6.726   2.945   4.979  1.4415 -0.5633 -0.8558
   75MOL   H34434532   6.802   3.164   5.062  2.8812 -0.3954 -0.2302
   75MOL   H34534533   6.820   3.011   5.466  1.3441  1.4706 -0.2751
   75MOL   H34634534   6.712   2.803   5.375 -0.2814 -0.4110 -0.4525
   75MOL   O34734535   6.983   3.363   5.489 -0.5179  0.3738 -0.1559
   75MOL   C34834536   6.895   3.449   5.562 -0.2458  0.1329  0.1619
   75MOL   C34934537   6.968   3.588   5.576  0.9006  0.0529  0.6992
   75MOL   O35034538   6.984   3.634   5.445  0.0978 -0.1424  0.3641
   75MOL   C35134539   6.887   3.710   5.389 -0.1557  0.3469  0.2119
   75MOL   O35234540   6.784   3.746   5.445 -0.1886  0.2432  0.1523
   75MOL   C35334541   6.909   3.746   5.249 -0.0041  0.1230 -0.6271
   75MOL   C35434542   6.799   3.800   5.174 -0.8808  0.3246 -0.5426
   75MOL   C35534543   6.823   3.833   5.040  0.1240  0.2480 -0.2257
   75MOL   C35634544   6.947   3.804   4.978  0.1937 -0.8205  0.0590
   75MOL   C35734545   6.961   3.816   4.832 -0.0341  0.0413  0.1386
   75MOL   O35834546   6.883   3.873   4.758 -0.1122 -0.3583 -0.1727
   75MOL   O35934547   7.074   3.755   4.784 -0.0531 -0.0069  0.1272
   75MOL   C36034548   7.061   3.768   5.055 -0.0773 -0.3567  0.3573
   75MOL   C36134549   7.038   3.741   5.188 -0.5467  0.6873  0.1204
   75MOL   H36234550   6.806   3.462   5.500  1.0052  4.3960 -0.9251
   75MOL   H36334551   6.867   3.408   5.659  0.0482 -0.7319 -0.1081
   75MOL   H36434552   7.063   3.574   5.628  1.5349 -0.2232 -0.5266
   75MOL   H36534553   6.905   3.652   5.638  1.8533 -1.3685  3.2044
   75MOL   H36634554   6.704   3.813   5.223 -1.1626  1.3031 -1.3270
   75MOL   H36734555   6.743   3.866   4.975 -0.5011  0.5116  0.6656
   75MOL   H36834556   7.161   3.763   5.015  0.2621 -0.5219  1.2234
   75MOL   H36934557   7.121   3.708   5.248 -1.0527  4.0320  2.8168
   75MOL   O37034558   7.098   3.768   4.638  0.2958 -0.4863 -0.6127
   75MOL   C37134559   7.038   3.667   4.567  0.7121 -0.9530 -0.3978
   75MOL   C37234560   7.073   3.678   4.419  0.5690  0.4272 -0.9310
   75MOL   O37334561   6.985   3.585   4.343  0.1680 -0.0765  0.0094
   75MOL   C37434562   7.034   3.471   4.316  0.9756 -0.3711 -0.0996
   75MOL   O37534563   7.144   3.433   4.356  0.4763  0.0930 -0.3044
   75MOL   C37634564   6.958   3.393   4.219 -0.7842 -0.1874 -0.4942
   75MOL   C37734565   6.819   3.408   4.207  0.1720  0.3276 -0.7608
   75MOL   C37834566   6.751   3.332   4.112 -0.6626  0.6959 -0.6667
   75MOL   C37934567   6.812   3.246   4.025 -0.5540  0.2459  0.1644
   75MOL   C38034568   6.721   3.188   3.923 -1.0796 -0.8369 -0.0730
   75MOL   O38134569   6.622   3.248   3.878  0.1262  0.1832 -0.8624
   75MOL   O38234570   6.756   3.065   3.884 -0.0288  0.3046 -0.1348
   75MOL   C38334571   6.953   3.234   4.030  0.3030  0.4816  0.4179
   75MOL   C38434572   7.028   3.306   4.130 -0.2859  0.9686  0.1240
   75MOL   H38534573   7.048   3.569   4.613  0.1159 -0.6262  0.4321
   75MOL   H38634574   6.934   3.695   4.582  0.8525 -0.2311 -0.7581
   75MOL   H38734575   7.178   3.665   4.394  0.0041  0.5607 -3.4937
   75MOL   H38834576   7.061   3.783   4.390  3.0212  1.0638  0.1987
   75MOL   H38934577   6.770   3.484   4.267 -0.1416  1.6171 -2.6205
   75MOL   H39034578   6.645   3.353   4.102 -0.8978 -0.8021 -1.4214
   75MOL   H39134579   7.014   3.176   3.962  0.5102 -0.1265  1.1224
   75MOL   H39234580   7.135   3.298   4.145 -0.3494  2.6390  1.6480
   75MOL   O39334581   6.669   3.021   3.765 -0.1458  0.3036 -0.3857
   75MOL   C39434582   6.754   2.969   3.661  0.1978  0.3611 -0.2855
   75MOL   C39534583   6.665   2.942   3.537 -0.5684 -0.6898  0.2538
   75MOL   O39634584   6.719   2.899   3.417 -0.3505 -0.4510  0.1219
   75MOL   C39734585   6.717   2.762   3.395 -0.1671 -0.5193  0.6622
   75MOL   O39834586   6.681   2.680   3.473 -0.2036  0.3448 -0.3239
   75MOL   C39934587   6.777   2.712   3.267  0.2379 -0.3152  0.2770
   75MOL   C40034588   6.832   2.802   3.175  0.3351 -0.3165  0.3838
   75MOL   C40134589   6.885   2.754   3.051  0.0385  0.2910  0.4809
   75MOL   C40234590   6.905   2.608   3.034 -0.0555 -0.3793  0.9240
   75MOL   C40334591   6.974   2.556   2.913  0.4233 -0.4762 -0.6578
   75MOL   O40434592   7.032   2.449   2.905 -0.4649  0.1043  0.2077
   75MOL   O40534593   6.957   2.651   2.810  0.1492 -0.0642 -0.3450
   75MOL   C40634594   6.868   2.522   3.137 -0.4821  0.2066  0.2806
   75MOL   C40734595   6.802   2.574   3.251 -1.2072 -0.1192  0.8784
   75MOL   H40834596   6.824   3.049   3.635  0.6832  0.1231  0.2771
   75MOL   H40934597   6.798   2.877   3.700 -1.7225 -0.9255 -1.0966
   75MOL   H41034598   6.612   3.035   3.515 -1.7514 -1.1690  0.9997
   75MOL   H41134599   6.579   2.879   3.560 -0.8558  0.1767  1.6167
   75MOL   H41234600   6.825   2.909   3.189 -0.6330 -0.1729 -1.0915
   75MOL   H41334601   6.924   2.819   2.974  1.5524  1.3176  2.0847
   75MOL   H41434602   6.892   2.417   3.129  0.6255  0.2374  2.6622
   75MOL   H41534603   6.764   2.507   3.327  0.9654  0.7285  2.7635
   75MOL   O41634604   7.054   2.629   2.699 -0.9090  0.9086  0.3951
   75MOL   C41734605   6.993   2.586   2.588 -0.1408  0.3840 -0.6944
   75MOL   C41834606   7.100   2.582   2.477  0.1129 -0.0633 -0.3857
   75MOL   O41934607   7.147   2.442   2.460 -0.4907  0.2057  0.5723
   75MOL   C42034608   7.082   2.361   2.374  0.0873 -0.0572 -0.4963
   75MOL   O42134609   6.973   2.392   2.323 -0.0190  0.1926 -0.7013
   75MOL   C42234610   7.152   2.232   2.351 -0.1627  0.0501 -0.4912
   75MOL   C42334611   7.096   2.130   2.267  0.2849 -0.7337  0.4211
   75MOL   C42434612   7.163   2.005   2.252  0.9841 -0.0326  0.2508
   75MOL   C42534613   7.287   1.990   2.315 -0.0667 -0.1458  0.1377
   75MOL   C42634614   7.358   1.863   2.308 -0.4723  0.3039 -0.5205
   75MOL   O42734615   7.302   1.758   2.278  0.5614 -0.0689  0.4200
   75MOL   O42834616   7.493   1.864   2.336  0.4246  0.0559  0.1303
   75MOL   C42934617   7.342   2.089   2.400 -1.0294 -0.5929 -0.4026
   75MOL   C43034618   7.271   2.207   2.419  0.3913 -0.3949  0.2738
   75MOL   H43134619   6.939   2.493   2.606  0.4404 -0.3408 -2.5258
   75MOL   H43234620   6.916   2.653   2.551  1.1356  1.4091 -1.5620
   75MOL   H43334621   7.190   2.639   2.500 -0.4948  0.8261 -0.1915
   75MOL   H43434622   7.057   2.622   2.386  0.2899  2.3610  0.5582
   75MOL   H43534623   7.005   2.146   2.211  1.3951  1.8722 -0.7403
   75MOL   H43634624   7.109   1.928   2.198  1.2767  1.0788 -1.6348
   75MOL   H43734625   7.433   2.080   2.457 -0.8688  1.2117 -0.3535
   75MOL   H43834626   7.325   2.289   2.463  2.6319 -1.3934 -0.5353
   75MOL   O43934627   7.557   1.731   2.329 -0.4880 -0.2195  0.1436
   75MOL   C44034628   7.661   1.740   2.231 -0.3215  0.2561 -0.3842
   75MOL   C44134629   7.589   1.738   2.096 -0.1758  0.3703  0.0195
   75MOL   O44234630   7.660   1.683   1.988 -1.3043 -1.3348  0.6094
   75MOL   C44334631   7.653   1.551   1.959 -0.3010 -0.1968 -0.4267
   75MOL   O44434632   7.581   1.462   2.008  0.1248  0.7321  0.7574
   75MOL   C44534633   7.750   1.512   1.852 -0.2255 -0.1491  0.7684
   75MOL   C44634634   7.773   1.376   1.830  0.4465 -0.1558  0.4071
   75MOL   C44734635   7.868   1.338   1.734  0.7265  0.5972  0.5746
   75MOL   C44834636   7.938   1.440   1.660 -0.6150  0.3672  0.9266
   75MOL   C44934637   8.056   1.393   1.583  0.6102 -0.1724 -0.8394
   75MOL   O45034638   8.139   1.474   1.551 -0.1298 -0.1044 -0.0891
   75MOL   O45134639   8.070   1.255   1.578  0.4140  0.5344 -0.5598
   75MOL   C45234640   7.918   1.576   1.686 -0.1121  0.2298 -0.4779
   75MOL   C45334641   7.821   1.613   1.779  0.0416  0.0170 -0.5143
   75MOL   H45434642   7.714   1.833   2.251 -0.8844  0.7133 -0.9890
   75MOL   H45534643   7.733   1.661   2.252  0.2307  0.7302 -0.4803
   75MOL   H45634644   7.548   1.837   2.073 -0.5186  0.5517  1.3747
   75MOL   H45734645   7.503   1.674   2.114  0.1125  0.2187  0.8966
   75MOL   H45834646   7.729   1.304   1.896 -1.4731  0.5649 -0.0494
   75MOL   H45934647   7.886   1.232   1.719  3.0302  1.0295  0.0994
   75MOL   H46034648   7.981   1.650   1.636 -0.5739  1.3466  0.5760
   75MOL   H46134649   7.796   1.715   1.803 -0.5118 -0.4933  1.1289
   75MOL   H46234650   8.162   1.234   1.575  1.0179  2.6926  1.6430
   76MOL     O134651   7.969   0.393   5.911 -0.4238  0.1059  0.1822
   76MOL     C234652   7.986   0.334   6.042  0.4031  0.2832 -0.5053
   76MOL     C334653   8.137   0.298   6.064  0.1710 -0.2752  1.0330
   76MOL     O434654   8.208   0.402   6.130  0.3519  0.2872  0.0038
   76MOL     C534655   8.268   0.504   6.056  0.5775  0.2105  0.7739
   76MOL     O634656   8.273   0.512   5.939 -0.2453  0.2352  0.3761
   76MOL     C734657   0.057   0.612   6.132 -0.0934 -0.5907  0.1260
   76MOL     C834658   0.130   0.716   6.064 -0.3536 -0.3212 -0.2418
   76MOL     C934659   0.174   0.828   6.137 -0.4711 -0.7297 -0.2470
   76MOL    C1034660   0.165   0.831   6.277  0.3795 -0.2153  0.0325
   76MOL    C1134661   0.202   0.958   6.348  0.3411  0.1005  0.0715
   76MOL    O1234662   0.218   1.065   6.296  0.3020  0.3128  0.3352
   76MOL    O1334663   0.222   0.938   6.483  0.0216  1.0853  0.0675
   76MOL    C1434664   0.105   0.722   6.347  0.2995 -0.3094 -0.5755
   76MOL    C1534665   0.048   0.613   6.277 -0.3596 -0.2417 -0.7896
   76MOL    H1634666   7.951   0.396   6.126  2.3225  2.5395 -1.3271
   76MOL    H1734667   7.936   0.237   6.052  1.0489  0.2517  2.9385
   76MOL    H1834668   8.187   0.273   5.970 -0.1759 -0.6989  0.9556
   76MOL    H1934669   8.139   0.203   6.118  0.3999 -0.6225  0.4206
   76MOL    H2034670   0.131   0.707   5.956  0.8112  1.7205 -0.4137
   76MOL    H2134671   0.216   0.907   6.077  1.1823 -2.1354 -0.9912
   76MOL    H2234672   0.097   0.721   6.455 -0.3835 -0.0675 -0.6232
   76MOL    H2334673   8.272   0.527   6.318 -1.3904  0.6868 -0.0938
   76MOL    H2434674   8.024   0.469   5.910  0.4315 -0.5023  0.0260
   76MOL    O2534675   0.267   1.055   6.564  0.0421  0.2330 -0.2998
   76MOL    C2634676   0.403   1.031   6.577  0.2871 -0.1979 -0.4257
   76MOL    C2734677   0.473   1.147   6.654  0.0168  0.4537 -0.8825
   76MOL    O2834678   0.453   1.268   6.579 -0.0783  0.2273 -0.5271
   76MOL    C2934679   0.401   1.378   6.630 -0.5037  0.2775  0.6077
   76MOL    O3034680   0.374   1.396   6.748 -0.0256  0.2644 -0.5559
   76MOL    C3134681   0.374   1.481   6.530  0.0533 -0.6582 -0.5246
   76MOL    C3234682   0.352   1.432   6.403  0.1317 -0.1220  0.7617
   76MOL    C3334683   0.334   1.528   6.300  0.0890  0.2275  0.6659
   76MOL    C3434684   0.328   1.667   6.327  0.3510  1.5594 -0.5956
   76MOL    C3534685   0.322   1.767   6.215  0.2229 -0.4525 -0.6095
   76MOL    O3634686   0.360   1.888   6.227 -0.1389  0.2005 -0.8012
   76MOL    O3734687   0.296   1.712   6.100 -0.0030 -0.0627  0.1241
   76MOL    C3834688   0.351   1.713   6.460  1.1001 -0.4368 -0.3834
   76MOL    C3934689   0.368   1.613   6.564 -0.1180 -0.2775  0.2642
   76MOL    H4034690   0.409   0.934   6.625 -1.5207  0.4817  1.2719
   76MOL    H4134691   0.462   1.037   6.486  1.7255 -0.5565  0.4736
   76MOL    H4234692   0.579   1.123   6.665  0.3187  0.7471 -3.0058
   76MOL    H4334693   0.419   1.149   6.749 -2.4412  2.4215 -2.2761
   76MOL    H4434694   0.364   1.328   6.377 -0.2488  0.1091 -0.3958
   76MOL    H4534695   0.322   1.495   6.198 -0.2726  1.8317  0.1748
   76MOL    H4634696   0.351   1.818   6.486  0.1554 -0.2075 -1.2637
   76MOL    H4734697   0.381   1.638   6.668  1.7964 -1.5224  0.3354
   76MOL    O4834698   0.333   1.808   5.985 -0.0254  0.1705  0.3552
   76MOL    C4934699   0.231   1.899   5.942 -0.1437  0.1942 -0.3756
   76MOL    C5034700   0.112   1.816   5.880 -0.4593  0.0523 -0.1868
   76MOL    O5134701   0.066   1.737   5.988  0.2527 -0.1418 -0.1917
   76MOL    C5234702   0.056   1.602   5.953 -0.5479  0.5631 -0.0607
   76MOL    O5334703   0.051   1.562   5.836  0.5409  0.4245  0.3329
   76MOL    C5434704   0.038   1.503   6.069  0.2217 -1.1548 -0.2453
   76MOL    C5534705   0.045   1.365   6.052  0.0184  0.0665  0.6773
   76MOL    C5634706   0.004   1.279   6.157  0.0050  0.6961  0.8596
   76MOL    C5734707   8.254   1.329   6.286 -0.4853 -0.5139  0.2633
   76MOL    C5834708   8.214   1.239   6.401  0.8752  0.1000 -0.0394
   76MOL    O5934709   8.227   1.120   6.400 -0.0929 -0.4917 -0.7334
   76MOL    O6034710   8.175   1.304   6.510 -0.3588 -0.5635 -0.4687
   76MOL    C6134711   8.258   1.471   6.313  0.4338  0.5997  0.8862
   76MOL    C6234712   0.003   1.552   6.199  0.1314  0.2352  0.1832
   76MOL    H6334713   0.207   1.966   6.025  4.3795  0.5058  0.8439
   76MOL    H6434714   0.288   1.960   5.872  0.3770  0.9809  0.7241
   76MOL    H6534715   0.151   1.763   5.794  3.0525  1.0858  0.7018
   76MOL    H6634716   0.032   1.883   5.847 -0.8658 -0.5267 -0.3727
   76MOL    H6734717   0.057   1.328   5.951 -1.7205  0.9369  0.1345
   76MOL    H6834718   8.269   1.172   6.144  0.1814  0.9973 -1.9986
   76MOL    H6934719   8.248   1.524   6.407  1.9277 -0.6843  1.7943
   76MOL    H7034720   8.262   1.658   6.214 -1.0675 -0.0097  0.7283
   76MOL    O7134721   8.127   1.204   6.622  0.6573  0.4199  0.2020
   76MOL    C7234722   7.983   1.208   6.636 -0.3517 -0.4333 -0.4279
   76MOL    C7334723   7.955   1.111   6.751 -0.0815 -0.3313 -0.2872
   76MOL    O7434724   7.982   0.971   6.716  0.4460  0.6369  0.0979
   76MOL    C7534725   7.881   0.878   6.731  0.2798  0.5930 -0.7551
   76MOL    O7634726   7.779   0.906   6.795 -0.2381 -0.0764 -0.1262
   76MOL    C7734727   7.900   0.748   6.662  0.2368 -1.0220 -1.0051
   76MOL    C7834728   7.984   0.730   6.550 -0.6109  0.1760 -0.5973
   76MOL    C7934729   7.990   0.603   6.487 -0.0925 -0.1290 -0.6464
   76MOL    C8034730   7.911   0.493   6.534 -0.3052  0.0532 -0.1532
   76MOL    C8134731   7.933   0.360   6.474  0.3259 -0.2424  0.7423
   76MOL    O8234732   8.006   0.335   6.382  0.0967  0.1670  0.1871
   76MOL    O8334733   7.866   0.270   6.547 -0.5319  0.2855 -0.5068
   76MOL    C8434734   7.828   0.511   6.652  0.2294 -0.4537  1.1121
   76MOL    C8534735   7.823   0.639   6.717  0.4576  1.7690  0.0488
   76MOL    H8634736   7.969   1.311   6.665  1.0277  0.3097 -2.2405
   76MOL    H8734737   7.930   1.184   6.544 -1.3484  0.2167 -0.0181
   76MOL    H8834738   7.853   1.119   6.790  0.3138 -0.6419  0.8291
   76MOL    H8934739   8.020   1.136   6.835  0.4408 -0.7921 -0.5513
   76MOL    H9034740   8.052   0.807   6.517 -2.0815  2.1690  0.9458
   76MOL    H9134741   8.058   0.595   6.404  0.3653  1.2160 -0.4292
   76MOL    H9234742   7.770   0.428   6.690  1.7289 -2.1942 -0.3410
   76MOL    H9334743   7.754   0.648   6.800 -2.1086 -0.2725 -1.7994
   76MOL    O9434744   7.923   0.133   6.551  0.5206  0.1885 -0.0142
   76MOL    C9534745   7.837   0.047   6.488  0.7038  0.6492 -0.3007
   76MOL    C9634746   7.868   0.040   6.333  0.1221  0.6824 -0.6359
   76MOL    O9734747   7.765   8.227   6.280  0.1509 -0.2285  0.1249
   76MOL    C9834748   7.777   8.181   6.162  0.7781 -0.5063 -0.0236
   76MOL    O9934749   7.867   8.206   6.082  0.2048 -0.1781 -0.1757
   76MOL   C10034750   7.664   8.086   6.141 -0.8051  0.4555 -0.2566
   76MOL   C10134751   7.637   8.042   6.010  0.3566 -0.0706 -0.2590
   76MOL   C10234752   7.527   7.959   5.983 -0.3345 -0.1962 -0.0493
   76MOL   C10334753   7.441   7.913   6.082  0.5591 -0.3119  0.5425
   76MOL   C10434754   7.328   7.832   6.040 -0.2592 -0.1571  0.1926
   76MOL   O10534755   7.302   7.807   5.920  0.2238 -0.3173  0.1854
   76MOL   O10634756   7.262   7.784   6.141  0.9743 -0.2176  0.1363
   76MOL   C10734757   7.471   7.947   6.215  0.4434 -0.4296 -0.4743
   76MOL   C10834758   7.585   8.031   6.244 -1.0859 -0.6060  0.1437
   76MOL   H10934759   7.836   8.220   6.525  2.9734  0.1602 -1.5152
   76MOL   H11034760   7.736   0.065   6.524  1.6432 -0.6229  3.1233
   76MOL   H11134761   7.974   0.021   6.322  0.3179  1.3337  0.1338
   76MOL   H11234762   7.861   0.142   6.297  0.1755  1.2580  0.9510
   76MOL   H11334763   7.702   8.065   5.927  0.4618  2.7248  0.5537
   76MOL   H11434764   7.518   7.916   5.885 -2.4209  1.2568 -0.5278
   76MOL   H11534765   7.407   7.927   6.299  0.7095 -1.5976 -0.5355
   76MOL   H11634766   7.605   8.048   6.349  0.1592  1.6671 -0.4151
   76MOL   O11734767   7.148   7.682   6.109 -0.5418 -0.2146 -0.0634
   76MOL   C11834768   7.028   7.742   6.138  0.4731 -0.4786  0.4580
   76MOL   C11934769   7.000   7.734   6.288 -0.2743  0.0993 -0.5542
   76MOL   O12034770   6.930   7.847   6.331  0.0904  0.3963  0.8041
   76MOL   C12134771   7.001   7.951   6.366 -0.0330 -0.3110 -0.1245
   76MOL   O12234772   7.124   7.965   6.354  0.6843  0.1757  0.5081
   76MOL   C12334773   6.924   8.052   6.432  1.3272  0.1050 -0.4584
   76MOL   C12434774   6.967   8.187   6.447 -0.2487  0.2584  0.1927
   76MOL   C12534775   6.892   0.008   6.509 -0.8034 -0.4828  0.1548
   76MOL   C12634776   6.767   8.253   6.565  0.7865 -0.4162  0.5036
   76MOL   C12734777   6.675   0.073   6.638  0.6077 -0.1024  0.0998
   76MOL   O12834778   6.551   0.060   6.650 -0.0651  0.4195  0.0687
   76MOL   O12934779   6.739   0.185   6.679  0.0341 -0.0530 -0.4169
   76MOL   C13034780   6.724   8.119   6.564  0.1377 -0.0775 -0.1612
   76MOL   C13134781   6.805   8.019   6.501  0.4302  0.4492 -0.0069
   76MOL   H13234782   7.038   7.841   6.093 -0.5306 -0.8912 -0.7139
   76MOL   H13334783   6.942   7.706   6.081  0.1637  0.8253  0.0714
   76MOL   H13434784   7.094   7.715   6.340 -2.0402 -2.6238  1.7672
   76MOL   H13534785   6.948   7.642   6.316  1.7894 -0.7170  0.7429
   76MOL   H13634786   7.058   8.218   6.397 -0.9864  1.0292 -0.6901
   76MOL   H13734787   6.936   0.107   6.500  2.8987 -2.2350 -2.2210
   76MOL   H13834788   6.638   8.090   6.622 -0.2020  1.4291  0.0995
   76MOL   H13934789   6.765   7.919   6.497  0.1997  0.4968  1.0048
   76MOL   O14034790   6.641   0.295   6.733  0.0823 -0.0172  0.5921
   76MOL   C14134791   6.646   0.404   6.643 -0.1153  0.3845 -0.2266
   76MOL   C14234792   6.621   0.531   6.723  0.1640 -0.4306 -0.4378
   76MOL   O14334793   6.742   0.542   6.799  0.7393  0.1780  0.6906
   76MOL   C14434794   6.792   0.664   6.828  0.1702 -0.5162 -0.8997
   76MOL   O14534795   6.733   0.772   6.804  0.8155  0.0447  0.8935
   76MOL   C14634796   6.916   0.658   6.912  0.0600 -0.7054 -0.6106
   76MOL   C14734797   6.972   0.535   6.954 -0.0836  0.2238  0.3101
   76MOL   C14834798   7.087   0.523   7.033  0.1862  0.0385 -0.2780
   76MOL   C14934799   7.165   0.640   7.053  0.2032 -0.0692  0.5365
   76MOL   C15034800   7.298   0.635   7.121  0.2941  0.0372  0.0355
   76MOL   O15134801   7.357   0.528   7.157 -0.0608 -0.2463 -0.4541
   76MOL   O15234802   7.351   0.755   7.142 -0.4754 -0.8883  0.3201
   76MOL   C15334803   7.120   0.764   7.001  0.0034  0.5327 -0.2645
   76MOL   C15434804   6.990   0.774   6.937 -0.4326  0.6347  0.1606
   76MOL   H15534805   6.741   0.399   6.590  0.9364  0.2121  1.6336
   76MOL   H15634806   6.572   0.392   6.564  0.1390  0.9994 -0.5601
   76MOL   H15734807   6.531   0.521   6.783  0.4309 -0.7170 -0.0792
   76MOL   H15834808   6.608   0.611   6.651 -3.5212  1.6049  2.3569
   76MOL   H15934809   6.930   0.440   6.923 -0.1739  1.1855 -2.6569
   76MOL   H16034810   7.121   0.424   7.061 -1.0307 -0.9193 -2.1223
   76MOL   H16134811   7.180   0.853   7.004  0.6337  0.0710  2.0390
   76MOL   H16234812   6.943   0.862   6.896 -0.9816 -0.2031 -1.0595
   76MOL   O16334813   7.440   0.765   7.266  0.0492 -0.2691 -0.2101
   76MOL   C16434814   7.403   0.876   7.350  0.4182 -0.2724 -0.6117
   76MOL   C16534815   7.267   0.852   7.421  0.5430 -0.2572 -0.0319
   76MOL   O16634816   7.224   0.968   7.485  0.9730  1.3090  0.7531
   76MOL   C16734817   7.169   1.068   7.402  0.2250 -0.7187  0.2967
   76MOL   O16834818   7.164   1.059   7.280 -0.3133 -0.0495 -0.4409
   76MOL   C16934819   7.121   1.189   7.481  0.1949  0.0795 -0.5986
   76MOL   C17034820   7.155   1.211   7.616 -0.4217 -0.4046  0.6735
   76MOL   C17134821   7.113   1.327   7.690  0.2642 -0.2408  0.2217
   76MOL   C17234822   7.041   1.429   7.627  0.0600  0.2688 -0.0551
   76MOL   C17334823   7.002   1.545   7.707  0.1508 -0.3378  0.3127
   76MOL   O17434824   7.062   1.579   7.813 -0.1744  0.7303  0.1026
   76MOL   O17534825   6.891   1.609   7.655  0.7840  0.1412 -0.1712
   76MOL   C17634826   6.999   1.403   7.495  0.7036 -0.7642 -0.4322
   76MOL   C17734827   7.045   1.290   7.424  0.3492 -0.4880  0.8858
   76MOL   H17834828   7.488   0.906   7.412  2.2789 -2.8444 -1.8607
   76MOL   H17934829   7.407   0.967   7.290  1.5007  1.4378  1.9457
   76MOL   H18034830   7.272   0.772   7.495 -2.4709 -0.5370 -0.0627
   76MOL   H18134831   7.198   0.822   7.343  1.4881 -0.6570 -0.7314
   76MOL   H18234832   7.216   1.134   7.662 -0.3783 -0.5340  0.4006
   76MOL   H18334833   7.134   1.341   7.795  0.2990 -2.2486  0.5106
   76MOL   H18434834   6.917   1.463   7.457 -0.1698 -0.4931  1.7963
   76MOL   H18534835   7.008   1.266   7.325  1.5899 -3.0268  0.9874
   76MOL   O18634836   6.865   1.738   7.715 -0.2613  0.3250  0.1885
   76MOL   C18734837   6.752   1.731   7.799  0.2008  0.9842 -1.0089
   76MOL   C18834838   6.724   1.865   7.862 -0.2241 -0.4867  0.1408
   76MOL   O18934839   6.713   1.963   7.762  0.3576 -0.2447 -0.4568
   76MOL   C19034840   6.596   2.000   7.719  0.3223 -0.4396  1.3431
   76MOL   O19134841   6.484   1.961   7.762  0.1149 -0.3105 -0.4021
   76MOL   C19234842   6.611   2.105   7.612  0.1511 -0.3148 -0.7788
   76MOL   C19334843   6.501   2.173   7.559 -0.1221 -0.1409  0.5350
   76MOL   C19434844   6.509   2.263   7.444  0.0260 -0.4175 -0.2777
   76MOL   C19534845   6.635   2.292   7.389 -0.5519  0.3310  0.0223
   76MOL   C19634846   6.643   2.363   7.263  0.1703  0.1001 -0.3326
   76MOL   O19734847   6.749   2.352   7.202 -0.8247 -0.3143 -0.0562
   76MOL   O19834848   6.536   2.435   7.229  0.4738  0.2353 -0.0798
   76MOL   C19934849   6.753   2.226   7.440 -0.1795  0.6090  0.5783
   76MOL   C20034850   6.734   2.136   7.551  0.6912  0.2615 -0.3180
   76MOL   H20134851   6.656   1.697   7.761 -0.2818  0.4198  0.6816
   76MOL   H20234852   6.775   1.668   7.885  1.9018  1.9580 -0.7153
   76MOL   H20334853   6.801   1.890   7.936  0.6746  1.3690 -1.3811
   76MOL   H20434854   6.634   1.857   7.922 -0.4431 -3.4155 -0.4976
   76MOL   H20534855   6.401   2.150   7.593 -0.3560  0.5426  0.3281
   76MOL   H20634856   6.425   2.296   7.385 -0.9700 -1.8622  0.3078
   76MOL   H20734857   6.846   2.236   7.385 -0.8444 -0.4237 -0.7557
   76MOL   H20834858   6.819   2.080   7.587  1.0503  0.0416 -1.4636
   76MOL   O20934859   6.557   2.541   7.125 -0.0869  0.0201  0.1242
   76MOL   C21034860   6.581   2.662   7.192 -0.1866 -0.0764 -0.5700
   76MOL   C21134861   6.606   2.780   7.098  1.0572 -0.0347  0.4212
   76MOL   O21234862   6.729   2.753   7.025 -0.1039 -0.0575  0.5650
   76MOL   C21334863   6.773   2.835   6.932 -0.3915 -0.0457  0.2413
   76MOL   O21434864   6.724   2.945   6.909  0.2503 -0.3138  0.8501
   76MOL   C21534865   6.900   2.784   6.877 -0.1868  0.3374 -0.4227
   76MOL   C21634866   6.954   2.867   6.778  0.0656 -0.1704 -0.1774
   76MOL   C21734867   7.070   2.831   6.708 -0.1880 -0.6209 -0.3656
   76MOL   C21834868   7.129   2.706   6.732 -0.1842 -0.3638  0.0558
   76MOL   C21934869   7.244   2.665   6.642 -0.0502 -0.2024 -0.8762
   76MOL   O22034870   7.282   2.735   6.550 -0.3809  0.0288  0.2189
   76MOL   O22134871   7.294   2.546   6.671  0.1011 -0.0812 -0.0310
   76MOL   C22234872   7.076   2.625   6.835  0.0144  0.1503 -0.3659
   76MOL   C22334873   6.962   2.663   6.911 -0.4374  0.1318  0.3649
   76MOL   H22434874   6.492   2.683   7.251  2.1039 -0.9418  3.3071
   76MOL   H22534875   6.647   2.645   7.276 -1.7198 -1.0804  0.4479
   76MOL   H22634876   6.599   2.873   7.154  0.9482 -0.9252  1.9371
   76MOL   H22734877   6.520   2.805   7.036  0.3335  0.4234  1.5723
   76MOL   H22834878   6.912   2.964   6.754  0.2523  0.2181  1.0351
   76MOL   H22934879   7.112   2.899   6.635 -0.4659  1.4517  1.3732
   76MOL   H23034880   7.126   2.536   6.869  0.5862 -0.4407 -2.6739
   76MOL   H23134881   6.930   2.596   6.989  3.6730 -1.2338  0.9937
   76MOL   O23234882   7.391   2.501   6.569  0.1958 -0.7252 -0.0629
   76MOL   C23334883   7.523   2.523   6.619  0.2932  0.5027  0.7532
   76MOL   C23434884   7.569   2.391   6.683  0.4385  0.0922 -0.1421
   76MOL   O23534885   7.495   2.348   6.794 -0.5728  0.1761 -0.2456
   76MOL   C23634886   7.394   2.252   6.783  0.6584  0.2795 -0.6454
   76MOL   O23734887   7.357   2.195   6.680  0.2055  0.4848  0.2888
   76MOL   C23834888   7.317   2.223   6.911  0.5791  0.4679  0.5529
   76MOL   C23934889   7.355   2.296   7.029  0.6572 -0.3061  0.0065
   76MOL   C24034890   7.275   2.270   7.146 -0.1161  0.5403 -0.6367
   76MOL   C24134891   7.176   2.166   7.151  0.0403 -0.4023  0.3504
   76MOL   C24234892   7.105   2.140   7.274 -0.1167  0.2469  0.5003
   76MOL   O24334893   7.118   2.209   7.377 -0.0231  0.3253  0.6480
   76MOL   O24434894   7.023   2.028   7.263  0.6161 -0.5614 -0.3242
   76MOL   C24534895   7.155   2.095   7.030  0.3619 -0.4078  0.3384
   76MOL   C24634896   7.216   2.129   6.909 -0.8696 -0.5874 -0.0729
   76MOL   H24734897   7.587   2.545   6.534  1.8821 -1.4312  1.4088
   76MOL   H24834898   7.524   2.612   6.682  1.5175  1.5178 -0.6588
   76MOL   H24934899   7.675   2.396   6.707  1.0886  1.6151 -3.0677
   76MOL   H25034900   7.562   2.313   6.607  1.0671 -1.2511  1.1366
   76MOL   H25134901   7.438   2.366   7.027  0.4222 -0.0043  0.6652
   76MOL   H25234902   7.311   2.315   7.237  1.6274  0.3879 -1.2324
   76MOL   H25334903   7.081   2.017   7.022  1.6425 -1.6139  0.0118
   76MOL   H25434904   7.196   2.074   6.818  0.8109  0.6291 -1.2068
   76MOL   O25534905   6.980   1.971   7.397  0.0508  0.6879  0.1080
   76MOL   C25634906   7.048   1.851   7.409 -0.4824  0.2369  0.0123
   76MOL   C25734907   6.984   1.735   7.331  0.0540  0.7540 -0.7401
   76MOL   O25834908   6.848   1.726   7.365  0.0470  0.4133  0.3717
   76MOL   C25934909   6.756   1.794   7.302 -0.0482  0.0275  0.0276
   76MOL   O26034910   6.783   1.877   7.213 -0.3365  0.7564  0.4594
   76MOL   C26134911   6.623   1.785   7.365  1.1545 -0.3746 -0.2106
   76MOL   C26234912   6.531   1.897   7.358 -0.2154 -0.4083 -0.9264
   76MOL   C26334913   6.394   1.881   7.404  0.3417  0.2484  0.7259
   76MOL   C26434914   6.352   1.761   7.470 -0.4055 -0.0863  0.3426
   76MOL   C26534915   6.218   1.761   7.527 -0.0494 -0.6109  0.0464
   76MOL   O26634916   6.157   1.866   7.553  0.5803 -0.2677 -0.2347
   76MOL   O26734917   6.173   1.635   7.542  0.9546  0.0073  0.3730
   76MOL   C26834918   6.443   1.654   7.475  0.0638  1.0894  0.6118
   76MOL   C26934919   6.581   1.670   7.438  0.1201 -0.0625 -0.5306
   76MOL   H27034920   7.154   1.865   7.391 -0.8871  0.5414 -2.2370
   76MOL   H27134921   7.047   1.819   7.513 -2.3526  3.1417  0.9574
   76MOL   H27234922   7.024   1.637   7.356 -1.1975  0.2703 -0.6214
   76MOL   H27334923   7.002   1.750   7.225 -3.2248  0.0073 -1.4586
   76MOL   H27434924   6.557   1.989   7.308  2.6762 -1.0169 -0.6030
   76MOL   H27534925   6.333   1.970   7.397 -2.1740 -1.5492 -1.3271
   76MOL   H27634926   6.423   1.560   7.524 -0.7902  0.1421 -1.5325
   76MOL   H27734927   6.651   1.589   7.448 -0.9591 -1.0152 -0.5279
   76MOL   O27834928   6.041   1.611   7.608 -0.2071 -0.6808 -0.5891
   76MOL   C27934929   5.937   1.617   7.515 -0.4676  0.4405 -0.9357
   76MOL   C28034930   5.914   1.481   7.443 -0.6997  0.2165 -0.3008
   76MOL   O28134931   5.821   1.505   7.346 -0.5079 -0.0918 -0.4389
   76MOL   C28234932   5.772   1.396   7.288  0.8923  0.2415 -0.2828
   76MOL   O28334933   5.821   1.281   7.292  0.0173 -0.1888 -0.2136
   76MOL   C28434934   5.640   1.418   7.222  0.1862  0.2865 -0.0369
   76MOL   C28534935   5.596   1.551   7.205 -0.4308  0.0390  0.1270
   76MOL   C28634936   5.469   1.577   7.143 -0.3487 -0.0269  0.2031
   76MOL   C28734937   5.378   1.475   7.116 -0.4050  0.5203 -0.1686
   76MOL   C28834938   5.239   1.503   7.072 -0.8026  0.5711  0.4371
   76MOL   O28934939   5.172   1.417   7.014  0.0392  0.0927 -0.0273
   76MOL   O29034940   5.185   1.623   7.108 -0.4344  0.3420  0.6446
   76MOL   C29134941   5.422   1.346   7.132  0.3552  0.1494 -0.4959
   76MOL   C29234942   5.554   1.313   7.183  0.3181 -0.1556 -0.0723
   76MOL   H29334943   5.846   1.638   7.571  0.1309  1.8971 -0.4790
   76MOL   H29434944   5.940   1.701   7.447 -0.6970  1.3328  0.1349
   76MOL   H29534945   5.899   1.407   7.522 -1.8435  0.2627 -0.4661
   76MOL   H29634946   6.013   1.468   7.397 -2.3223 -2.5013 -3.2545
   76MOL   H29734947   5.667   1.632   7.218  0.5754 -0.7164 -0.5620
   76MOL   H29834948   5.448   1.681   7.121  0.9637  0.2582  0.2588
   76MOL   H29934949   5.349   1.268   7.117  0.1031  0.5329 -1.2683
   76MOL   H30034950   5.572   1.214   7.221 -1.3735 -0.3752  0.2053
   76MOL   O30134951   5.037   1.644   7.063 -0.8608 -0.0915 -0.1338
   76MOL   C30234952   4.953   1.643   7.178 -0.5693  0.2004  0.1668
   76MOL   C30334953   4.955   1.512   7.264  0.5169  0.6906 -0.4205
   76MOL   O30434954   4.853   1.495   7.371  0.3316  0.2092  0.1903
   76MOL   C30534955   4.893   1.506   7.492 -0.1987  0.4667 -0.8944
   76MOL   O30634956   5.010   1.531   7.524  0.1705 -0.0917 -0.8497
   76MOL   C30734957   4.785   1.499   7.597  0.7191  0.0270  0.3225
   76MOL   C30834958   4.651   1.519   7.554 -0.0104 -0.1472  0.0443
   76MOL   C30934959   4.551   1.527   7.648  0.5284  0.0777 -0.2290
   76MOL   C31034960   4.580   1.512   7.787  0.2923 -1.0560  0.5417
   76MOL   C31134961   4.469   1.530   7.880  0.2479  0.2255  0.5605
   76MOL   O31234962   4.353   1.519   7.855  0.7811 -0.0755 -0.1391
   76MOL   O31334963   4.519   1.567   7.996  0.7478 -0.1600  0.0476
   76MOL   C31434964   4.711   1.498   7.828 -0.2255 -0.2982 -0.8205
   76MOL   C31534965   4.812   1.486   7.734  0.0813  0.6407 -0.7626
   76MOL   H31634966   4.983   1.713   7.256 -0.4876  0.9424 -0.5353
   76MOL   H31734967   4.851   1.652   7.139 -1.0459 -0.9961  1.0756
   76MOL   H31834968   5.056   1.490   7.298  1.3353  4.1716 -0.3866
   76MOL   H31934969   4.941   1.434   7.190  0.1050  1.2331 -0.9232
   76MOL   H32034970   4.616   1.526   7.452 -1.7038 -1.2924  0.5138
   76MOL   H32134971   4.449   1.538   7.614 -0.3617  0.1162  2.3121
   76MOL   H32234972   4.733   1.505   7.934  2.7704  1.1329 -1.4655
   76MOL   H32334973   4.914   1.470   7.768  0.2059 -0.4636 -1.6163
   76MOL   O32434974   4.432   1.594   8.108  0.1901 -0.3191 -0.4172
   76MOL   C32534975   4.460   1.505   8.209  0.0365 -0.0354 -0.0655
   76MOL   C32634976   4.389   1.540   0.070  0.3185  0.2624 -0.4447
   76MOL   O32734977   4.470   1.640   0.127  0.6197  0.0606  0.6312
   76MOL   C32834978   4.544   1.612   0.226 -0.2447 -0.0749 -0.9566
   76MOL   O32934979   4.545   1.506   0.288 -0.3032  0.2694  0.9287
   76MOL   C33034980   4.618   1.734   0.269  0.9010  0.1486  0.3224
   76MOL   C33134981   4.680   1.730   0.400 -0.2812 -0.0535 -0.0459
   76MOL   C33234982   4.767   1.835   0.447 -0.1097  0.4422  0.0111
   76MOL   C33334983   4.788   1.948   0.361  0.0563  0.0467 -0.0825
   76MOL   C33434984   4.873   2.058   0.400  0.4101 -1.0771 -0.5542
   76MOL   O33534985   4.909   2.149   0.329  0.1535 -0.1832 -0.1825
   76MOL   O33634986   4.908   2.050   0.539  0.4821 -0.5632  0.5290
   76MOL   C33734987   4.719   1.956   0.234 -0.3436 -0.0104 -0.4900
   76MOL   C33834988   4.629   1.853   0.192  0.2627 -0.0351 -0.1038
   76MOL   H33934989   4.405   1.427   8.156  0.6342  1.0726 -2.4291
   76MOL   H34034990   4.561   1.463   8.209 -0.2020 -0.6094  0.1922
   76MOL   H34134991   4.371   1.451   0.130  0.0984 -0.1840 -1.1565
   76MOL   H34234992   4.288   1.573   0.049 -0.8192 -2.6102  0.2083
   76MOL   H34334993   4.684   1.641   0.461 -1.9239  2.3646  3.7786
   76MOL   H34434994   4.820   1.824   0.540 -1.6857  0.3850  0.9147
   76MOL   H34534995   4.727   2.049   0.179 -0.2276  1.4992  2.0165
   76MOL   H34634996   4.573   1.857   0.100 -0.8208 -1.2073  0.4904
   76MOL   O34734997   4.976   2.178   0.584 -0.0660  0.0705  0.0151
   76MOL   C34834998   5.116   2.153   0.595 -0.3050  0.3506 -0.7952
   76MOL   C34934999   5.206   2.256   0.662  0.4214  0.7063 -0.4832
   76MOL   O35035000   5.215   2.234   0.802  0.7337 -0.2168 -0.7027
   76MOL   C35135001   5.315   2.153   0.862 -0.2545 -0.5074  0.1734
   76MOL   O35235002   5.384   2.081   0.789 -0.4390  0.2808  0.4133
   76MOL   C35335003   5.319   2.168   1.014  0.2209 -0.2172  0.1188
   76MOL   C35435004   5.240   2.269   1.081  0.3318  0.0742  0.4001
   76MOL   C35535005   5.254   2.289   1.217 -0.2430 -0.0902 -0.4051
   76MOL   C35635006   5.331   2.199   1.291  0.1177  0.4312 -0.7334
   76MOL   C35735007   5.333   2.217   1.441  0.6073  0.7538 -0.6608
   76MOL   O35835008   5.274   2.304   1.502  0.3581 -0.2376  0.3252
   76MOL   O35935009   5.409   2.118   1.500 -0.2877 -0.1388  0.1578
   76MOL   C36035010   5.400   2.090   1.228 -0.6213  0.4766 -0.4923
   76MOL   C36135011   5.402   2.081   1.088 -0.0684 -0.4418  0.1589
   76MOL   H36235012   5.144   2.061   0.646 -2.2548  0.1129 -0.1361
   76MOL   H36335013   5.146   2.141   0.491  0.8203 -0.1923 -0.4190
   76MOL   H36435014   5.160   2.353   0.641  1.3949  1.1259 -0.7068
   76MOL   H36535015   5.305   2.258   0.616  0.7836 -1.3188  0.1718
   76MOL   H36635016   5.183   2.337   1.020  1.1304  0.2040 -0.2044
   76MOL   H36735017   5.200   2.365   1.271 -2.0189 -2.8838  1.9033
   76MOL   H36835018   5.446   2.016   1.292 -1.5369 -1.8793 -2.4726
   76MOL   H36935019   5.463   2.007   1.040  0.4193 -0.6626  1.1086
   76MOL   O37035020   5.426   2.128   1.650  0.7331 -0.3580 -0.1755
   76MOL   C37135021   5.553   2.173   1.692  0.0412 -0.2177  0.5289
   76MOL   C37235022   5.583   2.316   1.638  1.2220  0.6934 -0.4073
   76MOL   O37335023   5.632   2.319   1.506  0.1951  0.0345  0.1683
   76MOL   C37435024   5.763   2.325   1.483  0.0040  0.1400 -0.0348
   76MOL   O37535025   5.848   2.344   1.565 -0.2234  0.2144  0.2700
   76MOL   C37635026   5.803   2.306   1.339  0.1560  0.3992  0.6889
   76MOL   C37735027   5.705   2.282   1.241  0.3137  0.1670  0.0793
   76MOL   C37835028   5.746   2.276   1.104 -0.0486  0.1711 -0.0280
   76MOL   C37935029   5.878   2.280   1.058  0.6466 -0.5501 -1.2932
   76MOL   C38035030   5.904   2.259   0.909 -0.3232  0.1803 -0.9253
   76MOL   O38135031   6.013   2.279   0.859  0.6711 -0.0909 -0.3436
   76MOL   O38235032   5.798   2.212   0.835  0.4988 -0.0276  0.2780
   76MOL   C38335033   5.977   2.298   1.157  0.2149  0.0353 -1.2675
   76MOL   C38435034   5.940   2.307   1.297 -0.0647  0.4622  0.2624
   76MOL   H38535035   5.552   2.172   1.801  0.4863 -0.0252  0.5366
   76MOL   H38635036   5.633   2.107   1.659  0.5370  1.4235 -1.7106
   76MOL   H38735037   5.652   2.372   1.701 -1.0619  1.2331  1.6806
   76MOL   H38835038   5.491   2.374   1.640  0.2181 -0.8997  1.1153
   76MOL   H38935039   5.603   2.278   1.276  0.2033  0.0964 -0.2511
   76MOL   H39035040   5.665   2.256   1.035  2.2111  0.6329 -2.9033
   76MOL   H39135041   6.082   2.301   1.132  0.3841  0.7297 -0.5142
   76MOL   H39235042   6.016   2.328   1.371  1.6101  1.0556 -1.6014
   76MOL   O39335043   5.824   2.194   0.693  0.4611 -0.0562  0.7968
   76MOL   C39435044   5.806   2.055   0.664 -0.1089 -0.3748 -0.4819
   76MOL   C39535045   5.904   1.955   0.733  0.1915 -0.3522  0.5460
   76MOL   O39635046   5.864   1.921   0.864 -0.2972  0.1636 -0.0733
   76MOL   C39735047   5.853   1.784   0.894  0.0606  0.6427  0.7015
   76MOL   O39835048   5.872   1.695   0.815 -0.3032  0.8952 -0.1739
   76MOL   C39935049   5.798   1.757   1.031 -0.4915 -0.0939  0.2226
   76MOL   C40035050   5.750   1.870   1.106 -0.2953  0.2112  0.3370
   76MOL   C40135051   5.690   1.848   1.229  0.6330 -0.2147  0.3489
   76MOL   C40235052   5.661   1.712   1.273  0.4499 -0.3292  0.5312
   76MOL   C40335053   5.584   1.693   1.395 -0.2403  0.2311 -0.7361
   76MOL   O40435054   5.505   1.772   1.445  0.4306 -0.3724 -0.0854
   76MOL   O40535055   5.601   1.573   1.449  0.1367 -0.0448  0.4073
   76MOL   C40635056   5.713   1.603   1.198  0.1418  0.6149 -0.6594
   76MOL   C40735057   5.775   1.623   1.078  0.4301 -0.5266 -0.0765
   76MOL   H40835058   5.702   2.028   0.684 -0.8458  3.2853  0.9305
   76MOL   H40935059   5.817   2.047   0.556  0.7684 -0.7079 -0.3744
   76MOL   H41035060   6.005   1.997   0.731 -0.2680  0.8118  1.1115
   76MOL   H41135061   5.916   1.868   0.669  0.3659 -0.2470  0.4341
   76MOL   H41235062   5.782   1.971   1.085 -1.6069  0.2182 -1.8371
   76MOL   H41335063   5.666   1.931   1.294 -0.4956 -0.7637  0.6327
   76MOL   H41435064   5.704   1.500   1.230 -0.0032  0.6445 -0.6051
   76MOL   H41535065   5.809   1.537   1.023  0.7158 -0.4003 -0.0977
   76MOL   O41635066   5.501   1.541   1.564  0.0593 -0.2446 -0.2224
   76MOL   C41735067   5.440   1.416   1.529 -0.0741 -0.4591  0.2223
   76MOL   C41835068   5.326   1.403   1.634 -0.4461 -0.3883  0.9892
   76MOL   O41935069   5.388   1.398   1.768  0.1323  0.0651  1.0062
   76MOL   C42035070   5.455   1.289   1.805 -0.3131  0.0037 -0.4317
   76MOL   O42135071   5.448   1.181   1.737  0.0565  0.2766 -0.5013
   76MOL   C42235072   5.538   1.313   1.915 -0.5888 -0.0946 -0.0987
   76MOL   C42335073   5.579   1.197   1.979  0.2092 -0.0559  0.2085
   76MOL   C42435074   5.674   1.211   2.084  1.2605  0.1174  0.7799
   76MOL   C42535075   5.704   1.338   2.135 -0.5621  0.4104 -0.0142
   76MOL   C42635076   5.794   1.351   2.254  0.7353 -0.1257 -0.5319
   76MOL   O42735077   5.806   1.457   2.311 -0.5801  0.2266 -0.2050
   76MOL   O42835078   5.847   1.235   2.298 -0.1015  0.6839  0.0079
   76MOL   C42935079   5.649   1.451   2.073 -0.5344  0.5322 -1.2676
   76MOL   C43035080   5.574   1.442   1.957  0.2984  0.6364 -0.3591
   76MOL   H43135081   5.405   1.429   1.427 -0.5273 -0.4893  0.3711
   76MOL   H43235082   5.507   1.330   1.540 -0.0433 -0.7171 -1.9172
   76MOL   H43335083   5.254   1.324   1.614 -2.2299  1.3500  0.4749
   76MOL   H43435084   5.269   1.495   1.629  1.7734  1.0302  1.1406
   76MOL   H43535085   5.551   1.097   1.953 -1.9102  0.8329 -0.9982
   76MOL   H43635086   5.722   1.125   2.129  1.8801  0.0108 -0.0691
   76MOL   H43735087   5.694   1.546   2.096  1.2770 -0.5966  0.0255
   76MOL   H43835088   5.533   1.533   1.917 -1.0708 -1.2214 -3.3912
   76MOL   O43935089   5.950   1.263   2.405 -0.4011 -0.4587 -0.1508
   76MOL   C44035090   5.892   1.257   2.529  0.1239  0.5169  0.2527
   76MOL   C44135091   5.901   1.120   2.587 -0.5636  0.6144 -0.2835
   76MOL   O44235092   5.810   1.042   2.505  0.4799  0.0634  0.0237
   76MOL   C44335093   5.855   0.935   2.445 -0.6600  0.2441  0.2027
   76MOL   O44435094   5.972   0.899   2.454  0.4884 -0.3400  0.0033
   76MOL   C44535095   5.750   0.864   2.359  0.1056 -0.6150 -0.8374
   76MOL   C44635096   5.767   0.727   2.331  0.2755  0.1063 -0.2959
   76MOL   C44735097   5.664   0.646   2.286 -0.1164 -0.3142  0.3030
   76MOL   C44835098   5.538   0.701   2.270  0.6550  0.2247  0.7445
   76MOL   C44935099   5.421   0.606   2.250  0.2562 -0.4864 -0.1014
   76MOL   O45035100   5.429   0.485   2.233 -0.0360  0.4024 -0.0191
   76MOL   O45135101   5.301   0.670   2.233 -0.0722  0.5821 -0.0068
   76MOL   C45235102   5.524   0.843   2.279 -0.7256  0.5734  0.5627
   76MOL   C45335103   5.633   0.924   2.325 -0.8952 -0.6502  0.5756
   76MOL   H45435104   5.951   1.326   2.591  1.4963  0.9043 -1.4341
   76MOL   H45535105   5.789   1.291   2.529 -0.1543 -0.3269  0.6016
   76MOL   H45635106   5.858   1.125   2.687  0.7256 -3.3274  0.5464
   76MOL   H45735107   6.000   1.077   2.604  0.2363  2.6046  0.2658
   76MOL   H45835108   5.864   0.685   2.350  1.1210  2.8901  1.8717
   76MOL   H45935109   5.684   0.541   2.276 -0.3805 -0.1932 -1.6948
   76MOL   H46035110   5.433   0.892   2.249 -0.1002  1.3925 -0.0096
   76MOL   H46135111   5.625   1.031   2.339  0.0483 -0.2990 -1.4066
   76MOL   H46235112   5.237   0.605   2.258 -0.2681  0.2778 -1.2339
   77MOL     O135113   2.003   6.115   3.578  0.4299  0.1705  0.1269
   77MOL     C235114   1.983   6.169   3.708 -0.0864 -0.6640  0.1189
   77MOL     C335115   2.115   6.163   3.790 -0.2744 -0.2264 -0.8227
   77MOL     O435116   2.094   6.169   3.929  0.3335  0.0527  0.0039
   77MOL     C535117   2.044   6.284   3.975 -0.5256 -0.4176  0.4535
   77MOL     O635118   2.026   6.386   3.907  0.1072 -0.6200 -0.3355
   77MOL     C735119   1.999   6.266   4.119  0.8482  0.0200 -0.2969
   77MOL     C835120   1.933   6.378   4.176  0.3786 -0.4360  0.0376
   77MOL     C935121   1.872   6.371   4.304  0.0001 -0.7956 -0.3477
   77MOL    C1035122   1.877   6.250   4.373 -0.3278  0.1311 -0.8642
   77MOL    C1135123   1.792   6.235   4.493  0.3228 -0.4889 -0.6128
   77MOL    O1235124   1.760   6.333   4.561 -0.3051 -0.5633  0.0057
   77MOL    O1335125   1.758   6.110   4.526 -0.0950  0.2689  0.0919
   77MOL    C1435126   1.955   6.142   4.327 -0.6013 -0.0665 -0.3835
   77MOL    C1535127   2.015   6.146   4.191  1.0244  0.5614  0.5348
   77MOL    H1635128   1.931   6.264   3.711  2.0586  0.5406  0.1451
   77MOL    H1735129   1.905   6.101   3.744 -0.2808 -0.3116  0.3600
   77MOL    H1835130   2.176   6.250   3.764 -0.4497  0.0209 -0.4127
   77MOL    H1935131   2.179   6.076   3.776  1.4860  0.5708  1.8777
   77MOL    H2035132   1.929   6.466   4.114  1.3888 -0.3914  0.0253
   77MOL    H2135133   1.824   6.458   4.347  0.4069 -0.5365 -0.4192
   77MOL    H2235134   1.961   6.057   4.392  0.3041  0.1076 -0.2370
   77MOL    H2335135   2.069   6.062   4.151  3.5482  2.5588 -0.3973
   77MOL    H2435136   2.039   6.028   3.584  1.9571  0.8322  0.9851
   77MOL    O2535137   1.663   6.102   4.648 -0.5154  0.4189  0.6871
   77MOL    C2635138   1.721   6.022   4.747 -0.1578 -0.2043 -0.4670
   77MOL    C2735139   1.843   6.090   4.819  0.0542 -0.0182  0.1464
   77MOL    O2835140   1.833   6.083   4.958 -0.2249  0.5899  0.7772
   77MOL    C2935141   1.766   6.176   5.026  0.7602  0.7670 -0.1379
   77MOL    O3035142   1.719   6.278   4.975 -0.1140  0.7065  0.3221
   77MOL    C3135143   1.743   6.141   5.168 -0.6047  0.1463  0.0950
   77MOL    C3235144   1.806   6.031   5.230 -0.1567  0.3475 -0.1584
   77MOL    C3335145   1.789   5.999   5.365 -0.4860 -0.4765  0.5719
   77MOL    C3435146   1.704   6.079   5.441  0.5935 -0.6600  1.3954
   77MOL    C3535147   1.682   6.030   5.579 -0.4102  0.0473  0.0576
   77MOL    O3635148   1.698   5.914   5.613 -0.2517 -0.6069  0.1596
   77MOL    O3735149   1.643   6.128   5.663  0.1951  0.0240 -0.2686
   77MOL    C3835150   1.640   6.191   5.385 -0.7495 -0.0434 -0.0290
   77MOL    C3935151   1.659   6.226   5.250  0.8534 -0.2148  0.6200
   77MOL    H4035152   1.648   5.992   4.822  1.3961 -3.1720 -0.0544
   77MOL    H4135153   1.749   5.929   4.698 -1.2051 -0.0690 -1.3408
   77MOL    H4235154   1.864   6.188   4.776 -2.0703 -0.1772 -1.3511
   77MOL    H4335155   1.935   6.033   4.802  0.8154  0.0731  3.6374
   77MOL    H4435156   1.871   5.972   5.167 -0.1012  1.3361 -1.0359
   77MOL    H4535157   1.827   5.906   5.406 -0.9437 -0.8999  0.0614
   77MOL    H4635158   1.598   6.265   5.451 -0.8708  0.3656 -0.5601
   77MOL    H4735159   1.607   6.312   5.210 -0.2250 -0.8794  0.5753
   77MOL    O4835160   1.638   6.086   5.811  0.4233  0.7169 -0.2545
   77MOL    C4935161   1.757   6.137   5.879 -0.0613  0.2683  0.4818
   77MOL    C5035162   1.768   6.062   6.017  0.1554 -0.4830 -0.7619
   77MOL    O5135163   1.671   6.089   6.115  0.2968 -0.8471  0.4339
   77MOL    C5235164   1.680   6.030   6.235 -0.1591 -0.8689  0.8469
   77MOL    O5335165   1.775   5.960   6.264  0.7970 -0.6809  0.4372
   77MOL    C5435166   1.586   6.075   6.343  0.2141 -0.6809 -0.2034
   77MOL    C5535167   1.569   6.003   6.462  0.9618 -0.0318  0.2793
   77MOL    C5635168   1.474   6.030   6.559  0.5203 -0.1436 -0.0577
   77MOL    C5735169   1.407   6.154   6.555  0.4100  0.3200 -0.5105
   77MOL    C5835170   1.301   6.187   6.648  0.1583 -0.3239 -0.7698
   77MOL    O5935171   1.254   6.116   6.737 -0.3586 -0.2571  0.8559
   77MOL    O6035172   1.259   6.314   6.633 -0.0135  0.1361 -0.2711
   77MOL    C6135173   1.450   6.240   6.453  0.2829  0.0290 -0.2397
   77MOL    C6235174   1.534   6.203   6.348  0.3138  0.0784  0.6372
   77MOL    H6335175   1.847   6.129   5.818  0.4769  0.4984  1.2410
   77MOL    H6435176   1.750   6.245   5.891  2.0944  0.6935 -1.7104
   77MOL    H6535177   1.870   6.075   6.054  0.8166 -1.1724 -2.3008
   77MOL    H6635178   1.775   5.955   5.995  3.6458 -0.1050 -1.8235
   77MOL    H6735179   1.631   5.915   6.469 -0.3886 -1.0005  0.3159
   77MOL    H6835180   1.446   5.961   6.637  0.5234  0.5684  0.5738
   77MOL    H6935181   1.401   6.336   6.451 -0.8469 -0.5513 -1.3111
   77MOL    H7035182   1.559   6.264   6.262  1.3647 -1.5530 -0.2423
   77MOL    O7135183   1.134   6.353   6.713  0.4735 -0.0246 -0.4617
   77MOL    C7235184   1.012   6.312   6.650 -0.2312 -0.9849 -0.8434
   77MOL    C7335185   0.988   6.362   6.506 -0.8868 -0.1347 -0.0719
   77MOL    O7435186   1.049   6.270   6.418  0.7085  0.3576 -0.9805
   77MOL    C7535187   1.044   6.287   6.287  0.6058 -0.6882  0.3612
   77MOL    O7635188   0.989   6.383   6.234 -0.3395  0.4950 -0.1160
   77MOL    C7735189   1.112   6.170   6.219 -0.1644 -0.2439  0.2457
   77MOL    C7835190   1.203   6.086   6.285  0.4488 -0.2346  0.3062
   77MOL    C7935191   1.267   5.982   6.220 -0.6377  0.1988 -0.8299
   77MOL    C8035192   1.262   5.965   6.080  0.5925 -0.4535 -1.0396
   77MOL    C8135193   1.340   5.859   6.023  0.2765 -0.0052  1.1016
   77MOL    O8235194   1.437   5.806   6.075  0.1246 -0.0017 -0.5563
   77MOL    O8335195   1.299   5.825   5.903 -0.8001  0.3438 -0.0198
   77MOL    C8435196   1.180   6.058   6.007 -0.5274 -0.4711 -1.0526
   77MOL    C8535197   1.100   6.152   6.076 -0.2170  0.2586 -0.6472
   77MOL    H8635198   0.996   6.204   6.654  1.6941 -1.3561 -2.5202
   77MOL    H8735199   0.936   6.360   6.712  0.6398 -0.4273 -0.1906
   77MOL    H8835200   1.036   6.459   6.494 -0.8440 -0.5763 -3.8835
   77MOL    H8935201   0.882   6.372   6.480 -0.5377 -2.2279 -2.4344
   77MOL    H9035202   1.206   6.096   6.392 -1.0123  1.3796  0.2240
   77MOL    H9135203   1.344   5.932   6.276 -1.7711 -0.4055  0.2229
   77MOL    H9235204   1.170   6.052   5.900 -0.4128 -1.0444 -1.0352
   77MOL    H9335205   1.034   6.209   6.013 -2.4602 -1.2125  0.2849
   77MOL    O9435206   1.361   5.696   5.864  0.7927 -0.1256  0.6260
   77MOL    C9535207   1.475   5.723   5.789 -1.0625 -0.2404 -0.6086
   77MOL    C9635208   1.562   5.598   5.780 -0.0123 -0.8396  0.0494
   77MOL    O9735209   1.571   5.533   5.906 -0.0363  0.6386 -0.1374
   77MOL    C9835210   1.641   5.425   5.925 -0.8002  0.0526  0.1095
   77MOL    O9935211   1.708   5.377   5.838  0.1555 -0.5490  0.0042
   77MOL   C10035212   1.638   5.377   6.069  0.3524 -0.3363  0.3865
   77MOL   C10135213   1.758   5.329   6.133  0.2016  0.3331  0.7051
   77MOL   C10235214   1.758   5.301   6.269 -0.2516 -0.1850 -0.3883
   77MOL   C10335215   1.643   5.322   6.347  0.5221 -0.1036 -0.4541
   77MOL   C10435216   1.648   5.290   6.496  0.2624  0.6854 -0.0526
   77MOL   O10535217   1.562   5.314   6.579 -0.6297 -0.2340  0.3537
   77MOL   O10635218   1.764   5.225   6.529  0.2688 -0.0466  0.1167
   77MOL   C10735219   1.522   5.361   6.291 -1.1740  0.1307  0.1299
   77MOL   C10835220   1.521   5.386   6.149  1.1669 -0.6948 -0.1954
   77MOL   H10935221   1.455   5.751   5.686  0.2334 -1.2694 -1.1502
   77MOL   H11035222   1.538   5.795   5.842 -1.5052  0.5490 -1.1449
   77MOL   H11135223   1.657   5.630   5.736 -0.4205  0.8249  0.3487
   77MOL   H11235224   1.517   5.541   5.699  0.9442  2.0189 -2.5642
   77MOL   H11335225   1.849   5.326   6.075  0.1864  0.6022  0.6695
   77MOL   H11435226   1.853   5.271   6.312 -0.5209 -1.9212 -0.9727
   77MOL   H11535227   1.434   5.371   6.352 -0.1872 -0.8364  1.7313
   77MOL   H11635228   1.431   5.431   6.110 -0.0554 -2.4986  0.4968
   77MOL   O11735229   1.772   5.182   6.675 -0.1847 -0.0016  0.2708
   77MOL   C11835230   1.891   5.240   6.732  0.7454  0.1045  0.2565
   77MOL   C11935231   1.856   5.390   6.772  0.1871  0.2060  0.1489
   77MOL   O12035232   1.738   5.407   6.853  0.1993  0.2409  0.3566
   77MOL   C12135233   1.735   5.367   6.982  0.4338 -0.0801  0.6783
   77MOL   O12235234   1.837   5.339   7.050  0.0367  0.5748 -0.3009
   77MOL   C12335235   1.595   5.363   7.040 -0.3755 -0.2682  0.3165
   77MOL   C12435236   1.483   5.371   6.956  0.4540 -0.5108  0.7720
   77MOL   C12535237   1.352   5.352   6.998  0.6459 -0.0067 -0.5655
   77MOL   C12635238   1.327   5.336   7.135 -0.4022  0.6410  0.3743
   77MOL   C12735239   1.179   5.332   7.178  0.1036  0.1620  0.5097
   77MOL   O12835240   1.084   5.337   7.095 -0.6272 -0.8655  1.0326
   77MOL   O12935241   1.166   5.310   7.311 -0.0813  0.2174  0.0640
   77MOL   C13035242   1.432   5.328   7.226 -0.4272  0.5800  0.3775
   77MOL   C13135243   1.566   5.334   7.177  0.2068 -0.9153 -0.3847
   77MOL   H13235244   1.903   5.182   6.823  1.0925 -1.2188 -0.6156
   77MOL   H13335245   1.974   5.232   6.661  1.9903  0.4585  1.6613
   77MOL   H13435246   1.841   5.440   6.676  0.7521  1.2931  0.6219
   77MOL   H13535247   1.934   5.442   6.827  0.9078 -1.4358  0.7341
   77MOL   H13635248   1.506   5.386   6.852  0.0875 -3.1600  0.2693
   77MOL   H13735249   1.271   5.363   6.926 -0.3437  1.0278  0.6753
   77MOL   H13835250   1.420   5.330   7.333 -0.1568  0.9685  0.3992
   77MOL   H13935251   1.649   5.328   7.246 -1.4448  2.8621  2.0676
   77MOL   O14035252   1.019   5.318   7.357 -0.1038 -0.0734 -0.3654
   77MOL   C14135253   0.985   5.446   7.398  0.3659  0.0451  0.3357
   77MOL   C14235254   0.832   5.452   7.417  0.0212  0.5049  0.0303
   77MOL   O14335255   0.743   5.465   7.297  0.3496 -0.2283  0.3905
   77MOL   C14435256   0.747   5.577   7.214 -0.5618  0.6016  0.0392
   77MOL   O14535257   0.834   5.662   7.220  0.4402  0.2094 -0.5889
   77MOL   C14635258   0.634   5.572   7.117 -0.1035 -0.1580 -0.1545
   77MOL   C14735259   0.528   5.484   7.133 -0.0339  0.0421 -0.6679
   77MOL   C14835260   0.426   5.476   7.040 -0.2241 -0.2386 -0.0020
   77MOL   C14935261   0.427   5.562   6.927 -0.2179 -0.0490  0.0946
   77MOL   C15035262   0.316   5.566   6.832 -0.0853 -0.1255  0.6236
   77MOL   O15135263   0.317   5.629   6.729 -0.1822 -0.0358 -0.0141
   77MOL   O15235264   0.200   5.514   6.882 -0.1022  0.1708 -0.1254
   77MOL   C15335265   0.537   5.650   6.909  0.0373  0.4969 -0.3593
   77MOL   C15435266   0.635   5.656   7.007  0.3388 -0.1239  0.7211
   77MOL   H15535267   1.036   5.445   7.494  0.9609 -0.4233  0.0174
   77MOL   H15635268   1.020   5.524   7.330 -1.2346  0.0547 -0.5021
   77MOL   H15735269   0.807   5.538   7.479 -2.3632 -0.2439  0.1520
   77MOL   H15835270   0.796   5.369   7.479 -0.8256  0.9385  0.1220
   77MOL   H15935271   0.520   5.426   7.224 -1.7763  0.0433 -0.8003
   77MOL   H16035272   0.342   5.410   7.058 -1.1866  1.1647  0.7033
   77MOL   H16135273   0.534   5.725   6.832 -1.5691  0.6855 -0.1239
   77MOL   H16235274   0.712   5.732   7.004  1.1208 -0.9424 -0.4078
   77MOL   O16335275   0.084   5.524   6.786 -0.3907 -0.6355 -0.2072
   77MOL   C16435276   0.051   5.395   6.746  0.5932  0.2058  0.7140
   77MOL   C16535277   8.230   5.402   6.630 -0.0845  0.1487 -0.2110
   77MOL   O16635278   8.108   5.433   6.685 -0.4512  0.1406 -0.0452
   77MOL   C16735279   8.005   5.460   6.606 -0.5478  0.4415 -0.5002
   77MOL   O16835280   8.013   5.475   6.483  0.0125  0.1223  0.0959
   77MOL   C16935281   7.876   5.475   6.681 -0.3906  0.3078  0.3346
   77MOL   C17035282   7.850   5.425   6.810  0.4739 -0.3787 -0.2896
   77MOL   C17135283   7.717   5.430   6.866  0.0469  0.3778 -0.1705
   77MOL   C17235284   7.608   5.484   6.795  0.1634  0.6993  0.0211
   77MOL   C17335285   7.464   5.471   6.841  0.5029  0.1241 -0.6367
   77MOL   O17435286   7.422   5.394   6.929  0.3010 -0.0751  0.3864
   77MOL   O17535287   7.382   5.558   6.776  0.3298 -0.7727 -0.3911
   77MOL   C17635288   7.639   5.538   6.670 -0.1200  0.1150  0.2419
   77MOL   C17735289   7.770   5.534   6.612 -0.0481 -0.3902  0.0726
   77MOL   H17835290   0.144   5.350   6.712  0.1840 -0.2761  0.2237
   77MOL   H17935291   0.007   5.358   6.839  1.8286 -2.0578  0.4291
   77MOL   H18035292   8.215   5.305   6.582  0.4845 -0.1042  0.1240
   77MOL   H18135293   8.260   5.474   6.554  0.7882  0.4166  0.3840
   77MOL   H18235294   7.921   5.372   6.872  0.3569 -0.9287 -0.6200
   77MOL   H18335295   7.701   5.385   6.963 -0.1892 -0.7332 -0.7238
   77MOL   H18435296   7.559   5.577   6.609 -0.0333 -0.9548 -0.5644
   77MOL   H18535297   7.782   5.558   6.507  0.5683 -3.7221 -0.6891
   77MOL   O18635298   7.241   5.553   6.824 -0.2197  0.1638  0.1301
   77MOL   C18735299   7.160   5.493   6.724 -0.3760  0.4362 -0.5779
   77MOL   C18835300   7.025   5.443   6.789  0.3552  0.1605 -0.3617
   77MOL   O18935301   7.067   5.345   6.880 -0.1751  0.7585  0.5556
   77MOL   C19035302   6.973   5.309   6.972  0.6739 -0.4578 -0.0077
   77MOL   O19135303   6.854   5.332   6.950  0.2550 -0.2811 -0.4778
   77MOL   C19235304   7.035   5.237   7.087  0.1638  0.0745 -0.1324
   77MOL   C19335305   6.950   5.176   7.182 -0.0900 -0.3387  0.6849
   77MOL   C19435306   7.003   5.103   7.289 -0.4011  0.4930 -0.1254
   77MOL   C19535307   7.141   5.083   7.300 -0.2994  0.0418  0.3735
   77MOL   C19635308   7.187   4.997   7.406 -0.3184  0.3756 -0.0605
   77MOL   O19735309   7.287   5.020   7.477 -0.4970 -0.0592 -0.0420
   77MOL   O19835310   7.107   4.887   7.427  0.6536 -0.4282 -0.0484
   77MOL   C19935311   7.228   5.156   7.217  0.2187 -0.4670 -0.2465
   77MOL   C20035312   7.176   5.234   7.112 -0.3591  0.4429  0.6110
   77MOL   H20135313   7.117   5.565   6.654 -0.4900  0.3645 -0.5821
   77MOL   H20235314   7.218   5.418   6.670 -0.8198  0.3856 -0.9884
   77MOL   H20335315   6.964   5.392   6.716 -1.4551  0.5489  0.8543
   77MOL   H20435316   6.986   5.533   6.837  1.1326  0.2580  0.1078
   77MOL   H20535317   6.842   5.183   7.180  0.0361  1.3010 -1.0463
   77MOL   H20635318   6.931   5.064   7.360 -0.5164  0.2887 -0.3537
   77MOL   H20735319   7.335   5.144   7.225  0.4750  0.8176 -1.5576
   77MOL   H20835320   7.248   5.270   7.040 -2.0519  2.2896 -0.2116
   77MOL   O20935321   7.165   4.785   7.521 -0.1011 -0.1402  0.2794
   77MOL   C21035322   7.121   4.803   7.652  0.6814  1.3431 -0.3513
   77MOL   C21135323   7.193   4.708   7.749 -0.9844 -0.4089  0.4064
   77MOL   O21235324   7.106   4.603   7.779 -0.0448 -0.3701 -0.2976
   77MOL   C21335325   7.024   4.621   7.884 -0.8900 -0.3014 -0.3309
   77MOL   O21435326   7.024   4.714   7.966  0.3003 -0.2720 -0.5280
   77MOL   C21535327   6.920   4.514   7.901 -0.4893  0.1257 -0.1254
   77MOL   C21635328   6.903   4.411   7.807 -0.5398 -0.1854 -0.4014
   77MOL   C21735329   6.814   4.303   7.830  0.3637  0.7513  0.0778
   77MOL   C21835330   6.732   4.297   7.944 -0.1933 -1.0314  0.0731
   77MOL   C21935331   6.645   4.183   7.984  0.3501 -0.1649  0.0593
   77MOL   O22035332   6.621   4.090   7.909  0.1086  0.0330 -0.4514
   77MOL   O22135333   6.587   4.198   8.108  0.5707 -0.0119 -0.3686
   77MOL   C22235334   6.741   4.405   8.034  0.1627 -0.4944  0.7108
   77MOL   C22335335   6.833   4.511   8.011 -0.1621  0.7448 -0.4715
   77MOL   H22435336   7.126   4.909   7.680  0.2546  1.3268 -0.2086
   77MOL   H22535337   7.015   4.779   7.652  1.0972 -0.5982 -1.4878
   77MOL   H22635338   7.228   4.762   7.837 -1.7110 -0.4205  0.7063
   77MOL   H22735339   7.285   4.675   7.701 -0.3309 -0.7253  1.8464
   77MOL   H22835340   6.968   4.412   7.721  0.1319 -0.8537  0.0892
   77MOL   H22935341   6.806   4.221   7.759 -0.9762  0.9247  0.0019
   77MOL   H23035342   6.687   4.419   8.127  0.2645 -0.7543  0.8088
   77MOL   H23135343   6.848   4.585   8.089 -2.3227  0.1397  0.5504
   77MOL   O23235344   6.469   4.101   8.127  0.4115 -0.0266 -0.4975
   77MOL   C23335345   6.351   4.162   8.092 -0.1636  0.9590  0.0010
   77MOL   C23435346   6.333   4.284   8.174  0.3159 -0.1979  0.5060
   77MOL   O23535347   6.207   4.345   8.174 -0.5115  0.2415  0.3566
   77MOL   C23635348   6.114   4.315   8.262  0.4103  0.2428 -0.2824
   77MOL   O23735349   6.137   4.226   0.066 -0.3289 -0.7796  0.9918
   77MOL   C23835350   5.999   4.404   8.253 -0.1270  0.1286 -0.5966
   77MOL   C23935351   5.987   4.516   8.164 -0.3799 -0.1339  0.1268
   77MOL   C24035352   5.862   4.583   8.162 -0.1789 -0.2708 -0.6406
   77MOL   C24135353   5.758   4.557   8.252 -0.0265  0.2948 -0.3902
   77MOL   C24235354   5.627   4.637   8.264  0.5271 -0.6852 -0.2299
   77MOL   O24335355   5.618   4.750   8.217 -0.0168 -0.6783 -0.0640
   77MOL   O24435356   5.529   4.565   0.055 -0.4485  0.5061  0.0731
   77MOL   C24535357   5.777   4.449   0.070  0.3154 -0.4085  0.0186
   77MOL   C24635358   5.889   4.376   0.065 -0.4199  0.6189  0.3601
   77MOL   H24735359   6.344   4.181   7.985 -0.3716 -1.3183 -0.4206
   77MOL   H24835360   6.275   4.084   8.100 -1.9556  2.5327 -1.2045
   77MOL   H24935361   6.410   4.355   8.145  0.0635  0.7633  2.0869
   77MOL   H25035362   6.356   4.258   0.002 -1.4064  0.7369  1.1444
   77MOL   H25135363   6.065   4.532   8.092  1.8929 -0.7067  2.4010
   77MOL   H25235364   5.850   4.664   8.091  0.8907  1.0869  0.6914
   77MOL   H25335365   5.699   4.417   0.136 -1.4871 -0.0064 -1.8595
   77MOL   H25435366   5.890   4.294   0.136 -1.2262  1.0049  0.8203
   77MOL   O25535367   5.407   4.647   0.087 -0.2693  0.3170  0.0521
   77MOL   C25635368   5.308   4.619   8.264 -0.4911 -0.2421  0.1103
   77MOL   C25735369   5.175   4.675   0.038  0.3629  0.3437  0.5478
   77MOL   O25835370   5.124   4.578   0.132 -0.4821  0.5900 -0.5622
   77MOL   C25935371   4.994   4.524   0.119 -0.0135  0.3977 -0.7010
   77MOL   O26035372   4.920   4.547   0.021 -0.6520  0.0447 -0.1382
   77MOL   C26135373   4.953   4.449   0.244  0.4334  0.7913 -0.6345
   77MOL   C26235374   4.823   4.396   0.252  0.0863 -0.8272 -0.3033
   77MOL   C26335375   4.780   4.325   0.366  0.5612  0.2653 -0.3665
   77MOL   C26435376   4.870   4.304   0.470 -0.5532  0.4288 -0.2122
   77MOL   C26535377   4.834   4.213   0.584 -0.5248  0.2619  0.1383
   77MOL   O26635378   4.724   4.153   0.596  0.1590 -0.3266  0.4071
   77MOL   O26735379   4.934   4.193   0.666  0.0208  0.1536  0.5999
   77MOL   C26835380   5.002   4.358   0.463  0.7068  0.1628 -0.3956
   77MOL   C26935381   5.041   4.431   0.350 -0.8049 -1.1456  0.0707
   77MOL   H27035382   5.339   4.660   8.168  1.9424  1.6489  1.6548
   77MOL   H27135383   5.303   4.511   8.250 -2.1628 -0.0354 -1.1169
   77MOL   H27235384   5.103   4.677   8.231  0.2613  1.0314  0.6534
   77MOL   H27335385   5.173   4.773   0.084  0.0309 -0.2863  1.9045
   77MOL   H27435386   4.764   4.408   0.162  3.8481  2.5229 -2.5084
   77MOL   H27535387   4.686   4.272   0.371 -0.0562  1.4777  2.2037
   77MOL   H27635388   5.069   4.334   0.544  0.8762  1.4944 -0.1280
   77MOL   H27735389   5.144   4.464   0.341 -0.7772 -1.2280  0.0883
   77MOL   O27835390   4.932   4.071   0.752 -0.1102 -0.5687  0.1083
   77MOL   C27935391   5.016   3.971   0.698  0.9300 -0.4022 -0.2892
   77MOL   C28035392   4.956   3.907   0.573 -0.9378  0.6113 -0.4524
   77MOL   O28135393   5.024   3.956   0.457  0.1558 -0.7571  0.1031
   77MOL   C28235394   4.951   3.988   0.347  0.0193  0.2130  0.2041
   77MOL   O28335395   4.827   3.997   0.345 -0.4432 -0.6383  0.2546
   77MOL   C28435396   5.032   4.027   0.231  0.3521 -0.4747 -0.0133
   77MOL   C28535397   4.966   4.095   0.124  0.5293 -0.3688  0.4277
   77MOL   C28635398   5.037   4.136   0.008  0.3442 -0.3790 -0.0881
   77MOL   C28735399   5.176   4.091   8.260 -0.1864  0.1185 -0.4084
   77MOL   C28835400   5.245   4.134   8.132 -0.5333 -0.2094 -0.2673
   77MOL   O28935401   5.190   4.190   8.042 -0.0062  0.3764  0.0279
   77MOL   O29035402   5.375   4.102   8.135  0.6239  0.4021  0.7642
   77MOL   C29135403   5.239   4.010   0.084  0.4744 -0.6917  0.0890
   77MOL   C29235404   5.168   3.987   0.207  0.9721 -0.3770 -0.4950
   77MOL   H29335405   5.121   3.991   0.675  1.0916 -2.1776 -1.1730
   77MOL   H29435406   5.006   3.891   0.771 -2.4908 -0.0431 -0.2871
   77MOL   H29535407   4.847   3.913   0.574 -1.0023 -0.4287  3.1120
   77MOL   H29635408   4.973   3.799   0.577  0.2955  0.6327 -3.6755
   77MOL   H29735409   4.862   4.124   0.132  0.4799  0.4230 -2.5888
   77MOL   H29835410   4.985   4.189   8.205 -2.7513 -1.1963  1.3396
   77MOL   H29935411   5.346   3.995   0.080  0.8745  1.3035  2.1782
   77MOL   H30035412   5.214   3.940   0.293  1.1016 -1.0430 -0.9253
   77MOL   O30135413   5.432   4.095   8.002 -0.3712 -0.0470  0.1215
   77MOL   C30235414   5.508   4.214   7.977 -0.5633 -0.4849 -0.2810
   77MOL   C30335415   5.651   4.195   8.036 -0.0833  0.7312 -0.0639
   77MOL   O30435416   5.643   4.205   8.180  0.8924 -0.8617  0.2480
   77MOL   C30535417   5.696   4.104   8.261  0.7971  0.5091  0.4004
   77MOL   O30635418   5.769   4.014   8.221 -0.0036 -0.3197  0.0086
   77MOL   C30735419   5.636   4.113   0.122 -0.3196 -0.5091  0.2468
   77MOL   C30835420   5.517   4.186   0.142 -0.2935  0.0445  0.0780
   77MOL   C30935421   5.453   4.177   0.267 -0.0535  0.0126  0.1423
   77MOL   C31035422   5.494   4.094   0.369 -0.7222 -0.3086  0.1232
   77MOL   C31135423   5.412   4.074   0.494 -0.2632  0.3303 -0.0750
   77MOL   O31235424   5.299   4.115   0.514 -0.4847  0.0566 -0.1036
   77MOL   O31335425   5.484   4.007   0.595  0.1734 -0.5031 -0.0375
   77MOL   C31435426   5.613   4.022   0.350  0.1394 -0.3891 -0.7060
   77MOL   C31535427   5.685   4.029   0.227 -0.0542 -0.3784  0.1856
   77MOL   H31635428   5.526   4.213   7.869 -1.3398 -0.3471 -0.4184
   77MOL   H31735429   5.460   4.310   7.998  1.6471  0.0366  2.7377
   77MOL   H31835430   5.713   4.273   7.993 -0.5947  0.3793 -1.4677
   77MOL   H31935431   5.700   4.102   8.008  1.6220  1.8295 -0.7784
   77MOL   H32035432   5.462   4.236   0.064 -1.3602  0.4183  1.0342
   77MOL   H32135433   5.359   4.230   0.277 -0.3060 -0.2340 -0.8544
   77MOL   H32235434   5.649   3.951   0.423 -1.8361 -0.9631 -0.2755
   77MOL   H32335435   5.764   3.959   0.205 -1.0754 -0.8222 -2.1296
   77MOL   O32435436   5.403   3.951   0.706  0.0937  0.1331  0.2341
   77MOL   C32535437   5.385   4.043   0.805  0.2686 -0.2558  0.1185
   77MOL   C32635438   5.515   4.074   0.882 -0.3498  0.8906  0.1540
   77MOL   O32735439   5.505   4.008   1.006 -0.1066  0.4561  0.2474
   77MOL   C32835440   5.592   3.912   1.028  0.1210  1.1919  0.2687
   77MOL   O32935441   5.681   3.876   0.948  0.2836 -0.0914 -0.0130
   77MOL   C33035442   5.573   3.853   1.164 -0.1678  0.5366  0.2932
   77MOL   C33135443   5.474   3.893   1.256  0.5571  0.1145  0.5308
   77MOL   C33235444   5.448   3.829   1.373  0.2367 -0.7137 -0.5497
   77MOL   C33335445   5.517   3.714   1.409  0.1178  0.2153 -0.3512
   77MOL   C33435446   5.496   3.642   1.539 -0.1436  0.2276 -0.0095
   77MOL   O33535447   5.538   3.524   1.559 -0.3467 -0.9289  0.1433
   77MOL   O33635448   5.430   3.718   1.625 -1.1645  0.3001 -0.1149
   77MOL   C33735449   5.612   3.669   1.321 -0.2395  0.0275 -0.0661
   77MOL   C33835450   5.645   3.741   1.200 -0.3985  0.3299 -0.6884
   77MOL   H33935451   5.351   4.135   0.757  1.6240  0.4075  0.4023
   77MOL   H34035452   5.305   4.008   0.870 -0.0288 -1.3763 -0.8440
   77MOL   H34135453   5.538   4.178   0.903 -1.4041  1.7147 -2.5429
   77MOL   H34235454   5.606   4.058   0.824  0.6882  0.4411  1.8634
   77MOL   H34335455   5.416   3.981   1.234 -3.4616 -2.3865  0.6273
   77MOL   H34435456   5.370   3.869   1.436  0.7272 -2.2973  1.1063
   77MOL   H34535457   5.667   3.580   1.348  2.1135  1.7842  1.0838
   77MOL   H34635458   5.716   3.691   1.136  0.0727 -0.1029  0.1520
   77MOL   O34735459   5.434   3.669   1.753 -0.0933  0.5642 -0.3736
   77MOL   C34835460   5.308   3.630   1.800  0.3278 -0.3087  0.3815
   77MOL   C34935461   5.318   3.531   1.915 -0.2479  0.3130 -0.3358
   77MOL   O35035462   5.380   3.409   1.866 -0.1542 -0.0083  0.0043
   77MOL   C35135463   5.369   3.294   1.931  0.6116 -0.1760 -0.0593
   77MOL   O35235464   5.320   3.288   2.043  0.3461 -0.0417 -0.3249
   77MOL   C35335465   5.431   3.183   1.857 -0.3826  0.1891  0.7372
   77MOL   C35435466   5.398   3.054   1.889 -0.9489  0.4179 -0.1241
   77MOL   C35535467   5.454   2.948   1.821 -0.1002  0.4882 -0.2914
   77MOL   C35635468   5.543   2.968   1.714 -0.2556 -0.1986 -0.2423
   77MOL   C35735469   5.588   2.849   1.639  0.5984 -0.6304  0.5504
   77MOL   O35835470   5.602   2.736   1.685  0.7333  0.9524  0.1309
   77MOL   O35935471   5.623   2.878   1.514 -0.5811  0.5058  0.2189
   77MOL   C36035472   5.581   3.102   1.684  0.1583  1.1595  0.6720
   77MOL   C36135473   5.526   3.208   1.757 -0.2796  0.3259  0.0804
   77MOL   H36235474   5.243   3.713   1.829  1.8811  1.3965 -0.8897
   77MOL   H36335475   5.253   3.581   1.720  1.3793 -2.7109  1.0851
   77MOL   H36435476   5.214   3.534   1.947  0.3695 -0.0028  1.7407
   77MOL   H36535477   5.367   3.578   2.000  0.1352  1.5300 -1.2181
   77MOL   H36635478   5.320   3.045   1.964  1.5289 -0.6606  2.4338
   77MOL   H36735479   5.400   2.854   1.823  1.6271 -0.5230  1.2105
   77MOL   H36835480   5.651   3.122   1.604 -0.2132  2.5147  0.6753
   77MOL   H36935481   5.552   3.307   1.724  1.7219 -0.3944 -0.5956
   77MOL   O37035482   5.635   2.750   1.428 -0.0431 -0.4269 -0.5099
   77MOL   C37135483   5.520   2.752   1.341  0.4193 -0.4440 -0.1351
   77MOL   C37235484   5.479   2.613   1.307 -0.8035  0.1649 -0.3307
   77MOL   O37335485   5.511   2.574   1.177 -0.1787  0.1891 -0.1005
   77MOL   C37435486   5.430   2.609   1.083 -0.7548 -0.5494 -0.0117
   77MOL   O37535487   5.311   2.653   1.099 -0.2199 -0.1358  0.2043
   77MOL   C37635488   5.488   2.566   0.952  0.2166 -0.1866  0.2166
   77MOL   C37735489   5.397   2.534   0.850 -1.2391  0.2944 -0.0183
   77MOL   C37835490   5.444   2.480   0.726  0.3841 -0.2608 -0.1930
   77MOL   C37935491   5.580   2.470   0.695 -0.2566  1.0614 -0.1047
   77MOL   C38035492   5.624   2.398   0.569 -0.6510 -0.4623 -0.1996
   77MOL   O38135493   5.547   2.348   0.483  0.1380 -0.1817  0.0493
   77MOL   O38235494   5.754   2.409   0.553  0.4145  0.0678 -0.3932
   77MOL   C38335495   5.667   2.519   0.796 -0.9369  0.2850  0.1763
   77MOL   C38435496   5.626   2.567   0.919 -0.2285 -0.6984 -0.6139
   77MOL   H38535497   5.436   2.805   1.387 -0.9264 -1.8604 -0.9136
   77MOL   H38635498   5.545   2.808   1.250 -2.3491 -0.9455 -1.2545
   77MOL   H38735499   5.372   2.606   1.326 -0.6357 -1.5310  0.0597
   77MOL   H38835500   5.527   2.546   1.378  2.5755  1.7576 -0.9760
   77MOL   H38935501   5.291   2.550   0.868 -0.9455  2.1910  0.0520
   77MOL   H39035502   5.377   2.466   0.642  0.7397  1.3415 -0.7545
   77MOL   H39135503   5.773   2.502   0.781 -0.8532  0.9233  0.0278
   77MOL   H39235504   5.702   2.604   0.985 -2.5005 -0.0511  1.7208
   77MOL   O39335505   5.800   2.354   0.421 -0.0753 -0.0221 -0.2954
   77MOL   C39435506   5.804   2.459   0.333 -0.0371  0.1339 -0.1368
   77MOL   C39535507   5.851   2.400   0.199 -0.0900 -0.2626  0.1062
   77MOL   O39635508   5.766   2.289   0.168 -0.5836  0.2243  0.8055
   77MOL   C39735509   5.645   2.304   0.116 -0.3746 -0.2492 -0.1607
   77MOL   O39835510   5.592   2.414   0.096 -0.5140 -0.7233 -0.0335
   77MOL   C39935511   5.575   2.177   0.071 -0.5123 -0.9969  0.1972
   77MOL   C40035512   5.622   2.050   0.111  0.0683  0.4097  0.4951
   77MOL   C40135513   5.561   1.935   0.062  0.8793 -0.2059  0.0486
   77MOL   C40235514   5.442   1.940   8.254 -0.5010 -0.6495  0.1750
   77MOL   C40335515   5.386   1.815   8.195 -0.2651  0.2376 -0.0077
   77MOL   O40435516   5.448   1.706   8.203  0.5597  0.3811 -0.3842
   77MOL   O40535517   5.262   1.829   8.140 -0.5652 -0.3740 -0.2330
   77MOL   C40635518   5.397   2.069   8.223 -0.3488 -0.5494  0.0038
   77MOL   C40735519   5.463   2.190   8.266 -0.1931 -0.2849 -0.2836
   77MOL   H40835520   5.718   2.525   0.318  0.5941  0.5721 -2.0315
   77MOL   H40935521   5.887   2.522   0.367 -0.5553 -0.3987  2.1655
   77MOL   H41035522   5.952   2.360   0.211 -0.5763 -1.2873  0.8440
   77MOL   H41135523   5.845   2.477   0.122 -0.1553  0.2757  0.6445
   77MOL   H41235524   5.712   2.050   0.170 -1.4888  1.7568  2.9868
   77MOL   H41335525   5.590   1.835   0.093  0.9578 -0.0543  0.4603
   77MOL   H41435526   5.307   2.076   8.163 -0.6574 -0.3771  0.4863
   77MOL   H41535527   5.423   2.288   8.245 -1.0592 -1.0643 -2.4512
   77MOL   O41635528   5.209   1.696   8.085  0.7006 -0.7879  0.2281
   77MOL   C41735529   5.193   1.687   7.938 -0.4117 -0.1492 -0.5277
   77MOL   C41835530   5.174   1.540   7.916  0.3410  0.4497 -0.0439
   77MOL   O41935531   5.304   1.486   7.934  0.0324  0.0024  0.3034
   77MOL   C42035532   5.319   1.383   8.020  0.2181 -0.3826 -0.1275
   77MOL   O42135533   5.227   1.340   8.086  0.1690  0.3041 -0.8706
   77MOL   C42235534   5.459   1.346   8.048 -0.5022 -0.1726 -0.1032
   77MOL   C42335535   5.566   1.434   8.023 -0.1912 -0.5116 -0.4286
   77MOL   C42435536   5.698   1.398   8.052 -0.1508  0.3812  0.5390
   77MOL   C42535537   5.727   1.266   8.100 -1.3653  0.0971 -0.8104
   77MOL   C42635538   5.868   1.221   8.128 -0.6241  0.0690  0.6642
   77MOL   O42735539   5.891   1.102   8.147  0.0719 -0.4274  0.2666
   77MOL   O42835540   5.960   1.323   8.134  0.0115  0.0428  0.2163
   77MOL   C42935541   5.621   1.178   8.125 -0.8278  0.4769 -0.3741
   77MOL   C43035542   5.490   1.219   8.102 -0.2330 -0.2581  0.0682
   77MOL   H43135543   5.095   1.728   7.916 -1.0236  0.3086  2.7118
   77MOL   H43235544   5.267   1.734   7.874 -0.5938  0.8034 -0.0435
   77MOL   H43335545   5.127   1.521   7.819 -0.6469  0.8471  0.3478
   77MOL   H43435546   5.100   1.508   7.990  1.4785  1.9645  1.7711
   77MOL   H43535547   5.554   1.529   7.974  2.1722 -0.0854 -0.2253
   77MOL   H43635548   5.778   1.468   8.032 -1.9931  2.0529 -1.1106
   77MOL   H43735549   5.643   1.076   8.151  2.1966  0.9511 -0.8069
   77MOL   H43835550   5.408   1.151   8.123  0.7393 -1.6814 -0.6694
   77MOL   O43935551   6.086   1.301   8.214  0.6326  0.3177  0.2633
   77MOL   C44035552   6.050   1.344   0.077  0.6282 -0.1013  0.9449
   77MOL   C44135553   6.180   1.373   0.147  0.2486 -0.2252  0.4578
   77MOL   O44235554   6.215   1.507   0.118 -1.0782  0.0778  0.6572
   77MOL   C44335555   6.299   1.536   0.027 -0.2528  0.4952 -0.5867
   77MOL   O44435556   6.359   1.453   8.231  0.1809 -0.0530  0.2672
   77MOL   C44535557   6.334   1.681   0.028 -0.5566 -0.2866 -0.1885
   77MOL   C44635558   6.288   1.774   0.120 -0.8789 -0.4230 -0.5342
   77MOL   C44735559   6.330   1.910   0.124 -0.1702 -0.0464  0.3395
   77MOL   C44835560   6.427   1.950   0.036  0.0578  0.3342 -0.1086
   77MOL   C44935561   6.470   2.096   0.029  0.3976  0.1031  0.1677
   77MOL   O45035562   6.446   2.180   0.117 -0.1961  0.0633  0.1106
   77MOL   O45135563   6.540   2.121   8.194  0.2109  0.3884 -0.3184
   77MOL   C45235564   6.470   1.859   8.208 -0.2802  0.0255 -0.1648
   77MOL   C45335565   6.429   1.725   8.209 -0.2327 -0.5740 -0.8410
   77MOL   H45435566   5.978   1.424   0.092 -1.1372 -1.5089  0.1318
   77MOL   H45535567   6.017   1.250   0.122 -1.0338 -0.6271 -1.3053
   77MOL   H45635568   6.263   1.309   0.115  0.7445  0.7301 -0.1727
   77MOL   H45735569   6.177   1.359   0.255  2.4874 -0.7476  0.4775
   77MOL   H45835570   6.215   1.752   0.197 -0.8348  0.5607 -0.1952
   77MOL   H45935571   6.280   1.973   0.196  0.3183  2.3932 -1.3673
   77MOL   H46035572   6.543   1.892   8.136 -0.4113 -0.3527 -0.4691
   77MOL   H46135573   6.479   1.659   8.141  2.7159  0.0479  0.6430
   77MOL   H46235574   6.517   2.208   8.166 -1.5024 -0.7361 -2.6479
   78MOL     O135575   0.043   7.027   1.397 -0.2696 -0.2877  0.0385
   78MOL     C235576   0.130   7.006   1.508  0.1344  0.0052 -0.8554
   78MOL     C335577   0.247   7.109   1.526 -0.1946  0.5140 -0.3913
   78MOL     O435578   0.196   7.215   1.606  0.4919  0.3419 -0.0630
   78MOL     C535579   0.144   7.325   1.549  0.8195  0.4806  0.4411
   78MOL     O635580   0.124   7.341   1.427 -0.7150 -0.2589  0.9143
   78MOL     C735581   0.098   7.428   1.653  0.3054  0.1096  0.5422
   78MOL     C835582   0.036   7.549   1.610  0.6580 -0.1081  0.7199
   78MOL     C935583   0.005   7.652   1.704  0.4777 -0.1335 -0.7211
   78MOL    C1035584   0.050   7.647   1.840  0.0962  0.2298 -0.0488
   78MOL    C1135585   0.034   7.758   1.925  0.4776  0.6732 -1.0041
   78MOL    O1235586   8.225   7.847   1.907  0.2720  0.4399 -0.1003
   78MOL    O1335587   0.105   7.751   2.032  0.1841 -0.2224  0.8349
   78MOL    C1435588   0.103   7.522   1.885 -0.6021 -0.5604 -0.1616
   78MOL    C1535589   0.125   7.417   1.790  0.6571 -0.3927 -0.0872
   78MOL    H1635590   0.078   6.982   1.601  1.2640  2.8112  0.5494
   78MOL    H1735591   0.173   6.906   1.500  1.9703  0.7652 -0.8439
   78MOL    H1835592   0.284   7.142   1.429  3.8145  0.1252  0.9240
   78MOL    H1935593   0.330   7.065   1.581 -1.5027 -0.6433  0.6867
   78MOL    H2035594   0.015   7.556   1.505  3.0675 -2.1625  0.0262
   78MOL    H2135595   8.243   7.746   1.668 -2.1798 -0.5686  0.7998
   78MOL    H2235596   0.134   7.510   1.988  0.3930  1.5380 -0.1863
   78MOL    H2335597   0.171   7.325   1.822 -1.0259 -0.6318  1.7732
   78MOL    H2435598   0.005   7.113   1.408 -0.9427 -0.4000 -1.2823
   78MOL    O2535599   0.081   7.869   2.129 -0.0837  0.3219  0.1842
   78MOL    C2635600   0.001   7.824   2.236  0.1472 -0.3319  0.2565
   78MOL    C2735601   8.203   7.945   2.313 -0.9074  0.3412 -0.1747
   78MOL    O2835602   0.023   8.016   2.389  0.0666  0.0012 -0.0179
   78MOL    C2935603   0.034   7.983   2.520 -0.2798 -0.5422  0.4377
   78MOL    O3035604   8.272   7.874   2.568 -0.3828  0.0227 -0.1569
   78MOL    C3135605   0.118   8.078   2.597  0.1382 -0.4229  0.1331
   78MOL    C3235606   0.179   8.183   2.525 -0.5349  0.0142  0.2255
   78MOL    C3335607   0.244   0.010   2.600 -0.1830 -0.6235 -0.4969
   78MOL    C3435608   0.247   0.020   2.738 -0.7804  0.0694  0.0527
   78MOL    C3535609   0.312   0.136   2.814 -0.2987  0.4230 -0.5202
   78MOL    O3635610   0.313   0.155   2.932  0.2019 -0.0614  0.1252
   78MOL    O3735611   0.371   0.225   2.717 -0.1108 -0.2298  0.2691
   78MOL    C3835612   0.178   8.195   2.811  0.2017 -0.1315  0.4422
   78MOL    C3935613   0.120   8.089   2.738 -0.6151  0.2899 -1.0773
   78MOL    H4035614   8.199   7.757   2.200 -1.1873  2.3389 -2.0249
   78MOL    H4135615   0.061   7.775   2.312  2.0190  1.2137 -0.1868
   78MOL    H4235616   8.125   7.910   2.380  0.3058  0.0916  1.1252
   78MOL    H4335617   8.163   8.026   2.252 -1.1950  1.2335  1.1875
   78MOL    H4435618   0.187   8.179   2.417 -1.3603  0.5578  0.1366
   78MOL    H4535619   0.298   0.083   2.541  0.6135  0.9996  2.1786
   78MOL    H4635620   0.175   8.192   2.918  1.2807  2.5753  0.5851
   78MOL    H4735621   0.064   8.016   2.795 -0.1464  1.1898  0.5927
   78MOL    O4835622   0.471   0.328   2.771 -0.1671  0.4949  0.3036
   78MOL    C4935623   0.390   0.441   2.802  0.3584  0.1694 -0.4718
   78MOL    C5035624   0.481   0.553   2.841 -0.8320  0.5628  0.4514
   78MOL    O5135625   0.411   0.666   2.891 -0.2961  0.1295  0.3624
   78MOL    C5235626   0.473   0.792   2.895 -0.3573 -1.1729 -0.1273
   78MOL    O5335627   0.582   0.819   2.844 -0.5419 -0.4716 -0.3300
   78MOL    C5435628   0.387   0.893   2.954 -0.1922  0.2257 -0.4464
   78MOL    C5535629   0.246   0.885   2.959 -0.0973  0.9196  0.0374
   78MOL    C5635630   0.175   0.993   3.015  0.2983  0.0873  0.1258
   78MOL    C5735631   0.234   1.111   3.051  0.4192  0.3569 -0.0627
   78MOL    C5835632   0.142   1.225   3.084 -0.1641 -0.0363 -0.3259
   78MOL    O5935633   0.018   1.222   3.091 -0.1599 -0.2926  0.3025
   78MOL    O6035634   0.207   1.342   3.102 -0.5815 -0.1675  0.1514
   78MOL    C6135635   0.371   1.123   3.035 -0.5221  0.1635  0.8407
   78MOL    C6235636   0.449   1.012   2.995  0.6284  0.5572 -0.0638
   78MOL    H6335637   0.318   0.473   2.726 -0.5272  1.9274  1.0628
   78MOL    H6435638   0.330   0.421   2.890  0.0875 -0.2810 -0.7532
   78MOL    H6535639   0.541   0.582   2.755 -1.7582  1.8585  0.2244
   78MOL    H6635640   0.554   0.518   2.914  0.7048  1.0711 -0.8265
   78MOL    H6735641   0.204   0.791   2.925  1.5778  0.9165 -2.1781
   78MOL    H6835642   0.068   0.985   3.014  0.3526 -0.9457  0.9938
   78MOL    H6935643   0.416   1.215   3.067 -0.3298  0.8310 -1.3258
   78MOL    H7035644   0.556   1.025   2.990  0.2396  4.0146 -0.7528
   78MOL    O7135645   0.119   1.460   3.116 -0.5650  0.3764 -0.3160
   78MOL    C7235646   0.104   1.524   2.995  0.0790  0.4103 -0.5132
   78MOL    C7335647   0.238   1.572   2.942 -0.2978 -0.3924 -0.0994
   78MOL    O7435648   0.301   1.489   2.842 -0.4936  0.2560 -0.1997
   78MOL    C7535649   0.387   1.542   2.745  0.8905  0.0930 -0.7886
   78MOL    O7635650   0.405   1.660   2.719  0.3826 -0.5993  0.4430
   78MOL    C7735651   0.452   1.433   2.666  0.1277 -0.3216  1.0709
   78MOL    C7835652   0.505   1.450   2.535 -0.1153 -0.2918  0.1581
   78MOL    C7935653   0.580   1.352   2.469  0.2989 -0.0184  0.0785
   78MOL    C8035654   0.599   1.222   2.530  0.2851 -0.7555 -0.2585
   78MOL    C8135655   0.688   1.127   2.462  0.0469 -0.6802 -0.2513
   78MOL    O8235656   0.741   1.154   2.355  0.6511  0.2578 -0.3362
   78MOL    O8335657   0.720   1.017   2.534 -0.3471  0.1917  0.3030
   78MOL    C8435658   0.524   1.194   2.648 -0.0024  0.0443  0.0842
   78MOL    C8535659   0.464   1.300   2.717 -0.0834  0.2576  0.8966
   78MOL    H8635660   0.056   1.471   2.913  1.3365 -0.8576 -0.4397
   78MOL    H8735661   0.040   1.608   3.021  0.5298  0.0089  2.0801
   78MOL    H8835662   0.302   1.584   3.029  1.3334  1.0053 -1.4553
   78MOL    H8935663   0.234   1.677   2.914 -2.1116 -0.3402  0.2684
   78MOL    H9035664   0.504   1.548   2.490  1.5349 -0.5945 -0.5777
   78MOL    H9135665   0.628   1.372   2.375 -0.7698 -2.6288 -1.0637
   78MOL    H9235666   0.525   1.093   2.686  1.5146  0.7432  1.9611
   78MOL    H9335667   0.424   1.277   2.815 -0.0682  0.8431  1.0418
   78MOL    O9435668   0.819   0.917   2.475  0.3364 -0.5940  0.1209
   78MOL    C9535669   0.737   0.815   2.417  0.4227  0.1791  0.3589
   78MOL    C9635670   0.655   0.739   2.523  0.1721 -0.5479  0.1130
   78MOL    O9735671   0.620   0.609   2.479  0.3489 -0.1395 -0.3117
   78MOL    C9835672   0.515   0.595   2.400 -0.1639 -0.2110  0.1543
   78MOL    O9935673   0.456   0.691   2.350 -0.4344  0.5265  0.2271
   78MOL   C10035674   0.479   0.454   2.376 -0.0577 -0.4489  0.1422
   78MOL   C10135675   0.533   0.342   2.451 -0.0722  0.1648  0.6566
   78MOL   C10235676   0.512   0.208   2.408  0.0757 -0.1685 -0.3995
   78MOL   C10335677   0.434   0.190   2.291  1.5377 -0.2257 -0.0687
   78MOL   C10435678   0.416   0.048   2.242  1.4280  0.1586  0.4917
   78MOL   O10535679   0.407   8.231   2.318  0.0665  0.1317  0.1994
   78MOL   O10635680   0.399   0.041   2.115 -0.1457 -0.0206  0.7700
   78MOL   C10735681   0.390   0.300   2.216  0.3026 -0.7437 -0.1460
   78MOL   C10835682   0.407   0.429   2.258 -0.4880  0.2187 -0.2354
   78MOL   H10935683   0.684   0.873   2.341 -0.3073 -0.6406  0.2377
   78MOL   H11035684   0.795   0.736   2.370 -0.7630 -1.2330  1.2053
   78MOL   H11135685   0.576   0.802   2.562  0.4464 -0.9233  1.3180
   78MOL   H11235686   0.715   0.716   2.612  1.7520 -2.2162 -1.3490
   78MOL   H11335687   0.594   0.357   2.539 -0.2871 -0.6714  0.9551
   78MOL   H11435688   0.553   0.132   2.474 -0.1688  1.9851  2.3586
   78MOL   H11535689   0.336   0.279   2.125  3.2997 -1.9801 -1.7348
   78MOL   H11635690   0.377   0.512   2.196 -1.5416  0.9007  1.1784
   78MOL   O11735691   0.319   8.200   2.071  0.5354 -1.0798 -0.5901
   78MOL   C11835692   0.187   8.244   2.026  0.5489 -0.1221 -0.3781
   78MOL   C11935693   0.148   8.144   1.932 -0.0681 -0.4465  0.3676
   78MOL   O12035694   0.016   8.157   1.884  0.4925 -0.5909 -0.2188
   78MOL   C12135695   8.257   8.212   1.768  0.0726 -0.1972 -0.4172
   78MOL   O12235696   0.069   8.253   1.691 -0.2074 -0.8149 -0.0818
   78MOL   C12335697   8.110   8.209   1.736  0.1485 -0.5798  0.1921
   78MOL   C12435698   8.012   8.180   1.834  0.1603  0.0302 -0.3082
   78MOL   C12535699   7.876   8.180   1.796  0.4696  0.1932 -0.6502
   78MOL   C12635700   7.836   8.221   1.660 -0.6598 -0.0520 -0.2436
   78MOL   C12735701   7.690   8.233   1.620  0.1782 -0.0496 -0.3844
   78MOL   O12835702   7.654   8.217   1.504 -0.0299  0.2001 -0.4106
   78MOL   O12935703   7.604   8.266   1.720 -0.3425  1.1137 -0.0985
   78MOL   C13035704   7.940   8.257   1.571 -0.5936  0.1700  0.3219
   78MOL   C13135705   8.075   8.246   1.607  0.0366 -0.0543  0.3678
   78MOL   H13235706   0.118   8.263   2.108  0.1259 -0.1951 -0.7162
   78MOL   H13335707   0.201   0.064   1.974  1.5583 -0.3362 -0.5078
   78MOL   H13435708   0.150   8.047   1.982 -2.4218 -0.1522  1.0876
   78MOL   H13535709   0.231   8.117   1.867  0.5586  2.3024 -0.0362
   78MOL   H13635710   8.028   8.172   1.941 -1.3592 -1.4784 -0.1804
   78MOL   H13735711   7.799   8.171   1.870  2.1421  1.9030  1.3529
   78MOL   H13835712   7.915   0.005   1.468  0.6127  1.1186  0.2344
   78MOL   H13935713   8.158   8.259   1.539 -1.5132  0.7137 -1.4427
   78MOL   O14035714   7.460   8.266   1.673 -0.1230 -0.4254 -0.1678
   78MOL   C14135715   7.386   8.176   1.758 -0.3304 -0.6801 -0.0620
   78MOL   C14235716   7.411   8.038   1.704  0.2271  0.3783  0.0964
   78MOL   O14335717   7.333   7.946   1.766  0.0519  0.4151  0.3940
   78MOL   C14435718   7.330   7.817   1.729  0.1786 -0.5124 -0.3552
   78MOL   O14535719   7.395   7.775   1.634 -0.3905  0.8593 -0.1876
   78MOL   C14635720   7.228   7.729   1.797  0.5904  0.4485 -0.2268
   78MOL   C14735721   7.203   7.597   1.751  0.5593 -0.4832 -0.5967
   78MOL   C14835722   7.097   7.524   1.805  0.2328 -0.2135  0.2229
   78MOL   C14935723   7.011   7.572   1.905 -0.3772  0.2213  0.3556
   78MOL   C15035724   6.891   7.496   1.936  0.0260  0.5070  0.0690
   78MOL   O15135725   6.886   7.375   1.948 -0.3087  0.4026  0.6575
   78MOL   O15235726   6.783   7.567   1.934  0.1422  0.2814  0.5570
   78MOL   C15335727   7.037   7.702   1.955 -0.3695 -0.3177  0.7300
   78MOL   C15435728   7.138   7.779   1.899  0.3659  0.2710 -0.4203
   78MOL   H15535729   7.432   8.180   1.856  0.0706 -0.6120 -0.2532
   78MOL   H15635730   7.285   8.217   1.765  0.2768  1.1454 -1.6425
   78MOL   H15735731   7.514   8.009   1.725 -0.7381 -4.1872 -1.0434
   78MOL   H15835732   7.397   8.035   1.596 -0.1661  0.7939  0.1339
   78MOL   H15935733   7.249   7.566   1.658  0.7075 -0.6044 -0.4832
   78MOL   H16035734   7.061   7.438   1.751  2.9039 -1.4573  0.3660
   78MOL   H16135735   6.966   7.741   2.027  0.6928  2.0207  0.5485
   78MOL   H16235736   7.148   7.879   1.938  0.0514  1.5437 -3.4569
   78MOL   O16335737   6.654   7.494   1.958  0.0284  0.0056 -0.3627
   78MOL   C16435738   6.586   7.476   1.832  0.2568 -0.1458 -0.8482
   78MOL   C16535739   6.491   7.597   1.816  0.5641 -0.4373  0.4365
   78MOL   O16635740   6.569   7.714   1.792  0.7162  0.8302 -0.1833
   78MOL   C16735741   6.515   7.836   1.753 -0.5492 -0.3876  0.2543
   78MOL   O16835742   6.396   7.844   1.727  0.5786  0.1876 -0.1430
   78MOL   C16935743   6.609   7.946   1.747  0.1910  0.7426  0.2147
   78MOL   C17035744   6.749   7.917   1.775  0.3431  0.0052  0.4721
   78MOL   C17135745   6.838   8.027   1.786  0.3997  0.4373  0.3347
   78MOL   C17235746   6.794   8.154   1.768 -0.6734  0.0639 -0.0541
   78MOL   C17335747   6.886   8.266   1.775 -0.4720 -1.0978  0.0791
   78MOL   O17435748   7.009   8.258   1.767  0.5828  0.0951  0.2824
   78MOL   O17535749   6.826   0.114   1.795 -0.8432 -0.1112  0.1292
   78MOL   C17635750   6.659   8.179   1.735 -0.4929  0.0305  0.1198
   78MOL   C17735751   6.564   8.076   1.721 -0.5528  0.2114  0.9417
   78MOL   H17835752   6.662   7.466   1.755  1.2768  0.6633  0.0456
   78MOL   H17935753   6.534   7.381   1.847 -1.2354  0.6574 -0.8214
   78MOL   H18035754   6.430   7.604   1.906 -1.1942  1.7922 -0.8912
   78MOL   H18135755   6.430   7.568   1.731  1.2925  1.2446 -0.6870
   78MOL   H18235756   6.786   7.816   1.781  1.5796  0.2782 -2.1905
   78MOL   H18335757   6.942   8.002   1.794  0.5334  0.9746  0.2982
   78MOL   H18435758   6.620   0.003   1.719 -0.6305 -0.4705 -2.8935
   78MOL   H18535759   6.460   8.088   1.697 -0.7796 -1.6481  0.9629
   78MOL   O18635760   6.924   0.218   1.827 -0.3660  0.3550  0.0757
   78MOL   C18735761   6.968   0.284   1.711 -0.5239 -0.2628 -0.0548
   78MOL   C18835762   7.064   0.390   1.761 -0.3858 -0.0170 -0.1208
   78MOL   O18935763   6.986   0.494   1.830 -0.6348  0.4795 -0.0131
   78MOL   C19035764   7.060   0.598   1.884 -0.3205  0.3135 -0.1708
   78MOL   O19135765   7.185   0.613   1.877 -0.4691  0.3582 -0.0368
   78MOL   C19235766   6.981   0.685   1.968 -0.0639  0.5157  0.0080
   78MOL   C19335767   7.030   0.800   2.036  0.0493 -0.1967 -0.3354
   78MOL   C19435768   6.953   0.873   2.127  0.8815  0.1474  0.8883
   78MOL   C19535769   6.819   0.838   2.149  0.3133  0.0215  0.2611
   78MOL   C19635770   6.739   0.902   2.260 -0.4146  0.4908  0.2886
   78MOL   O19735771   6.623   0.871   2.287  0.7587 -0.5019  0.2978
   78MOL   O19835772   6.802   1.001   2.328 -0.3732 -0.1348 -0.2016
   78MOL   C19935773   6.757   0.739   2.073 -0.5571 -0.9269 -0.2474
   78MOL   C20035774   6.841   0.655   1.995  0.2039  0.2695  0.1968
   78MOL   H20135775   7.028   0.223   1.644  0.5049 -0.5138  1.0862
   78MOL   H20235776   6.893   0.339   1.654 -0.4866 -0.9353 -0.7593
   78MOL   H20335777   7.123   0.435   1.681  0.3406  0.3463  0.6175
   78MOL   H20435778   7.142   0.342   1.820 -0.2209 -0.3160 -0.5775
   78MOL   H20535779   7.135   0.822   2.021 -0.0659 -0.7342 -1.9339
   78MOL   H20635780   6.992   0.967   2.163 -2.6166  2.3829 -0.8194
   78MOL   H20735781   6.652   0.713   2.084 -0.8895  0.2974 -0.5057
   78MOL   H20835782   6.795   0.575   1.938  0.5282  0.3306 -0.1589
   78MOL   O20935783   6.726   1.063   2.445  0.0779 -0.0531 -0.2226
   78MOL   C21035784   6.673   1.189   2.400 -0.2287 -0.1666 -0.4671
   78MOL   C21135785   6.788   1.283   2.367 -0.2706  0.2701 -0.4192
   78MOL   O21235786   6.854   1.259   2.238 -0.0038 -0.3507 -0.0170
   78MOL   C21335787   6.972   1.332   2.215 -0.3698 -0.4468 -0.1349
   78MOL   O21435788   7.007   1.427   2.286 -0.1390  0.7110  0.0829
   78MOL   C21535789   7.055   1.279   2.102 -0.1547  0.0301  0.7461
   78MOL   C21635790   7.010   1.182   2.022 -0.9980  0.7461  0.1094
   78MOL   C21735791   7.094   1.116   1.928 -0.9437  0.1638 -0.1901
   78MOL   C21835792   7.230   1.161   1.915 -0.2115  0.1959  0.9562
   78MOL   C21935793   7.313   1.097   1.809 -0.4481 -0.4080 -0.5215
   78MOL   O22035794   7.261   1.032   1.717 -0.7223 -0.1654 -0.1680
   78MOL   O22135795   7.439   1.111   1.834  0.6579 -0.3549  0.5813
   78MOL   C22235796   7.276   1.270   1.994 -0.2022  0.0477 -0.2063
   78MOL   C22335797   7.192   1.315   2.099  0.2429  0.5218 -0.6008
   78MOL   H22435798   6.605   1.182   2.315 -1.2010 -2.7111  0.4526
   78MOL   H22535799   6.606   1.233   2.474  1.4344 -1.8685  2.1557
   78MOL   H22635800   6.863   1.284   2.447 -0.5179  0.2410 -0.1832
   78MOL   H22735801   6.752   1.386   2.370  1.6028  0.9610 -1.3802
   78MOL   H22835802   6.906   1.154   2.019 -1.2435  1.6844 -0.1837
   78MOL   H22935803   7.047   1.043   1.864 -1.2136  1.0929 -1.0811
   78MOL   H23035804   7.377   1.309   1.985 -0.9818  2.4412  1.0017
   78MOL   H23135805   7.222   1.401   2.157  1.1553  0.9897 -1.7583
   78MOL   O23235806   7.530   1.010   1.755  0.0758 -0.2284 -0.0391
   78MOL   C23335807   7.574   0.909   1.839  0.2201 -0.2193 -0.0081
   78MOL   C23435808   7.704   0.934   1.918  0.6837  0.3492  0.1444
   78MOL   O23535809   7.821   0.884   1.861  0.4388  0.3207  0.0158
   78MOL   C23635810   7.936   0.944   1.866 -0.6998 -0.2486  0.0934
   78MOL   O23735811   7.955   1.051   1.921  0.2684  0.4222 -0.7558
   78MOL   C23835812   8.049   0.864   1.798  0.3869 -0.4640  0.2484
   78MOL   C23935813   8.176   0.920   1.789 -0.0980  0.8581 -0.3198
   78MOL   C24035814   0.006   0.862   1.722 -0.1467  0.3198 -0.1395
   78MOL   C24135815   8.264   0.734   1.655  0.4732 -0.3664 -0.2159
   78MOL   C24235816   0.107   0.666   1.596  0.2053  0.1394 -0.8981
   78MOL   O24335817   0.214   0.721   1.586 -0.5838  0.6406 -1.3539
   78MOL   O24435818   0.071   0.548   1.546  0.0422 -0.0293 -0.8680
   78MOL   C24535819   8.136   0.671   1.668 -0.1967 -0.7666  0.1163
   78MOL   C24635820   8.033   0.733   1.741  0.6442  0.4883  0.1426
   78MOL   H24735821   7.484   0.892   1.898 -0.9930  0.0001 -1.7609
   78MOL   H24835822   7.586   0.827   1.769 -0.0782  1.4957 -2.1056
   78MOL   H24935823   7.679   0.889   2.014  0.0444 -2.4921 -1.2841
   78MOL   H25035824   7.718   1.041   1.931 -1.4846  0.7234 -0.4471
   78MOL   H25135825   8.177   1.019   1.831 -0.3887  0.6669  0.1374
   78MOL   H25235826   0.100   0.915   1.710  0.3237 -0.8798 -1.9526
   78MOL   H25335827   8.115   0.573   1.628 -0.3871 -1.4949  1.9245
   78MOL   H25435828   7.936   0.687   1.749  0.7927  0.2219  0.4044
   78MOL   O25535829   0.160   0.475   1.452 -0.0367  0.0626 -0.5259
   78MOL   C25635830   0.105   0.484   1.321 -0.1142  0.0766 -0.3044
   78MOL   C25735831   8.262   0.385   1.320 -0.6341 -0.2663 -0.2839
   78MOL   O25835832   8.212   0.372   1.184 -0.0787 -0.2704  0.0447
   78MOL   C25935833   8.222   0.262   1.103 -0.3794  0.1460  0.3403
   78MOL   O26035834   0.018   0.169   1.134 -0.0656 -0.1704  0.0462
   78MOL   C26135835   8.143   0.268   0.983  0.0336  0.1319 -0.1788
   78MOL   C26235836   8.158   0.169   0.884 -0.4014 -0.1842  0.1753
   78MOL   C26335837   8.065   0.160   0.778  0.4798 -0.5921  0.1777
   78MOL   C26435838   7.960   0.254   0.755 -1.2394  0.1949 -0.7303
   78MOL   C26535839   7.871   0.255   0.633 -0.6103 -0.5628 -0.0886
   78MOL   O26635840   7.759   0.304   0.624  0.7600  0.1183 -0.3214
   78MOL   O26735841   7.924   0.191   0.527  0.0321  0.3161  0.0209
   78MOL   C26835842   7.952   0.358   0.852  0.3382 -0.9855 -0.9272
   78MOL   C26935843   8.032   0.355   0.970  0.6339 -0.2055 -0.2405
   78MOL   H27035844   0.079   0.586   1.291 -0.3679 -0.2724 -1.2793
   78MOL   H27135845   0.177   0.453   1.245 -0.5321  0.7154 -0.9634
   78MOL   H27235846   8.197   0.427   1.397  1.9738  1.3362  1.0913
   78MOL   H27335847   0.018   0.284   1.349  1.0081  0.7679  1.5972
   78MOL   H27435848   8.229   0.088   0.886  0.4980  0.6154  0.5689
   78MOL   H27535849   8.080   0.085   0.701  0.0274  1.2699 -1.7907
   78MOL   H27635850   7.877   0.436   0.848  1.2521 -0.1051 -1.1292
   78MOL   H27735851   8.016   0.430   1.046  0.4809 -3.3618  2.9795
   78MOL   O27835852   7.839   0.190   0.401 -0.3226  0.0235 -0.3479
   78MOL   C27935853   7.782   0.063   0.386  0.6703  0.5495 -0.2462
   78MOL   C28035854   7.750   0.040   0.240  0.3735 -0.2131 -0.5204
   78MOL   O28135855   7.729   8.181   0.223 -0.2037  0.3201  0.0841
   78MOL   C28235856   7.634   8.136   0.136  0.5778 -0.0462 -0.2463
   78MOL   O28335857   7.574   8.207   0.056 -0.1148  0.0783  0.2737
   78MOL   C28435858   7.613   7.992   0.154 -0.0046 -0.1555  0.1065
   78MOL   C28535859   7.671   7.925   0.264  0.0815 -0.0713  0.2200
   78MOL   C28635860   7.632   7.792   0.288  0.0005  0.2481 -0.0522
   78MOL   C28735861   7.549   7.725   0.197 -0.0507  0.1670 -0.0147
   78MOL   C28835862   7.503   7.583   0.219  0.2546 -0.0364  0.5836
   78MOL   O28935863   7.412   7.529   0.158  0.0392 -0.1279  0.2262
   78MOL   O29035864   7.573   7.510   0.311  0.2592 -1.1735  0.1627
   78MOL   C29135865   7.487   7.795   0.093 -0.2372  0.7108  0.3315
   78MOL   C29235866   7.525   7.924   0.062 -0.0887 -0.0763 -0.3695
   78MOL   H29335867   7.856   8.267   0.423  0.9010  0.0499 -1.6654
   78MOL   H29435868   7.695   0.058   0.450  0.3475  1.4402 -0.6085
   78MOL   H29535869   7.832   0.071   0.174 -0.1945  1.3702 -0.4929
   78MOL   H29635870   7.657   0.095   0.226  0.1622 -0.1546  1.0161
   78MOL   H29735871   7.741   7.967   0.335  0.5593  2.2067 -1.5383
   78MOL   H29835872   7.678   7.733   0.366  1.2432  1.4616  0.1634
   78MOL   H29935873   7.412   7.748   0.032  1.0222 -0.3579 -0.4276
   78MOL   H30035874   7.480   7.970   8.251 -0.3026  0.5445  0.0670
   78MOL   O30135875   7.570   7.365   0.294 -0.1789  0.3303 -0.5506
   78MOL   C30235876   7.684   7.317   0.226 -0.1445  0.4824 -0.1145
   78MOL   C30335877   7.805   7.320   0.321 -0.3692  0.2111 -1.0812
   78MOL   O30435878   7.828   7.448   0.381 -0.1899  0.1678 -0.0511
   78MOL   C30535879   7.920   7.542   0.326  0.0852 -0.4435 -0.3881
   78MOL   O30635880   7.976   7.527   0.217 -0.5048 -0.8408  0.0737
   78MOL   C30735881   7.942   7.660   0.411 -0.7515  0.1220  0.6692
   78MOL   C30835882   7.916   7.651   0.550  0.6042  0.1421  0.5064
   78MOL   C30935883   7.939   7.768   0.622  0.6915 -0.0573  0.0017
   78MOL   C31035884   7.978   7.890   0.557  0.4019 -0.2303 -0.0552
   78MOL   C31135885   7.995   8.016   0.637 -0.7792  0.6180  0.2943
   78MOL   O31235886   8.018   8.124   0.581  1.0728  0.5074 -0.5873
   78MOL   O31335887   7.960   8.003   0.769 -0.3434  0.4848 -0.4836
   78MOL   C31435888   7.994   7.889   0.420  0.1417 -1.1069 -0.7297
   78MOL   C31535889   7.981   7.775   0.348  0.0678 -0.3212  0.3063
   78MOL   H31635890   7.658   7.220   0.183 -1.8132  0.9370 -0.1446
   78MOL   H31735891   7.701   7.381   0.140  1.3837  0.9519  0.5151
   78MOL   H31835892   7.895   7.285   0.273  1.0790  3.0165 -0.5180
   78MOL   H31935893   7.787   7.257   0.408 -1.7758 -0.3448 -1.7521
   78MOL   H32035894   7.880   7.562   0.599  0.0361  0.1058  0.0320
   78MOL   H32135895   7.926   7.767   0.730 -1.5638 -1.6355 -0.2449
   78MOL   H32235896   8.019   7.981   0.368  0.2714 -0.6237  0.1838
   78MOL   H32335897   8.015   7.770   0.245 -2.1792 -2.2499 -0.3697
   78MOL   O32435898   7.988   8.126   0.851 -0.2835  0.2760  0.4679
   78MOL   C32535899   8.103   8.094   0.928 -0.0299 -0.1066 -0.9421
   78MOL   C32635900   8.093   8.163   1.070 -0.9128 -0.2515  0.2595
   78MOL   O32735901   8.041   8.085   1.171 -0.1024 -0.2391  0.3157
   78MOL   C32835902   7.907   8.076   1.192 -0.2655 -0.0858 -0.0062
   78MOL   O32935903   7.824   8.129   1.117  0.1002  0.3017 -0.2673
   78MOL   C33035904   7.879   7.992   1.313 -0.6213 -0.2020 -0.0565
   78MOL   C33135905   7.745   7.972   1.346  0.5499  0.2709 -0.6636
   78MOL   C33235906   7.710   7.889   1.450 -0.9593  0.4213  0.2466
   78MOL   C33335907   7.812   7.829   1.533  0.1716 -0.2672  0.3855
   78MOL   C33435908   7.777   7.739   1.645 -0.1658  0.5776 -0.3570
   78MOL   O33535909   7.870   7.707   1.722  0.1740  0.9436  0.2033
   78MOL   O33635910   7.656   7.698   1.658 -0.3183 -0.0479  0.2070
   78MOL   C33735911   7.947   7.862   1.506  0.0581 -0.3453  0.0562
   78MOL   C33835912   7.981   7.938   1.391 -0.4164  0.5741 -0.5093
   78MOL   H33935913   8.133   7.989   0.930  0.2243 -0.0405 -1.2003
   78MOL   H34035914   8.188   8.138   0.876  1.3207 -0.1019  1.2012
   78MOL   H34135915   8.042   8.259   1.068  1.8268  1.2745  0.5076
   78MOL   H34235916   8.198   8.190   1.086 -0.9699  0.0382  0.1453
   78MOL   H34335917   7.672   8.020   1.284  0.2758 -0.0764 -0.6126
   78MOL   H34435918   7.603   7.879   1.466 -1.4528  1.2591 -2.2243
   78MOL   H34535919   8.025   7.821   1.568  1.2791 -1.3833 -2.1001
   78MOL   H34635920   8.085   7.955   1.369 -0.3806 -0.9194 -1.6320
   78MOL   O34735921   7.636   7.615   1.782 -0.2230 -0.2090 -0.0097
   78MOL   C34835922   7.606   7.481   1.748  0.2198 -1.0610  0.7245
   78MOL   C34935923   7.619   7.401   1.878  0.0073 -0.1369  0.1453
   78MOL   O35035924   7.497   7.415   1.948  0.1482  0.7205  0.3548
   78MOL   C35135925   7.481   7.525   2.026 -0.5528  0.2371  0.3321
   78MOL   O35235926   7.570   7.603   2.051 -0.5956 -0.9541  0.0389
   78MOL   C35335927   7.346   7.528   2.085 -0.2486  0.0537  0.2821
   78MOL   C35435928   7.246   7.431   2.079 -0.5350  0.1855  0.1692
   78MOL   C35535929   7.136   7.448   2.160  0.1513 -0.1111  0.0527
   78MOL   C35635930   7.110   7.566   2.233  0.7241  0.6636  0.0180
   78MOL   C35735931   6.992   7.575   2.333  0.0948 -0.0058 -0.5147
   78MOL   O35835932   6.903   7.491   2.334 -0.1258  1.0943 -0.0119
   78MOL   O35935933   6.993   7.685   2.413 -0.4670 -0.4074  0.1634
   78MOL   C36035934   7.205   7.671   2.221  0.0517 -0.1395 -0.0013
   78MOL   C36135935   7.317   7.649   2.148 -0.6413  0.4540 -0.6044
   78MOL   H36235936   7.509   7.473   1.699  1.4711 -1.5217 -1.7345
   78MOL   H36335937   7.672   7.428   1.680  2.2887  0.7915  1.2214
   78MOL   H36435938   7.714   7.409   1.931  1.0469  0.6085 -1.7831
   78MOL   H36535939   7.609   7.296   1.851  3.7553 -0.7237  0.8421
   78MOL   H36635940   7.267   7.346   2.016 -2.1848  0.5581 -0.8960
   78MOL   H36735941   7.057   7.375   2.151 -0.7670  0.7232  1.1014
   78MOL   H36835942   7.205   7.766   2.272 -1.6088  1.2790 -2.4887
   78MOL   H36935943   7.385   7.733   2.140 -0.2038  0.2513  0.9345
   78MOL   O37035944   6.901   7.666   2.535  0.0501 -0.3956  0.5195
   78MOL   C37135945   6.964   7.580   2.635  0.2064  0.0352 -0.2453
   78MOL   C37235946   7.089   7.645   2.695 -0.1507  0.4651 -0.0020
   78MOL   O37335947   7.209   7.638   2.615 -0.5446  0.0068 -0.0667
   78MOL   C37435948   7.322   7.675   2.682 -0.3009  0.5297  1.0358
   78MOL   O37535949   7.326   7.725   2.793  0.1384 -0.0117  0.2138
   78MOL   C37635950   7.441   7.660   2.605 -0.1292 -0.0443  0.2125
   78MOL   C37735951   7.440   7.601   2.475  0.6907 -0.0083 -0.3635
   78MOL   C37835952   7.561   7.593   2.402 -0.5422  0.2593  0.3327
   78MOL   C37935953   7.685   7.644   2.449  0.4235 -0.5237  0.7764
   78MOL   C38035954   7.806   7.647   2.363 -0.2593 -0.2060 -0.4276
   78MOL   O38135955   7.920   7.687   2.405  0.2637 -0.4994 -0.0821
   78MOL   O38235956   7.789   7.603   2.241  0.5888  0.4035  0.4563
   78MOL   C38335957   7.683   7.689   2.588 -0.6366 -0.2042 -0.4173
   78MOL   C38435958   7.564   7.701   2.667 -0.1093 -0.0437 -0.1071
   78MOL   H38535959   6.887   7.561   2.710  0.1941 -1.1105 -0.5419
   78MOL   H38635960   6.974   7.478   2.598  3.7161 -0.1902  1.1145
   78MOL   H38735961   7.103   7.586   2.786 -2.2068  0.8393  0.5927
   78MOL   H38835962   7.072   7.743   2.738  0.1099  0.4641  0.1050
   78MOL   H38935963   7.351   7.560   2.429  1.3259 -0.3067 -1.3422
   78MOL   H39035964   7.545   7.546   2.307  0.3335  3.5341 -1.5190
   78MOL   H39135965   7.776   7.720   2.634  0.3529 -2.1293 -1.0578
   78MOL   H39235966   7.571   7.742   2.766 -1.9201 -0.3603  0.1775
   78MOL   O39335967   7.909   7.597   2.151 -0.2618 -0.3848 -0.0970
   78MOL   C39435968   7.902   7.685   2.039  0.8425  0.5620  0.5656
   78MOL   C39535969   7.878   7.833   2.076 -0.6909  0.1136  0.3738
   78MOL   O39635970   7.755   7.855   2.143  0.9613  0.0790 -0.2070
   78MOL   C39735971   7.652   7.906   2.073  0.6252 -0.0332  0.5492
   78MOL   O39835972   7.660   7.944   1.958  0.5138  0.2448 -0.0159
   78MOL   C39935973   7.537   7.934   2.161  0.5834 -0.2696 -0.5535
   78MOL   C40035974   7.423   7.983   2.102  0.2408  0.5074  1.0502
   78MOL   C40135975   7.312   8.031   2.173 -1.1961  0.3054  0.2565
   78MOL   C40235976   7.312   8.021   2.309 -0.5325 -0.6316 -0.4695
   78MOL   C40335977   7.195   8.058   2.389 -0.5378  0.6168 -0.7004
   78MOL   O40435978   7.109   8.137   2.353  0.1072 -0.6420  0.0340
   78MOL   O40535979   7.173   7.979   2.499 -0.1686  0.2001  0.2004
   78MOL   C40635980   7.426   7.962   2.375 -0.0896 -0.0433 -0.5123
   78MOL   C40735981   7.539   7.925   2.299  0.1135 -0.2417  0.1483
   78MOL   H40835982   7.996   7.694   1.984  0.5961  1.5073  0.2839
   78MOL   H40935983   7.826   7.658   1.965 -1.5900  0.1247  3.1482
   78MOL   H41035984   7.886   7.905   1.994 -1.7235  0.2668  0.3994
   78MOL   H41135985   7.956   7.865   2.147 -0.4222  0.2825  0.0048
   78MOL   H41235986   7.425   7.980   1.994 -0.9251 -0.3529  1.0462
   78MOL   H41335987   7.222   8.068   2.126 -1.0940  1.7907  1.1854
   78MOL   H41435988   7.436   7.969   2.483  0.4725  1.5822 -0.6472
   78MOL   H41535989   7.630   7.893   2.347  1.3652  2.9012 -0.0215
   78MOL   O41635990   7.033   7.993   2.569  0.2169 -0.0097 -0.3293
   78MOL   C41735991   7.054   8.074   2.682 -0.4659 -0.9516  0.0612
   78MOL   C41835992   6.936   8.064   2.778  0.5825  0.1388 -0.8057
   78MOL   O41935993   6.915   7.932   2.841 -0.2274  0.7339 -0.3398
   78MOL   C42035994   7.004   7.894   2.931  0.2856  0.2173  0.3090
   78MOL   O42135995   7.106   7.954   2.956 -0.4447  0.3087 -0.4231
   78MOL   C42235996   6.967   7.765   2.999  0.0019  0.1772 -0.1806
   78MOL   C42335997   6.855   7.692   2.953  0.2630  0.0561  0.3212
   78MOL   C42435998   6.808   7.583   3.027 -0.0882  0.0886 -0.0948
   78MOL   C42535999   6.875   7.542   3.144 -0.1024 -0.3615 -0.2826
   78MOL   C42636000   6.825   7.424   3.217 -0.1137 -0.0265  0.0486
   78MOL   O42736001   6.885   7.379   3.319  0.4220  0.1025  0.2676
   78MOL   O42836002   6.708   7.382   3.175 -0.2614  0.8053  0.2129
   78MOL   C42936003   6.993   7.609   3.187  0.6177 -0.1304  0.6600
   78MOL   C43036004   7.039   7.724   3.113 -0.8741 -1.0574  0.2644
   78MOL   H43136005   7.152   8.064   2.729  0.0701 -0.6321 -0.9538
   78MOL   H43236006   7.050   8.174   2.638  0.6105 -1.0160 -0.1952
   78MOL   H43336007   6.842   8.099   2.734  0.8731  0.9653 -0.7862
   78MOL   H43436008   6.951   8.137   2.858 -2.2002  0.7074 -0.7627
   78MOL   H43536009   6.803   7.712   2.861  0.4079  0.5221  0.3367
   78MOL   H43636010   6.726   7.527   2.984  0.4460 -0.2546 -0.6623
   78MOL   H43736011   7.046   7.570   3.272 -0.5805  1.4609  2.1950
   78MOL   H43836012   7.112   7.794   3.152 -1.0045 -1.1104  0.6051
   78MOL   O43936013   6.650   7.263   3.241  0.0890 -0.0925 -0.0080
   78MOL   C44036014   6.579   7.306   3.353  0.4936 -0.2888  0.3355
   78MOL   C44136015   6.444   7.357   3.299 -0.0035  0.1529  0.7402
   78MOL   O44236016   6.468   7.492   3.255  0.3311 -0.3230  0.3488
   78MOL   C44336017   6.438   7.525   3.125  0.4757  0.1554 -0.0148
   78MOL   O44436018   6.375   7.454   3.041  0.3431 -0.0848 -0.0937
   78MOL   C44536019   6.484   7.662   3.095 -0.0742  0.5911  0.6658
   78MOL   C44636020   6.461   7.715   2.968 -0.4982 -0.7822 -0.2029
   78MOL   C44736021   6.519   7.839   2.929 -0.2227  0.2979 -0.6697
   78MOL   C44836022   6.579   7.920   3.031 -0.8324  0.9400 -0.7320
   78MOL   C44936023   6.621   8.059   2.994 -0.7929 -0.6133 -0.9011
   78MOL   O45036024   6.633   8.090   2.877 -0.3230  0.5529  0.5980
   78MOL   O45136025   6.649   8.134   3.098 -0.0283 -0.0843 -0.4325
   78MOL   C45236026   6.614   7.863   3.156 -0.3830 -0.0552 -0.3566
   78MOL   C45336027   6.562   7.736   3.191 -0.4016  0.6473 -0.5345
   78MOL   H45436028   6.548   7.217   3.407 -1.0332 -0.0017 -0.0640
   78MOL   H45536029   6.633   7.381   3.411  0.9369 -0.6362  0.3695
   78MOL   H45636030   6.370   7.377   3.376 -0.7475  1.1143 -0.2123
   78MOL   H45736031   6.401   7.285   3.229  0.1915 -0.3420  1.1266
   78MOL   H45836032   6.393   7.667   2.899 -0.8331  2.5137 -2.2699
   78MOL   H45936033   6.513   7.880   2.830  0.2691  0.1948 -0.7417
   78MOL   H46036034   6.680   7.915   3.224 -1.2025 -1.2547  1.3784
   78MOL   H46136035   6.581   7.696   3.289 -0.8890  3.6986  0.8806
   78MOL   H46236036   6.685   8.209   3.054  0.5931 -0.7156 -1.0083
   79MOL     O136037   1.215   6.682   1.269  0.2902  0.0764  0.2745
   79MOL     C236038   1.141   6.739   1.379 -0.7808  0.4170  0.2028
   79MOL     C336039   1.159   6.887   1.364 -0.1221 -0.2647  0.1466
   79MOL     O436040   1.085   6.936   1.251  0.1321 -0.0999  0.2999
   79MOL     C536041   1.086   7.059   1.226  0.2099 -0.2530 -0.0122
   79MOL     O636042   1.131   7.144   1.305  0.0128 -0.4101  0.3396
   79MOL     C736043   1.032   7.097   1.091  1.1343  0.6864 -1.2624
   79MOL     C836044   0.965   7.005   1.008  0.4290  0.0570 -0.0766
   79MOL     C936045   0.934   7.042   0.877 -0.4624  0.1238 -0.5163
   79MOL    C1036046   0.967   7.170   0.830  1.1828 -0.3347  0.6938
   79MOL    C1136047   0.929   7.211   0.689 -0.2463 -0.8585  0.7936
   79MOL    O1236048   0.950   7.321   0.636  0.3861  0.3930  0.1916
   79MOL    O1336049   0.873   7.106   0.627  0.2557  0.6116 -0.1140
   79MOL    C1436050   1.031   7.260   0.911  0.1767  0.0003  0.2978
   79MOL    C1536051   1.053   7.231   1.049  0.6763  0.5538  0.2280
   79MOL    H1636052   1.033   6.726   1.376 -0.9088  1.5467 -0.9242
   79MOL    H1736053   1.180   6.698   1.472  1.8054  0.9640 -0.5819
   79MOL    H1836054   1.263   6.920   1.354  0.4105 -2.3121 -1.4980
   79MOL    H1936055   1.114   6.924   1.456  0.1857 -0.2915  0.3070
   79MOL    H2036056   0.961   6.900   1.031 -0.5545 -0.3724 -2.1323
   79MOL    H2136057   0.896   6.969   0.807 -2.7004  0.8597 -0.1158
   79MOL    H2236058   1.055   7.356   0.868 -0.7990 -0.5997 -1.6164
   79MOL    H2336059   1.111   7.301   1.108 -0.1580  0.1654  1.5316
   79MOL    H2436060   1.171   6.603   1.241 -0.1262 -0.2377  1.7998
   79MOL    O2536061   0.823   7.133   0.488 -0.3247 -0.1062  0.1693
   79MOL    C2636062   0.684   7.138   0.497 -0.0763 -0.5814 -1.3061
   79MOL    C2736063   0.620   7.150   0.360 -1.0976  0.0602 -0.0189
   79MOL    O2836064   0.654   7.275   0.289  0.0317  0.3329  0.0944
   79MOL    C2936065   0.606   7.392   0.327 -0.5413 -0.1802 -0.3307
   79MOL    O3036066   0.547   7.399   0.437  0.0796 -0.2934 -0.0333
   79MOL    C3136067   0.608   7.511   0.241 -0.0262 -0.0585 -0.4408
   79MOL    C3236068   0.628   7.491   0.103 -0.2324 -0.0936 -0.8102
   79MOL    C3336069   0.624   7.604   0.020  0.4637  0.0795  0.4372
   79MOL    C3436070   0.601   7.735   0.068 -0.6664  0.6045  0.3148
   79MOL    C3536071   0.605   7.854   8.254  0.0492 -0.4487  0.3606
   79MOL    O3636072   0.636   7.856   8.137 -0.2535  0.0975 -0.9131
   79MOL    O3736073   0.561   7.968   0.029  0.6025  0.0674 -0.0929
   79MOL    C3836074   0.583   7.752   0.209  0.0588  0.4946 -0.0169
   79MOL    C3936075   0.588   7.641   0.297  0.3376 -0.2561  0.3656
   79MOL    H4036076   0.655   7.042   0.541 -1.5649  0.6472  0.5023
   79MOL    H4136077   0.649   7.217   0.564 -1.6355  0.4161 -3.2836
   79MOL    H4236078   0.513   7.146   0.383 -1.0299 -0.0440  0.2744
   79MOL    H4336079   0.639   7.068   0.291 -0.6926 -1.6654  2.1126
   79MOL    H4436080   0.647   7.390   0.068 -0.6009 -1.0834  1.7316
   79MOL    H4536081   0.640   7.595   8.189 -0.5227 -1.2062  0.3849
   79MOL    H4636082   0.566   7.854   0.242  0.5394  0.8962 -0.9840
   79MOL    H4736083   0.563   7.663   0.400 -0.2753 -0.0808  0.1785
   79MOL    O4836084   0.541   8.076   8.209  0.1094  0.2659  0.5559
   79MOL    C4936085   0.405   8.102   8.198  0.3913  0.6091  0.3439
   79MOL    C5036086   0.335   8.121   0.055  0.0470  0.5686 -0.1622
   79MOL    O5136087   0.410   8.215   0.135 -0.2212  0.5459  0.0058
   79MOL    C5236088   0.447   8.186   0.267 -0.3291 -0.5280 -0.6349
   79MOL    O5336089   0.413   8.084   0.326 -0.0508  0.3422 -0.7618
   79MOL    C5436090   0.533   0.021   0.332 -0.4191 -1.0646 -0.6108
   79MOL    C5536091   0.611   8.266   0.448 -0.1656 -0.4813 -0.0980
   79MOL    C5636092   0.697   0.087   0.498 -0.0665 -0.0959  0.8826
   79MOL    C5736093   0.698   0.220   0.443  1.0287  0.4616  0.1861
   79MOL    C5836094   0.808   0.316   0.480  0.1476  0.2381 -0.5855
   79MOL    O5936095   0.795   0.437   0.487  0.1885  0.3297  0.2876
   79MOL    O6036096   0.914   0.247   0.519 -0.6347  0.0034  0.6266
   79MOL    C6136097   0.620   0.248   0.333 -0.0896  0.0458  1.0889
   79MOL    C6236098   0.534   0.153   0.279 -0.7783 -0.4178  0.1745
   79MOL    H6336099   0.368   8.192   8.149 -1.6302 -0.1132  0.4821
   79MOL    H6436100   0.361   8.020   8.141  0.7840  0.7084 -0.1016
   79MOL    H6536101   0.329   8.030   0.116 -1.1396 -0.2614 -1.4835
   79MOL    H6636102   0.234   8.161   0.048 -0.4013 -0.8330 -1.9598
   79MOL    H6736103   0.621   8.166   0.489  1.1626  0.9515  3.3003
   79MOL    H6836104   0.767   0.058   0.575  2.2919 -0.5490 -1.3797
   79MOL    H6936105   0.608   0.344   0.286  0.5127 -0.4845 -0.1688
   79MOL    H7036106   0.460   0.185   0.207 -0.0747 -1.4622 -1.0511
   79MOL    O7136107   1.036   0.336   0.522  0.5914 -0.7098 -0.0794
   79MOL    C7236108   1.123   0.297   0.421 -0.4339  0.2873 -0.3972
   79MOL    C7336109   1.256   0.368   0.457 -0.0585 -0.6116 -0.1333
   79MOL    O7436110   1.236   0.503   0.510 -0.1048  0.0853 -0.3087
   79MOL    C7536111   1.286   0.621   0.454 -0.1255 -0.3989 -0.6241
   79MOL    O7636112   1.365   0.618   0.361  0.4493  0.1030 -0.2299
   79MOL    C7736113   1.244   0.745   0.520  1.1553  0.2037 -0.0585
   79MOL    C7836114   1.149   0.741   0.623 -0.0371  0.2913 -0.2470
   79MOL    C7936115   1.118   0.858   0.696 -0.3140  0.0285  0.1016
   79MOL    C8036116   1.175   0.982   0.662  0.3078 -0.2999  0.1100
   79MOL    C8136117   1.158   1.096   0.752  0.2136 -0.6620  0.4379
   79MOL    O8236118   1.231   1.193   0.750  0.0629  0.4819 -0.0208
   79MOL    O8336119   1.063   1.081   0.840 -0.1646 -0.3739  1.1596
   79MOL    C8436120   1.259   0.985   0.547 -0.2444  0.2677  0.5756
   79MOL    C8536121   1.304   0.865   0.483  0.0930 -0.2638 -0.1385
   79MOL    H8636122   1.137   0.189   0.416 -1.2747  0.2433 -1.9514
   79MOL    H8736123   1.087   0.344   0.330 -1.3329 -1.8867 -1.1964
   79MOL    H8836124   1.322   0.365   0.370  0.7304 -1.5899  0.4823
   79MOL    H8936125   1.313   0.319   0.537 -1.1745 -2.0246 -0.1848
   79MOL    H9036126   1.104   0.645   0.644  0.7179  0.5607  2.9207
   79MOL    H9136127   1.052   0.836   0.779  1.5323  0.6291  1.7806
   79MOL    H9236128   1.294   1.080   0.509 -0.5167 -0.5995 -1.9893
   79MOL    H9336129   1.367   0.869   0.395 -0.8221 -3.4075 -0.9877
   79MOL    O9436130   1.013   1.202   0.914 -1.2095 -0.2085  0.0121
   79MOL    C9536131   1.101   1.236   1.021 -0.3109 -0.8024 -0.6709
   79MOL    C9636132   1.046   1.331   1.119 -0.5207 -0.0936 -1.6157
   79MOL    O9736133   0.946   1.274   1.207 -0.1367 -0.5190  0.5307
   79MOL    C9836134   0.879   1.356   1.288 -0.0885 -0.3748  0.1595
   79MOL    O9936135   0.895   1.478   1.292 -0.6357 -0.8015  0.3589
   79MOL   C10036136   0.788   1.293   1.382  0.2617  0.7902 -0.2004
   79MOL   C10136137   0.726   1.372   1.473  0.2554  0.2871 -0.2385
   79MOL   C10236138   0.622   1.317   1.565 -0.6326 -0.2668 -0.2542
   79MOL   C10336139   0.590   1.180   1.560  0.6353  0.3107 -0.0081
   79MOL   C10436140   0.472   1.132   1.639  0.1101 -0.2806  0.1679
   79MOL   O10536141   0.405   1.036   1.607 -0.3230 -0.0543  0.1426
   79MOL   O10636142   0.459   1.212   1.746 -0.0481  0.2982 -0.0981
   79MOL   C10736143   0.664   1.101   1.470 -0.6415  0.2489  0.0511
   79MOL   C10836144   0.762   1.152   1.381  0.0438 -0.5620 -0.1828
   79MOL   H10936145   1.139   1.146   1.068 -1.0729 -0.6351  0.2638
   79MOL   H11036146   1.184   1.293   0.981  0.0224 -0.7953  0.0362
   79MOL   H11136147   1.013   1.418   1.061  0.9111  0.7180 -1.2218
   79MOL   H11236148   1.137   1.365   1.167  0.4009 -0.9683 -2.6964
   79MOL   H11336149   0.731   1.479   1.476  1.7669  0.3321 -2.8888
   79MOL   H11436150   0.561   1.383   1.625 -1.8456  0.7883 -2.5873
   79MOL   H11536151   0.661   0.993   1.461 -1.5328  0.2645  0.1390
   79MOL   H11636152   0.821   1.080   1.326  0.1253 -0.4033 -0.3001
   79MOL   O11736153   0.324   1.205   1.814  0.3467 -0.2559 -0.1237
   79MOL   C11836154   0.247   1.319   1.787  0.2603 -0.0695 -0.4538
   79MOL   C11936155   0.117   1.309   1.873 -0.9771 -0.9103  0.2871
   79MOL   O12036156   0.060   1.435   1.885 -0.5163  0.2363  0.1674
   79MOL   C12136157   8.232   1.449   1.979 -0.4163 -0.1670  1.0531
   79MOL   O12236158   8.194   1.353   2.042 -0.0545  0.0802  0.0276
   79MOL   C12336159   8.173   1.588   1.983 -0.5572 -0.5587  0.2697
   79MOL   C12436160   8.210   1.690   1.889  0.4620  0.5343  0.0422
   79MOL   C12536161   8.165   1.817   1.917  0.0751  0.5189 -0.7887
   79MOL   C12636162   8.064   1.845   2.017  0.6543  0.9188 -0.0336
   79MOL   C12736163   7.989   1.971   2.007  0.2463 -0.3010 -0.0745
   79MOL   O12836164   8.001   2.055   1.915 -0.2476  0.3275 -0.5230
   79MOL   O12936165   7.906   1.987   2.110 -0.0168 -0.0648  1.0077
   79MOL   C13036166   8.031   1.743   2.109 -0.4838  0.7061  0.2568
   79MOL   C13136167   8.090   1.614   2.098 -0.2225  0.0115 -0.1338
   79MOL   H13236168   0.301   1.411   1.810 -0.9397  0.4743  0.2657
   79MOL   H13336169   0.227   1.328   1.680  1.5045 -0.5788 -0.7314
   79MOL   H13436170   0.136   1.275   1.975  2.1046 -1.6459 -0.4784
   79MOL   H13536171   0.039   1.248   1.828 -1.7192  2.1961 -2.9267
   79MOL   H13636172   8.270   1.669   1.802 -3.2476  0.1559 -2.5319
   79MOL   H13736173   8.201   1.884   1.840  1.7394  1.1649  0.5363
   79MOL   H13836174   7.960   1.774   2.185 -1.6561 -1.9651  0.2830
   79MOL   H13936175   8.070   1.536   2.170  0.1400 -0.1653 -0.2189
   79MOL   O14036176   7.846   2.124   2.107  0.5972  0.2620 -0.4748
   79MOL   C14136177   7.714   2.116   2.059  0.2207  0.5991 -0.2576
   79MOL   C14236178   7.661   2.257   2.049  0.3580  0.0477 -0.0212
   79MOL   O14336179   7.621   2.282   2.177  0.2654  0.8976  0.1055
   79MOL   C14436180   7.602   2.408   2.218  0.1279 -0.3958 -0.3167
   79MOL   O14536181   7.612   2.503   2.139  0.2904  0.0402 -0.1924
   79MOL   C14636182   7.575   2.413   2.366 -0.0410 -0.3505 -0.3358
   79MOL   C14736183   7.620   2.309   2.446 -0.6885  0.0365  0.4363
   79MOL   C14836184   7.589   2.314   2.581  0.1275  1.3833  0.0278
   79MOL   C14936185   7.521   2.422   2.634 -0.9464  0.4176  0.1597
   79MOL   C15036186   7.502   2.423   2.783  0.1879  1.0434  0.3610
   79MOL   O15136187   7.579   2.369   2.859  0.1190 -0.4177  0.3238
   79MOL   O15236188   7.396   2.496   2.836  0.0271 -0.2806 -0.3501
   79MOL   C15336189   7.478   2.529   2.550 -0.1950  0.0234 -0.5106
   79MOL   C15436190   7.502   2.523   2.416  0.1092  0.1510  0.3988
   79MOL   H15536191   7.703   2.077   1.957 -2.1316 -2.2369  0.9946
   79MOL   H15636192   7.655   2.054   2.126 -0.4851  2.8817  1.2860
   79MOL   H15736193   7.581   2.251   1.975  0.9144  1.2725 -0.7462
   79MOL   H15836194   7.740   2.326   2.018  1.3814  0.0696  2.5321
   79MOL   H15936195   7.682   2.224   2.420 -0.8003  0.2646 -0.6019
   79MOL   H16036196   7.622   2.232   2.644 -2.1541  0.7615  0.4548
   79MOL   H16136197   7.429   2.619   2.583 -1.0510 -0.5813 -0.0940
   79MOL   H16236198   7.469   2.601   2.350 -0.1959 -0.6015 -0.3539
   79MOL   O16336199   7.411   2.525   2.987 -0.1576  0.5415 -0.4608
   79MOL   C16436200   7.355   2.415   3.060 -0.1089 -0.4007  0.2536
   79MOL   C16536201   7.333   2.452   3.206 -0.4709 -0.1973 -0.6367
   79MOL   O16636202   7.457   2.435   3.270 -0.2911 -0.2105 -0.3775
   79MOL   C16736203   7.527   2.542   3.300 -0.4734 -0.0902  0.5716
   79MOL   O16836204   7.478   2.659   3.297  0.4458  0.2586 -0.0513
   79MOL   C16936205   7.663   2.509   3.350 -0.2922  0.5804 -0.7089
   79MOL   C17036206   7.744   2.605   3.404  0.0986 -0.5842  0.0186
   79MOL   C17136207   7.870   2.582   3.458 -0.6618  0.8959  0.3318
   79MOL   C17236208   7.917   2.449   3.470  0.7937  0.1812 -0.2058
   79MOL   C17336209   8.058   2.423   3.508 -0.0448 -0.2495 -0.9076
   79MOL   O17436210   8.134   2.517   3.543  0.3373  0.1595  0.2107
   79MOL   O17536211   8.098   2.295   3.496 -0.0075  0.2629  0.4263
   79MOL   C17636212   7.833   2.345   3.421  0.7412  0.4516  0.0121
   79MOL   C17736213   7.708   2.373   3.363  0.4108 -0.4914 -0.0006
   79MOL   H17836214   7.259   2.391   3.013 -0.0606  1.1145 -0.6491
   79MOL   H17936215   7.401   2.316   3.062 -0.6353 -0.6529  0.1466
   79MOL   H18036216   7.262   2.381   3.248 -3.0950  1.3827 -2.2645
   79MOL   H18136217   7.283   2.549   3.207  0.0409  0.0987 -2.3642
   79MOL   H18236218   7.708   2.707   3.404 -0.9747 -0.9622  0.6187
   79MOL   H18336219   7.933   2.665   3.485  0.0892  1.1220 -2.0254
   79MOL   H18436220   7.865   2.242   3.420  0.5734  0.3659  1.9177
   79MOL   H18536221   7.651   2.287   3.330 -0.0247 -1.0961  2.2231
   79MOL   O18636222   8.249   2.276   3.520  0.0477 -0.3108 -0.0646
   79MOL   C18736223   0.039   2.273   3.394  0.4305  0.6881  0.2712
   79MOL   C18836224   8.250   2.163   3.313  0.3873 -0.0125  0.2586
   79MOL   O18936225   0.075   2.100   3.242 -0.1057  0.0699  0.1476
   79MOL   C19036226   0.122   1.979   3.267  0.0959  0.0136  0.0019
   79MOL   O19136227   0.089   1.911   3.361 -0.4328  0.1188  0.3368
   79MOL   C19236228   0.231   1.940   3.169 -0.6776 -0.6406 -0.1621
   79MOL   C19336229   0.237   2.007   3.045 -0.0550 -0.5429 -0.5004
   79MOL   C19436230   0.329   1.981   2.945  0.3966  0.7641  0.1450
   79MOL   C19536231   0.434   1.889   2.969  0.0321  0.3104 -0.9013
   79MOL   C19636232   0.551   1.873   2.878 -0.3026 -0.6223  0.2315
   79MOL   O19736233   0.575   1.946   2.780  1.0611  0.0113  0.2861
   79MOL   O19836234   0.624   1.770   2.910 -0.1926 -0.2646  0.0852
   79MOL   C19936235   0.431   1.821   3.094 -0.1789 -0.8341  0.2690
   79MOL   C20036236   0.326   1.840   3.188 -0.1424  1.2171  0.5785
   79MOL   H20136237   0.015   2.366   3.342 -2.5214 -0.6142 -0.7686
   79MOL   H20236238   0.147   2.263   3.407  0.1029  0.6709  3.3481
   79MOL   H20336239   8.199   2.221   3.237  0.1804  1.3503  1.4187
   79MOL   H20436240   8.175   2.102   3.363  0.8023  0.0239  0.9315
   79MOL   H20536241   0.172   2.094   3.040  3.5541  2.3694  1.0134
   79MOL   H20636242   0.332   2.018   2.843  1.0612 -1.6321 -0.7335
   79MOL   H20736243   0.507   1.752   3.130  1.1583  0.2161 -0.4916
   79MOL   H20836244   0.337   1.785   3.280  2.8686  0.7506 -0.0021
   79MOL   O20936245   0.752   1.748   2.835 -0.3502  0.6483 -0.0102
   79MOL   C21036246   0.736   1.653   2.734  0.2643 -0.4219 -0.0612
   79MOL   C21136247   0.870   1.603   2.679 -0.5044 -0.0408 -0.1555
   79MOL   O21236248   0.956   1.701   2.624 -0.1545 -0.1447 -0.8538
   79MOL   C21336249   1.061   1.756   2.682 -0.3347 -0.1811  0.0661
   79MOL   O21436250   1.096   1.732   2.797  0.5632 -0.2610  0.1160
   79MOL   C21536251   1.126   1.857   2.594 -0.0269  0.9255  0.1063
   79MOL   C21636252   1.242   1.928   2.637  0.0264 -0.1425 -0.2996
   79MOL   C21736253   1.303   2.027   2.558  0.1928  0.1954  0.1169
   79MOL   C21836254   1.250   2.061   2.432  0.0405 -0.2788 -0.0413
   79MOL   C21936255   1.313   2.170   2.355  0.4748 -0.1447  0.4757
   79MOL   O22036256   1.417   2.224   2.389 -0.5821 -0.5777  0.4801
   79MOL   O22136257   1.235   2.214   2.251 -0.3000  0.0067  0.3856
   79MOL   C22236258   1.133   1.998   2.388  0.7289  0.0427  0.5538
   79MOL   C22336259   1.076   1.891   2.462 -0.5099  0.2413 -0.1526
   79MOL   H22436260   0.692   1.565   2.781  0.2142 -0.5901 -0.4174
   79MOL   H22536261   0.670   1.682   2.652 -0.1843 -0.3515  0.3212
   79MOL   H22636262   0.838   1.543   2.594  0.6893 -0.2753 -0.4500
   79MOL   H22736263   0.925   1.548   2.756 -1.8092 -1.5009 -0.2291
   79MOL   H22836264   1.275   1.904   2.737 -3.0697  0.6429  0.9474
   79MOL   H22936265   1.384   2.085   2.598 -0.2574  1.1099 -0.2782
   79MOL   H23036266   1.085   2.034   2.298 -0.8519  2.2333  2.2124
   79MOL   H23136267   0.986   1.841   2.427 -1.1688 -0.1442  2.0141
   79MOL   O23236268   1.258   2.358   2.194  0.1902  0.7696  0.1286
   79MOL   C23336269   1.332   2.343   2.069 -0.2446  0.7107  0.1397
   79MOL   C23436270   1.377   2.476   2.014 -0.6482  0.2792 -0.1373
   79MOL   O23536271   1.458   2.546   2.106 -0.1411 -0.1563  0.2725
   79MOL   C23636272   1.590   2.515   2.124 -0.7983 -0.0439 -0.3099
   79MOL   O23736273   1.666   2.456   2.043 -0.1087 -0.8878  0.0795
   79MOL   C23836274   1.646   2.577   2.250  0.3491  1.0901  0.4401
   79MOL   C23936275   1.788   2.590   2.262 -0.7340  0.4566  0.0759
   79MOL   C24036276   1.835   2.644   2.388  0.4224 -0.3912 -0.0824
   79MOL   C24136277   1.743   2.670   2.497 -0.3875 -0.3836  0.4338
   79MOL   C24236278   1.781   2.734   2.625  0.2042  0.5167 -0.9418
   79MOL   O24336279   1.698   2.752   2.716  0.3911  0.4279 -1.0222
   79MOL   O24436280   1.917   2.758   2.636 -0.1246  0.0562 -0.2050
   79MOL   C24536281   1.611   2.641   2.473 -0.2613 -0.4937 -0.5155
   79MOL   C24636282   1.557   2.599   2.353 -0.5711  0.2932 -0.3098
   79MOL   H24736283   1.422   2.291   2.104 -0.0391  0.5062 -0.6998
   79MOL   H24836284   1.295   2.280   1.989 -0.1127 -2.5747  2.5285
   79MOL   H24936285   1.287   2.530   1.986  0.0946  2.5762  1.6888
   79MOL   H25036286   1.445   2.454   1.931 -1.3469 -0.0818 -0.6094
   79MOL   H25136287   1.864   2.584   2.186 -0.7123  0.2163  0.1161
   79MOL   H25236288   1.939   2.671   2.396  0.0735  0.5463  1.7180
   79MOL   H25336289   1.543   2.654   2.557 -0.8259 -0.6122 -0.9477
   79MOL   H25436290   1.452   2.581   2.337 -0.9884  1.1833  1.2643
   79MOL   O25536291   1.957   2.820   2.767  0.0233  0.6853 -0.6774
   79MOL   C25636292   1.942   2.959   2.755  0.0907 -0.4617 -0.6244
   79MOL   C25736293   1.929   3.022   2.896 -0.7085 -0.2257  0.4027
   79MOL   O25836294   1.921   3.165   2.902 -0.4790  0.1676  0.2508
   79MOL   C25936295   1.822   3.226   2.842 -0.0057  0.4361 -0.0811
   79MOL   O26036296   1.716   3.163   2.812 -0.0316 -0.4356  0.5176
   79MOL   C26136297   1.832   3.374   2.834  0.1625  0.1500  0.1708
   79MOL   C26236298   1.933   3.445   2.903 -0.4090 -0.3141  0.0251
   79MOL   C26336299   1.932   3.580   2.905  0.3712 -0.1579  0.2729
   79MOL   C26436300   1.843   3.653   2.821  0.4522  0.4897 -0.5468
   79MOL   C26536301   1.845   3.800   2.827 -0.3093  0.0094  0.7292
   79MOL   O26636302   1.840   3.867   2.727 -0.4958 -0.1023  0.1331
   79MOL   O26736303   1.866   3.848   2.959 -0.1444  0.4870 -0.2728
   79MOL   C26836304   1.746   3.581   2.751 -0.4587  0.1292 -0.0885
   79MOL   C26936305   1.735   3.439   2.760 -0.0598  0.1190 -0.1996
   79MOL   H27036306   2.015   3.011   2.693 -0.2225 -0.8936 -1.3635
   79MOL   H27136307   1.854   2.968   2.691 -0.8536 -1.4448  0.5232
   79MOL   H27236308   2.022   3.004   2.949 -1.5282 -0.0819  1.9336
   79MOL   H27336309   1.847   2.975   2.951 -0.5027 -1.2010 -0.1169
   79MOL   H27436310   2.006   3.387   2.957 -0.1545 -2.2586 -2.3232
   79MOL   H27536311   2.000   3.636   2.968 -0.3384 -0.7758  1.6192
   79MOL   H27636312   1.670   3.639   2.701  0.1449  1.8859  0.9712
   79MOL   H27736313   1.648   3.393   2.717 -2.1464  2.1868  1.7342
   79MOL   O27836314   1.901   3.996   2.976  0.1303 -0.3954 -0.5026
   79MOL   C27936315   2.035   4.007   3.015  0.0346 -0.4337  0.4132
   79MOL   C28036316   2.056   4.150   3.068  0.1772  0.2467  0.2565
   79MOL   O28136317   2.051   4.246   2.962  0.6009  0.0003  0.1967
   79MOL   C28236318   2.163   4.283   2.896  0.1084 -0.0602  0.2629
   79MOL   O28336319   2.277   4.244   2.920  0.5316 -0.4221  1.0329
   79MOL   C28436320   2.123   4.376   2.782  0.0964  0.3411  0.1547
   79MOL   C28536321   2.222   4.447   2.710  0.3493 -0.4525  1.0626
   79MOL   C28636322   2.184   4.548   2.614 -0.1722 -0.3886  0.4959
   79MOL   C28736323   2.050   4.557   2.562 -1.2006 -0.5019  0.0222
   79MOL   C28836324   2.016   4.658   2.457 -0.4395  0.4159 -0.1161
   79MOL   O28936325   1.898   4.681   2.430 -0.1373 -0.0362 -0.9183
   79MOL   O29036326   2.118   4.715   2.391  0.1077 -0.7299 -0.6548
   79MOL   C29136327   1.957   4.480   2.632 -0.2002  0.2844  0.0577
   79MOL   C29236328   1.993   4.402   2.742  0.4593 -0.1055  0.0918
   79MOL   H29336329   2.044   3.948   3.107  0.5520  0.0908  0.7008
   79MOL   H29436330   2.102   3.962   2.942  1.0708  0.5968  0.7236
   79MOL   H29536331   2.145   4.152   3.131 -1.4504  0.3254  2.6265
   79MOL   H29636332   1.973   4.180   3.133  0.0766  1.2762 -0.3390
   79MOL   H29736333   2.326   4.438   2.738  0.9148  0.5974 -0.6745
   79MOL   H29836334   2.257   4.606   2.559 -1.0245 -0.6420 -0.9144
   79MOL   H29936335   1.852   4.480   2.607  0.0632  0.6621 -1.0975
   79MOL   H30036336   1.917   4.347   2.796  0.4525 -0.5412 -0.3588
   79MOL   O30136337   2.083   4.809   2.278  0.4145  0.4876 -0.1579
   79MOL   C30236338   2.058   4.935   2.330 -0.1188 -0.9018  0.6732
   79MOL   C30336339   2.065   5.041   2.229  0.2370 -0.0911  0.6730
   79MOL   O30436340   2.200   5.066   2.198 -0.0809 -0.3883 -0.0816
   79MOL   C30536341   2.239   5.162   2.119  0.8929 -1.1091 -0.1958
   79MOL   O30636342   2.158   5.235   2.062  0.0430 -0.0362  0.1848
   79MOL   C30736343   2.384   5.175   2.109  0.3886  0.6212  0.5692
   79MOL   C30836344   2.472   5.113   2.200  0.0304 -0.1554  0.1572
   79MOL   C30936345   2.613   5.138   2.196 -0.2060  0.2741  0.7558
   79MOL   C31036346   2.659   5.229   2.098  0.8216 -0.4433 -0.1992
   79MOL   C31136347   2.800   5.266   2.090  0.2136  0.3036 -0.5743
   79MOL   O31236348   2.844   5.374   2.056 -0.0381 -0.2707  0.2743
   79MOL   O31336349   2.883   5.166   2.123 -0.5652  0.2740 -0.3300
   79MOL   C31436350   2.570   5.291   2.005  0.7215 -0.1014 -0.8828
   79MOL   C31536351   2.436   5.256   2.008 -0.2050 -0.5843  0.0353
   79MOL   H31636352   1.954   4.943   2.362  0.0725 -1.4195  1.4503
   79MOL   H31736353   2.128   4.948   2.412 -0.8305 -1.7091  1.4282
   79MOL   H31836354   2.026   5.132   2.276 -0.5452 -0.6092  1.0325
   79MOL   H31936355   2.007   5.011   2.142 -0.6723 -1.5462  1.7607
   79MOL   H32036356   2.426   5.053   2.277 -3.6315  0.6251 -1.3317
   79MOL   H32136357   2.677   5.095   2.272  0.6114 -1.6392 -0.9427
   79MOL   H32236358   2.606   5.359   1.930  1.7355  0.4344  0.0652
   79MOL   H32336359   2.370   5.303   1.936  0.3338 -2.8794 -2.0127
   79MOL   O32436360   3.033   5.198   2.128 -0.5321  0.3819  0.2488
   79MOL   C32536361   3.090   5.122   2.014 -0.5918 -0.0715  0.3948
   79MOL   C32636362   3.239   5.135   2.025 -0.7228 -0.1264  1.2741
   79MOL   O32736363   3.297   5.082   1.903 -0.8762 -0.1915  0.4273
   79MOL   C32836364   3.298   5.159   1.790  1.0470  0.2039  0.4377
   79MOL   O32936365   3.245   5.273   1.784  0.5420 -0.4929 -0.3872
   79MOL   C33036366   3.380   5.099   1.679 -0.4817 -0.0309  0.0507
   79MOL   C33136367   3.413   5.170   1.564  0.5010  0.5650 -0.6414
   79MOL   C33236368   3.479   5.107   1.456  0.0429  0.1102  0.5642
   79MOL   C33336369   3.529   4.971   1.468 -0.0231 -0.1134 -0.1698
   79MOL   C33436370   3.599   4.906   1.355  0.4055  0.6953  0.5586
   79MOL   O33536371   3.616   4.964   1.245  0.0923  0.8475  0.0465
   79MOL   O33636372   3.635   4.775   1.377  0.4516 -0.1292 -0.7607
   79MOL   C33736373   3.516   4.914   1.593  0.6401 -0.2465  1.0548
   79MOL   C33836374   3.440   4.974   1.697  0.6625 -0.0068 -0.3261
   79MOL   H33936375   3.062   5.018   2.031 -2.5284  0.5307  1.0696
   79MOL   H34036376   3.059   5.163   1.917  1.1892  1.6586  0.5260
   79MOL   H34136377   3.281   5.080   2.109  0.7156  1.4457  1.6187
   79MOL   H34236378   3.269   5.239   2.043 -1.4833  0.2446  0.4182
   79MOL   H34336379   3.383   5.273   1.557  1.6381  0.8793 -1.0672
   79MOL   H34436380   3.494   5.159   1.363  1.3425  2.6216  2.1304
   79MOL   H34536381   3.559   4.819   1.623  0.4138  0.3616  3.4376
   79MOL   H34636382   3.422   4.917   1.787  1.9676  1.0071  0.5942
   79MOL   O34736383   3.676   4.699   1.256 -0.0894 -0.0189 -0.0397
   79MOL   C34836384   3.574   4.597   1.238  0.3620  0.4150  0.5024
   79MOL   C34936385   3.599   4.493   1.357  0.1478 -0.9050  0.0406
   79MOL   O35036386   3.508   4.520   1.460 -0.2047 -0.7536 -0.4770
   79MOL   C35136387   3.494   4.442   1.564  0.1619  0.7265 -0.5067
   79MOL   O35236388   3.542   4.329   1.567 -0.2915 -0.0494 -0.1286
   79MOL   C35336389   3.393   4.495   1.668 -0.2632  0.8380  0.0719
   79MOL   C35436390   3.368   4.417   1.783 -0.4449 -0.1659 -0.5015
   79MOL   C35536391   3.274   4.466   1.877 -0.8720  0.2647 -0.6364
   79MOL   C35636392   3.195   4.575   1.856 -0.4301  0.4156  0.0050
   79MOL   C35736393   3.089   4.611   1.952  0.0863  0.8083  0.1461
   79MOL   O35836394   3.056   4.540   2.045 -0.4196  0.4092 -0.7022
   79MOL   O35936395   3.034   4.738   1.931 -0.1960  0.3768  0.1875
   79MOL   C36036396   3.215   4.649   1.731  0.3977 -0.3864  0.5902
   79MOL   C36136397   3.321   4.615   1.645  0.2427 -0.2616  0.1956
   79MOL   H36236398   3.470   4.628   1.228  0.1604 -0.9795 -2.1473
   79MOL   H36336399   3.584   4.529   1.153  1.5771  2.0746 -0.7276
   79MOL   H36436400   3.700   4.509   1.396  0.4388 -1.5187 -0.4651
   79MOL   H36536401   3.577   4.389   1.334  2.9325 -2.2138  2.9078
   79MOL   H36636402   3.414   4.322   1.805 -1.0373 -0.1038  1.0436
   79MOL   H36736403   3.273   4.416   1.973 -0.2187  0.4672 -0.5197
   79MOL   H36836404   3.160   4.741   1.719 -2.0221 -1.7708  0.6733
   79MOL   H36936405   3.341   4.677   1.558 -0.1870 -0.0387  0.2553
   79MOL   O37036406   2.933   4.777   2.037 -0.1585 -0.7854 -0.2934
   79MOL   C37136407   2.801   4.743   1.991  0.2549 -0.2353  0.6720
   79MOL   C37236408   2.707   4.765   2.103 -0.0506 -0.5063 -0.4510
   79MOL   O37336409   2.731   4.665   2.204 -0.3415 -0.1692  0.1381
   79MOL   C37436410   2.637   4.643   2.295  0.9227  0.3150  0.3795
   79MOL   O37536411   2.541   4.715   2.299 -0.1259 -0.3532 -0.2451
   79MOL   C37636412   2.668   4.539   2.394  0.3843  0.1690 -0.3428
   79MOL   C37736413   2.580   4.509   2.505 -0.1475 -0.3722 -0.4895
   79MOL   C37836414   2.611   4.395   2.580  0.1243  0.2917  0.5163
   79MOL   C37936415   2.727   4.322   2.555 -0.1157 -0.1031  0.3067
   79MOL   C38036416   2.762   4.208   2.640 -0.7042 -0.1937 -0.9576
   79MOL   O38136417   2.872   4.148   2.642  0.4181  0.3398  0.1920
   79MOL   O38236418   2.658   4.167   2.715 -0.0926  0.1242 -0.5756
   79MOL   C38336419   2.816   4.359   2.454  0.0238  0.1593  0.1912
   79MOL   C38436420   2.788   4.465   2.369  0.6816  0.0512  0.2723
   79MOL   H38536421   2.767   4.811   1.912 -0.4219 -0.3787  0.8336
   79MOL   H38636422   2.796   4.642   1.951  0.4927  0.1542 -0.3664
   79MOL   H38736423   2.606   4.745   2.067 -0.6561 -0.7153  1.3397
   79MOL   H38836424   2.695   4.865   2.144 -0.5991 -0.4830 -0.6578
   79MOL   H38936425   2.497   4.577   2.518 -0.4712 -0.5179 -1.7636
   79MOL   H39036426   2.549   4.374   2.666 -0.9442 -0.6393 -0.4647
   79MOL   H39136427   2.906   4.301   2.437  0.0231  0.1763  0.1261
   79MOL   H39236428   2.861   4.491   2.293 -0.2333 -0.0553 -0.6632
   79MOL   O39336429   2.696   4.071   2.831 -0.1579 -0.1807  0.0888
   79MOL   C39436430   2.664   3.941   2.797 -0.5548 -0.2922 -0.0766
   79MOL   C39536431   2.507   3.916   2.806 -0.3508  0.4397 -0.4533
   79MOL   O39636432   2.440   3.993   2.706  0.7237  0.2090  0.2773
   79MOL   C39736433   2.311   3.969   2.694 -0.1908  0.2817  0.1024
   79MOL   O39836434   2.249   3.871   2.743 -0.1390 -0.0665  0.4273
   79MOL   C39936435   2.242   4.051   2.591  0.0738  0.8581 -0.2884
   79MOL   C40036436   2.100   4.055   2.575  0.0474  0.5506  0.3015
   79MOL   C40136437   2.042   4.124   2.466 -0.1619  0.2094  0.6179
   79MOL   C40236438   2.122   4.207   2.382  0.2203  0.0336  0.6369
   79MOL   C40336439   2.064   4.285   2.265  0.0009  0.0805 -0.2196
   79MOL   O40436440   2.127   4.359   2.191 -0.0783 -0.5632  0.2066
   79MOL   O40536441   1.933   4.263   2.251  0.2915 -0.2628 -0.7036
   79MOL   C40636442   2.260   4.209   2.403  0.4124 -1.0230  0.1156
   79MOL   C40736443   2.321   4.130   2.505 -0.1603 -0.3822  0.3295
   79MOL   H40836444   2.715   3.906   2.707  0.6045 -1.0858  0.8782
   79MOL   H40936445   2.718   3.881   2.870  0.0981 -2.1772 -2.0467
   79MOL   H41036446   2.470   3.930   2.907 -1.7830  2.3522 -1.2003
   79MOL   H41136447   2.490   3.811   2.782 -0.1382  0.4475 -0.6405
   79MOL   H41236448   2.038   4.004   2.647 -0.3736  0.3443 -0.2097
   79MOL   H41336449   1.935   4.123   2.449  0.2111  0.2962 -1.8852
   79MOL   H41436450   2.324   4.265   2.336 -1.1661 -0.8013 -1.2282
   79MOL   H41536451   2.428   4.142   2.516 -0.5086  0.8237  2.5039
   79MOL   O41636452   1.869   4.351   2.151  0.4127  0.5750 -0.2713
   79MOL   C41736453   1.793   4.268   2.059 -0.1363  0.0222 -0.4585
   79MOL   C41836454   1.875   4.263   1.930 -0.1779  0.1747 -0.4808
   79MOL   O41936455   1.997   4.190   1.943 -0.3446 -0.0629  0.2528
   79MOL   C42036456   2.068   4.138   1.840 -0.1346 -0.1118  0.0467
   79MOL   O42136457   2.039   4.158   1.722 -0.1466  0.4794 -0.6418
   79MOL   C42236458   2.185   4.061   1.885 -0.2589  0.1070 -0.0249
   79MOL   C42336459   2.270   3.997   1.791  0.4222  0.1844 -0.0818
   79MOL   C42436460   2.389   3.928   1.830  0.7171  0.4985  0.0797
   79MOL   C42536461   2.413   3.917   1.969 -0.7326 -0.4511 -0.5683
   79MOL   C42636462   2.536   3.844   2.021  0.0482  0.3771 -0.2290
   79MOL   O42736463   2.583   3.862   2.134  0.2443 -0.1824 -0.0654
   79MOL   O42836464   2.592   3.758   1.940 -1.0797 -0.2278 -0.2482
   79MOL   C42936465   2.326   3.983   2.061 -0.7654  0.4651 -0.0157
   79MOL   C43036466   2.216   4.053   2.022 -0.3371 -0.1624 -0.3400
   79MOL   H43136467   1.775   4.166   2.094  1.3200 -0.7344 -1.8415
   79MOL   H43236468   1.698   4.318   2.046 -0.7009 -0.5640  1.2867
   79MOL   H43336469   1.888   4.365   1.893  0.5204 -0.3725 -1.8143
   79MOL   H43436470   1.814   4.205   1.861  1.2630 -1.7611 -0.1638
   79MOL   H43536471   2.245   4.004   1.686 -3.6070 -0.2225  0.7667
   79MOL   H43636472   2.451   3.886   1.752  0.4235  0.1361  0.0410
   79MOL   H43736473   2.351   3.969   2.165  0.7752  0.2918 -0.3947
   79MOL   H43836474   2.164   4.108   2.099  0.6560  2.0605 -1.2189
   79MOL   O43936475   2.704   3.675   2.001 -0.1840 -0.1182 -0.2906
   79MOL   C44036476   2.668   3.535   2.003 -0.2398 -0.1336  0.4729
   79MOL   C44136477   2.771   3.481   2.102 -0.9423 -0.3139  0.2403
   79MOL   O44236478   2.882   3.413   2.040  0.4514  0.5216 -0.3711
   79MOL   C44336479   2.865   3.292   1.992 -0.4270 -0.0475 -0.2253
   79MOL   O44436480   2.757   3.247   1.960 -0.0132 -0.0481  0.4498
   79MOL   C44536481   2.988   3.223   1.963 -0.1762 -0.0181 -0.5673
   79MOL   C44636482   3.120   3.283   1.986  0.2612 -0.3005  1.1822
   79MOL   C44736483   3.237   3.215   1.941 -0.8813  0.4798  0.3945
   79MOL   C44836484   3.229   3.077   1.904 -0.7163 -0.0030 -0.0071
   79MOL   C44936485   3.350   3.003   1.854  0.6629  0.0756  0.3899
   79MOL   O45036486   3.456   2.998   1.922 -0.4063  0.3766  0.4201
   79MOL   O45136487   3.342   2.960   1.723 -0.0450 -0.2495  0.4335
   79MOL   C45236488   3.105   3.013   1.894  0.2877 -0.0273  0.4331
   79MOL   C45336489   2.985   3.089   1.913  0.5406  0.2820  0.0518
   79MOL   H45436490   2.570   3.527   2.050 -0.3723 -1.2887  0.0120
   79MOL   H45536491   2.665   3.476   1.911  0.9929 -0.0490  0.3668
   79MOL   H45636492   2.721   3.424   2.180  1.3378 -1.1485  1.1464
   79MOL   H45736493   2.812   3.569   2.152  1.6844 -1.1719 -0.3163
   79MOL   H45836494   3.123   3.385   2.021 -0.0066  0.0640  0.1661
   79MOL   H45936495   3.334   3.261   1.946  0.4116 -2.3293  2.6455
   79MOL   H46036496   3.108   2.915   1.851  1.1204 -0.1933  0.8471
   79MOL   H46136497   2.887   3.047   1.899 -0.4018  1.7216  2.1085
   79MOL   H46236498   3.430   2.936   1.698  0.6944  0.8952  1.8468
   80MOL     O136499   5.465   5.137   2.582 -0.6667  0.2404 -0.7583
   80MOL     C236500   5.403   5.154   2.454 -0.5796 -0.1270 -0.3421
   80MOL     C336501   5.267   5.082   2.446  0.2972  0.0585  0.0515
   80MOL     O436502   5.213   5.104   2.315 -0.5215  0.2799 -0.6608
   80MOL     C536503   5.150   5.219   2.290 -0.2388 -0.1755 -0.0235
   80MOL     O636504   5.124   5.305   2.380 -0.0501  0.5209  0.4651
   80MOL     C736505   5.106   5.243   2.148 -0.2669 -0.0342  0.4105
   80MOL     C836506   5.057   5.369   2.110  0.0033  0.5862 -0.0411
   80MOL     C936507   5.016   5.391   1.976  0.4749 -0.0040  0.5291
   80MOL    C1036508   5.028   5.294   1.875 -0.0944 -0.0974  0.2627
   80MOL    C1136509   4.977   5.332   1.736 -0.0046 -0.3092  0.0499
   80MOL    O1236510   4.943   5.447   1.709  0.4658  0.0326 -0.2100
   80MOL    O1336511   4.978   5.230   1.655  0.5782 -0.1693  0.2399
   80MOL    C1436512   5.075   5.163   1.913 -0.5744  0.7106  0.0333
   80MOL    C1536513   5.116   5.140   2.052  0.0227 -0.1202  0.6133
   80MOL    H1636514   5.405   5.260   2.429  0.9672 -0.1080 -0.2070
   80MOL    H1736515   5.475   5.108   2.386 -1.8001  0.7881 -2.2751
   80MOL    H1836516   5.193   5.126   2.513 -1.6867  0.0280 -2.0611
   80MOL    H1936517   5.267   4.975   2.467  2.3801  0.3470  1.6888
   80MOL    H2036518   5.057   5.444   2.187  1.0385  1.2254 -0.6505
   80MOL    H2136519   4.979   5.487   1.944  2.3775  0.7805  0.6588
   80MOL    H2236520   5.091   5.085   1.840  0.0440  1.0270 -0.1724
   80MOL    H2336521   5.164   5.047   2.080  0.0806 -0.8333 -1.7933
   80MOL    H2436522   5.542   5.192   2.580  0.6138 -1.5506 -2.7095
   80MOL    O2536523   4.876   5.228   1.541  0.1550 -0.1091  0.5598
   80MOL    C2636524   4.757   5.180   1.602 -0.0302  0.1634 -0.4723
   80MOL    C2736525   4.654   5.148   1.496 -0.2155  0.4127  0.3593
   80MOL    O2836526   4.610   5.265   1.437  0.5097  0.2614 -0.7192
   80MOL    C2936527   4.477   5.288   1.400 -0.3732  0.2528  0.3603
   80MOL    O3036528   4.385   5.210   1.430 -0.4277 -0.7945 -0.1515
   80MOL    C3136529   4.454   5.420   1.337 -0.3749 -0.2058 -0.3889
   80MOL    C3236530   4.552   5.495   1.273 -0.1983  0.5544 -0.4019
   80MOL    C3336531   4.521   5.621   1.221 -0.9556 -0.4182 -0.1596
   80MOL    C3436532   4.401   5.684   1.251  0.2570 -0.5870 -0.8531
   80MOL    C3536533   4.380   5.823   1.192  0.3160  0.2188 -1.4009
   80MOL    O3636534   4.468   5.888   1.139 -0.1977  0.1825  0.7128
   80MOL    O3736535   4.247   5.861   1.197  0.0487  0.2417 -0.5160
   80MOL    C3836536   4.298   5.605   1.309 -0.0913 -0.0096  0.7065
   80MOL    C3936537   4.325   5.475   1.359 -0.1193  0.4991  0.5861
   80MOL    H4036538   4.790   5.094   1.659 -1.1994 -1.3366 -2.0074
   80MOL    H4136539   4.710   5.244   1.678 -1.3540  0.5983 -1.6402
   80MOL    H4236540   4.571   5.088   1.535  0.1322 -0.9710 -0.9515
   80MOL    H4336541   4.695   5.083   1.418 -2.3140 -0.7566  0.1796
   80MOL    H4436542   4.656   5.465   1.264 -0.5127 -1.7007  2.7481
   80MOL    H4536543   4.592   5.677   1.162 -2.3762  1.4908 -0.1215
   80MOL    H4636544   4.201   5.650   1.330  0.6967  0.5251  3.4158
   80MOL    H4736545   4.247   5.416   1.405  0.2695  1.5062  2.6020
   80MOL    O4836546   4.229   5.965   1.093 -0.7838 -0.5244  0.0077
   80MOL    C4936547   4.178   5.909   0.973 -0.3222  0.1784  0.7503
   80MOL    C5036548   4.154   6.021   0.876  0.0568  0.6220  0.1940
   80MOL    O5136549   4.022   6.078   0.887 -0.0050  0.1171  0.2085
   80MOL    C5236550   3.991   6.180   0.973  0.4954  0.5862 -0.1814
   80MOL    O5336551   4.077   6.219   1.050 -0.1177 -0.4318  0.3776
   80MOL    C5436552   3.854   6.225   0.968 -0.1649 -0.0837 -0.8888
   80MOL    C5536553   3.812   6.310   1.074 -0.0893 -0.0580 -0.1795
   80MOL    C5636554   3.686   6.373   1.054 -0.2359  0.2298  0.3348
   80MOL    C5736555   3.599   6.332   0.951 -0.0173 -0.4461  0.0219
   80MOL    C5836556   3.463   6.401   0.953 -0.6008  0.8717  0.2379
   80MOL    O5936557   3.390   6.412   0.853  0.4948 -0.3884 -0.5895
   80MOL    O6036558   3.420   6.431   1.077  0.2930  0.0756 -0.6025
   80MOL    C6136559   3.635   6.235   0.855  0.2849 -0.2000 -0.4607
   80MOL    C6236560   3.765   6.187   0.865  0.8159  0.2455 -0.7431
   80MOL    H6336561   4.236   5.828   0.928 -0.5660  0.8505 -0.7961
   80MOL    H6436562   4.081   5.865   0.996 -0.8419  0.5488 -0.7350
   80MOL    H6536563   4.167   5.981   0.775  1.4612 -1.1966  1.0741
   80MOL    H6636564   4.218   6.110   0.878  0.2169  0.5048  0.2376
   80MOL    H6736565   3.882   6.348   1.148 -1.7786  0.6097  1.0946
   80MOL    H6836566   3.659   6.444   1.131 -1.7827 -0.2495  0.2429
   80MOL    H6936567   3.576   6.191   0.776  0.7873 -0.8653 -0.4634
   80MOL    H7036568   3.797   6.108   0.800 -1.7220 -2.3103  1.0232
   80MOL    O7136569   3.304   6.518   1.072 -0.0067 -0.3992 -0.0820
   80MOL    C7236570   3.204   6.444   1.133 -0.4189 -0.0563  0.2323
   80MOL    C7336571   3.071   6.520   1.113  0.8356  0.6593  0.2764
   80MOL    O7436572   3.026   6.496   0.979  0.0632 -0.2429 -0.1352
   80MOL    C7536573   2.925   6.405   0.956 -0.0422  0.5801  0.3967
   80MOL    O7636574   2.860   6.344   1.045 -0.0283  0.1722  0.1199
   80MOL    C7736575   2.909   6.389   0.808  0.9105  0.4169  0.6077
   80MOL    C7836576   2.780   6.351   0.757 -0.3239 -0.1570 -0.4066
   80MOL    C7936577   2.759   6.337   0.621 -0.1455  0.3648 -0.0349
   80MOL    C8036578   2.869   6.357   0.535  0.4022  0.7653 -1.2826
   80MOL    C8136579   2.850   6.354   0.388  0.7677  0.5572 -0.7865
   80MOL    O8236580   2.937   6.355   0.300 -0.2260  0.4997  0.2452
   80MOL    O8336581   2.717   6.343   0.360 -0.6390 -0.0181  0.5351
   80MOL    C8436582   3.004   6.387   0.584 -0.4768 -0.7461 -0.3482
   80MOL    C8536583   3.021   6.409   0.724 -0.2766 -0.5793  0.5595
   80MOL    H8636584   3.202   6.347   1.083  0.2432  1.2488 -2.3758
   80MOL    H8736585   3.232   6.430   1.238  1.6484 -0.7950 -0.3859
   80MOL    H8836586   3.076   6.627   1.131 -0.0065  0.5008  1.5134
   80MOL    H8936587   2.996   6.474   1.178 -2.1460  1.4878 -2.4566
   80MOL    H9036588   2.698   6.338   0.826  0.6198 -1.4283  0.5053
   80MOL    H9136589   2.660   6.316   0.584  0.3808 -2.3773  0.0534
   80MOL    H9236590   3.083   6.399   0.512 -0.5696 -1.0446 -0.5051
   80MOL    H9336591   3.121   6.420   0.762 -0.4039  1.3663  0.3659
   80MOL    O9436592   2.693   6.356   0.213  0.7604 -0.1167  0.2416
   80MOL    C9536593   2.602   6.458   0.183  0.3037 -0.4867 -0.2509
   80MOL    C9636594   2.474   6.446   0.267  0.0604 -0.3475 -0.5799
   80MOL    O9736595   2.410   6.319   0.251  0.0472  0.2294  0.0451
   80MOL    C9836596   2.280   6.305   0.259  0.7207 -0.0703  0.6223
   80MOL    O9936597   2.209   6.399   0.302 -0.4547 -0.0504  0.2589
   80MOL   C10036598   2.241   6.170   0.240  0.1887  0.3101 -0.5110
   80MOL   C10136599   2.102   6.138   0.227 -0.9648 -0.0556 -0.5141
   80MOL   C10236600   2.050   6.005   0.201 -0.2227  0.4840 -0.2169
   80MOL   C10336601   2.143   5.893   0.189 -0.1999 -0.3493 -0.5416
   80MOL   C10436602   2.103   5.750   0.180 -0.0811  0.6803  0.0947
   80MOL   O10536603   2.186   5.654   0.179 -0.4959  0.7823  0.6623
   80MOL   O10636604   1.975   5.738   0.164 -0.1532  0.2422 -0.6385
   80MOL   C10736605   2.282   5.926   0.208  0.8038 -0.0502 -0.6770
   80MOL   C10836606   2.329   6.060   0.218 -0.0120  0.2602  0.1315
   80MOL   H10936607   2.643   6.559   0.186  1.3238 -0.8724 -1.0031
   80MOL   H11036608   2.564   6.440   0.082 -0.3913  0.3486 -0.1522
   80MOL   H11136609   2.413   6.532   0.242 -0.5705 -0.6232 -0.0006
   80MOL   H11236610   2.492   6.447   0.375  1.5857  1.3340 -0.8110
   80MOL   H11336611   2.025   6.213   0.230 -0.0955  0.7785  1.4243
   80MOL   H11436612   1.944   5.983   0.197  0.1198 -1.6944  1.4923
   80MOL   H11536613   2.356   5.849   0.218  0.9458  0.2594  0.7566
   80MOL   H11636614   2.433   6.080   0.241 -0.3669  0.6956  1.4017
   80MOL   O11736615   1.930   5.593   0.167  0.4214 -0.4286 -0.2786
   80MOL   C11836616   1.916   5.552   0.036  0.1860 -0.5288 -0.3596
   80MOL   C11936617   1.789   5.623   8.253  0.1815  0.8373 -0.0900
   80MOL   O12036618   1.800   5.762   8.220 -0.3281  0.3811  0.3363
   80MOL   C12136619   1.874   5.788   8.114 -0.4255  1.4915 -0.6029
   80MOL   O12236620   1.905   5.701   8.028 -0.1059 -0.2037  0.0174
   80MOL   C12336621   1.911   5.929   8.097 -0.5458 -1.2316  0.0063
   80MOL   C12436622   1.986   5.970   7.986 -0.5332  0.4591  0.3057
   80MOL   C12536623   2.020   6.110   7.972 -0.3418  0.7877  0.5569
   80MOL   C12636624   1.991   6.206   8.068  0.6640  0.6529 -0.3080
   80MOL   C12736625   2.027   6.350   8.065  0.8370 -0.5541  0.5986
   80MOL   O12836626   1.983   6.441   8.135  0.0015 -0.3482 -0.0926
   80MOL   O12936627   2.117   6.372   7.967  0.6554  0.5117 -0.3230
   80MOL   C13036628   1.923   6.161   8.181 -0.0446  0.2771  0.8089
   80MOL   C13136629   1.883   6.027   8.194 -0.4179 -0.9061  0.0028
   80MOL   H13236630   2.004   5.557   8.248 -0.3184  0.1581 -1.0105
   80MOL   H13336631   1.896   5.444   0.038  2.6349 -0.9940  0.3494
   80MOL   H13436632   1.712   5.612   0.053 -1.9465  0.4715 -2.2555
   80MOL   H13536633   1.740   5.557   8.180 -1.7171  0.4512  1.4997
   80MOL   H13636634   2.016   5.905   7.904 -2.8269 -0.6890  0.3300
   80MOL   H13736635   2.069   6.142   7.881  1.6404 -1.0736  0.9391
   80MOL   H13836636   1.908   6.225   8.267  1.0122  0.4673  0.8592
   80MOL   H13936637   1.840   6.011   0.016  2.0970  0.0283  1.3379
   80MOL   O14036638   2.146   6.516   7.943 -0.4059 -0.2568 -0.2821
   80MOL   C14136639   2.270   6.539   8.008  0.0501  0.2847 -0.2177
   80MOL   C14236640   2.325   6.681   7.992 -0.0957  0.6962 -0.2918
   80MOL   O14336641   2.357   6.742   8.117  0.1070 -0.0362  0.5938
   80MOL   C14436642   2.480   6.732   8.168 -0.2620  0.4343  0.8244
   80MOL   O14536643   2.579   6.679   8.111 -0.0043 -0.2796 -0.4923
   80MOL   C14636644   2.480   6.780   0.038 -0.1059  0.5422 -0.3414
   80MOL   C14736645   2.603   6.809   0.100 -1.0124 -0.1215  0.6801
   80MOL   C14836646   2.607   6.843   0.237  0.4485  0.5709 -0.0483
   80MOL   C14936647   2.491   6.862   0.312  0.1147 -0.1396 -0.1554
   80MOL   C15036648   2.509   6.911   0.455 -0.4285  0.3032 -0.4954
   80MOL   O15136649   2.610   6.952   0.513  0.3685  0.0425  0.0795
   80MOL   O15236650   2.391   6.914   0.520  0.2122 -0.4766  0.3719
   80MOL   C15336651   2.365   6.847   0.246 -0.0472  1.1800  0.1252
   80MOL   C15436652   2.360   6.820   0.107  0.0597  0.1234 -0.3189
   80MOL   H15536653   2.259   6.529   8.116 -1.1138  0.1732 -0.3402
   80MOL   H15636654   2.335   6.463   7.963  0.0147  0.6364 -0.8655
   80MOL   H15736655   2.244   6.730   7.939 -1.2303 -1.2663 -0.3969
   80MOL   H15836656   2.406   6.687   7.919 -0.6623  0.5269 -0.9378
   80MOL   H15936657   2.685   6.790   0.033 -1.3068 -1.1763  0.6021
   80MOL   H16036658   2.703   6.862   0.282 -0.3352  1.2597  1.3593
   80MOL   H16136659   2.278   6.867   0.307 -1.5951 -3.1091 -0.5136
   80MOL   H16236660   2.263   6.813   0.059  0.4126 -2.1938 -0.7708
   80MOL   O16336661   2.393   6.961   0.661  0.0114  0.7578  0.4705
   80MOL   C16436662   2.363   7.109   0.669 -0.3805 -0.5238  0.7128
   80MOL   C16536663   2.432   7.167   0.792 -0.3661 -0.4369  0.1515
   80MOL   O16636664   2.573   7.147   0.786  0.6425 -0.4032  0.2103
   80MOL   C16736665   2.656   7.213   0.866 -0.3038  0.7884  0.3846
   80MOL   O16836666   2.616   7.276   0.960  0.7670 -0.0808  0.1848
   80MOL   C16936667   2.799   7.201   0.832  0.5256 -0.1631 -0.6262
   80MOL   C17036668   2.889   7.279   0.904 -0.1486 -0.3978 -0.0848
   80MOL   C17136669   3.026   7.275   0.876  0.6448 -0.3491 -0.7313
   80MOL   C17236670   3.078   7.211   0.762  0.3756  0.8458 -0.0664
   80MOL   C17336671   3.225   7.199   0.736 -0.1916  0.5042  0.5568
   80MOL   O17436672   3.273   7.133   0.643 -0.2134  0.5818  0.2018
   80MOL   O17536673   3.302   7.257   0.830  0.4053 -0.0979 -0.0273
   80MOL   C17636674   2.983   7.143   0.683  0.6984 -0.8474  0.3185
   80MOL   C17736675   2.848   7.136   0.714 -0.2060 -0.3483 -0.4054
   80MOL   H17836676   2.410   7.158   0.583 -2.4617 -2.2057 -1.4304
   80MOL   H17936677   2.255   7.120   0.672 -0.4907 -1.2231 -0.1763
   80MOL   H18036678   2.397   7.123   0.885 -0.7656  1.6216  0.9748
   80MOL   H18136679   2.421   7.274   0.804 -0.2302 -0.4983  0.8368
   80MOL   H18236680   2.857   7.320   0.998  1.6483  0.9034  0.0005
   80MOL   H18336681   3.095   7.309   0.952  1.6261 -0.5895 -1.4966
   80MOL   H18436682   3.016   7.076   0.605 -0.4172 -0.3238 -0.6195
   80MOL   H18536683   2.776   7.082   0.654 -0.2592  0.8797 -1.4760
   80MOL   O18636684   3.449   7.203   0.828  0.2738  0.0420 -0.7412
   80MOL   C18736685   3.467   7.107   0.934 -1.0861 -0.0249  0.2440
   80MOL   C18836686   3.487   6.968   0.881 -0.7938  0.8257 -0.0791
   80MOL   O18936687   3.360   6.906   0.845  0.1066  0.0690  0.0009
   80MOL   C19036688   3.354   6.835   0.731 -0.6256  0.2571 -0.0299
   80MOL   O19136689   3.448   6.810   0.656  0.3905 -0.0706 -0.0525
   80MOL   C19236690   3.214   6.800   0.698 -0.1246 -0.0299 -0.4198
   80MOL   C19336691   3.181   6.792   0.565 -0.0006 -1.1878  0.8336
   80MOL   C19436692   3.049   6.767   0.515 -0.3158  0.2298  0.2541
   80MOL   C19536693   2.949   6.741   0.607 -0.3226 -0.0048 -0.1158
   80MOL   C19636694   2.815   6.697   0.562 -0.1893 -0.5989  0.0824
   80MOL   O19736695   2.784   6.691   0.442  0.4210 -0.2274  1.0214
   80MOL   O19836696   2.734   6.659   0.659 -0.6234  0.8529 -0.1500
   80MOL   C19936697   2.970   6.757   0.746 -0.6643 -0.6816 -0.2516
   80MOL   C20036698   3.101   6.794   0.792 -0.8570 -0.8101  0.2103
   80MOL   H20136699   3.559   7.124   0.990 -1.2016 -0.5395  0.5956
   80MOL   H20236700   3.385   7.098   1.006  0.3435  0.7174  2.0269
   80MOL   H20336701   3.529   6.913   0.966 -1.1209  0.5540 -0.0960
   80MOL   H20436702   3.562   6.972   0.802  0.7764  0.4205  1.3562
   80MOL   H20536703   3.261   6.806   0.495 -0.8111  0.3127  0.1846
   80MOL   H20636704   3.022   6.761   0.411  2.9992  0.1741 -0.6583
   80MOL   H20736705   2.893   6.743   0.820 -0.0880  0.7108  0.6344
   80MOL   H20836706   3.125   6.803   0.897  1.6784 -1.1741 -0.3174
   80MOL   O20936707   2.591   6.638   0.619 -0.0027  0.3792  0.3456
   80MOL   C21036708   2.506   6.667   0.731 -0.0540 -0.0529  0.1389
   80MOL   C21136709   2.359   6.649   0.681 -0.2019 -0.0233 -0.2138
   80MOL   O21236710   2.322   6.518   0.666  0.3060 -0.0291  0.0177
   80MOL   C21336711   2.260   6.462   0.772  0.3599  0.4201 -0.2455
   80MOL   O21436712   2.252   6.515   0.889 -0.0428 -0.0664  0.8929
   80MOL   C21536713   2.202   6.327   0.729 -0.1764 -0.0490 -0.0922
   80MOL   C21636714   2.084   6.285   0.793 -0.3574 -0.0623 -0.1613
   80MOL   C21736715   2.033   6.161   0.751  0.6884  0.4468  0.2148
   80MOL   C21836716   2.094   6.085   0.651  0.0881 -0.4414 -0.2718
   80MOL   C21936717   2.027   5.964   0.600 -0.3449  0.3860  0.4016
   80MOL   O22036718   2.077   5.895   0.512  0.0377  0.5491 -0.2895
   80MOL   O22136719   1.895   5.943   0.638  0.1935  0.0018  0.8398
   80MOL   C22236720   2.214   6.129   0.591  0.6490  0.1873 -0.3704
   80MOL   C22336721   2.270   6.249   0.630  0.3411 -0.1294 -0.1164
   80MOL   H22436722   2.533   6.599   0.812  1.0086 -1.2329 -1.1769
   80MOL   H22536723   2.524   6.761   0.782 -0.8289  1.0047 -1.5083
   80MOL   H22636724   2.342   6.704   0.589 -0.3586 -1.7056 -1.2129
   80MOL   H22736725   2.296   6.704   0.750 -1.9770 -2.0815 -0.1409
   80MOL   H22836726   2.023   6.327   0.872  1.4265 -0.4474  1.4682
   80MOL   H22936727   1.943   6.126   0.800  1.1843  0.1715  0.9440
   80MOL   H23036728   2.260   6.080   0.507 -0.6400  0.8578 -1.4896
   80MOL   H23136729   2.362   6.283   0.584 -0.5384  1.9725 -0.4004
   80MOL   O23236730   1.835   5.825   0.566 -0.1278 -0.4775 -0.1105
   80MOL   C23336731   1.780   5.737   0.656 -0.2935  0.5520  0.4949
   80MOL   C23436732   1.832   5.598   0.593 -0.1103 -0.2011 -0.0720
   80MOL   O23536733   1.814   5.500   0.690 -0.4687 -0.1646  0.5601
   80MOL   C23636734   1.726   5.401   0.677 -0.9456  0.0174 -0.8599
   80MOL   O23736735   1.670   5.375   0.565 -0.1544 -0.1929 -0.3836
   80MOL   C23836736   1.705   5.322   0.807  0.0441  0.4961 -0.1170
   80MOL   C23936737   1.747   5.376   0.924 -0.5664  0.0211  0.1843
   80MOL   C24036738   1.741   5.310   1.047 -1.0126  1.3270  0.6374
   80MOL   C24136739   1.686   5.183   1.054  0.2546 -0.1809  0.3608
   80MOL   C24236740   1.670   5.113   1.183  0.2797 -0.6714 -0.0262
   80MOL   O24336741   1.680   4.993   1.196  0.3219  0.5218 -0.0156
   80MOL   O24436742   1.666   5.195   1.288 -0.4099 -0.3105  0.3163
   80MOL   C24536743   1.636   5.126   0.935  0.1688 -0.2674  0.1457
   80MOL   C24636744   1.649   5.193   0.811 -0.1661 -0.5354  0.4054
   80MOL   H24736745   1.819   5.758   0.755 -4.8720  2.2997  2.0560
   80MOL   H24836746   1.672   5.746   0.647 -0.3905 -0.9192  0.0602
   80MOL   H24936747   1.938   5.588   0.568  0.0836 -1.0102  1.0551
   80MOL   H25036748   1.774   5.579   0.503  0.1693  1.6038 -0.6631
   80MOL   H25136749   1.805   5.466   0.926 -1.3298  0.5090  0.4352
   80MOL   H25236750   1.788   5.357   1.132 -3.1250  0.9226  2.0618
   80MOL   H25336751   1.587   5.030   0.941 -0.5423  0.0350 -0.7316
   80MOL   H25436752   1.612   5.151   0.718 -0.7915 -0.7692  0.7587
   80MOL   O25536753   1.711   5.130   1.415  0.8592 -0.1883 -0.6978
   80MOL   C25636754   1.820   5.211   1.454 -0.5569  0.3815 -0.8658
   80MOL   C25736755   1.891   5.141   1.571 -0.6077 -0.6419  0.4161
   80MOL   O25836756   1.841   5.190   1.695 -0.0349  0.5666 -0.4567
   80MOL   C25936757   1.757   5.116   1.771  0.4641 -0.0496  0.7729
   80MOL   O26036758   1.687   5.024   1.719 -0.3396  0.1188  0.0301
   80MOL   C26136759   1.770   5.156   1.914  0.9581 -0.6491  0.4865
   80MOL   C26236760   1.711   5.075   2.016  0.6366  0.2237 -0.8931
   80MOL   C26336761   1.706   5.121   2.153  0.1818 -0.4788  0.4089
   80MOL   C26436762   1.774   5.235   2.193  1.2273  0.1114  0.7611
   80MOL   C26536763   1.790   5.266   2.335 -0.0514 -0.0923  0.1152
   80MOL   O26636764   1.785   5.177   2.419 -0.1920 -0.2265  0.3469
   80MOL   O26736765   1.833   5.387   2.364  0.3463  0.0175  0.0322
   80MOL   C26836766   1.828   5.315   2.090  0.0414  0.0160  1.0028
   80MOL   C26936767   1.827   5.282   1.952 -1.2336  0.2058 -0.0532
   80MOL   H27036768   1.888   5.230   1.372  0.9148  3.5797  0.9827
   80MOL   H27136769   1.790   5.313   1.480  1.9419  0.3174  2.6612
   80MOL   H27236770   2.000   5.151   1.562 -0.6618 -1.5678 -1.4910
   80MOL   H27336771   1.882   5.033   1.560  1.5976 -0.8968  0.7503
   80MOL   H27436772   1.678   4.972   2.012 -1.8174  0.9854 -0.7663
   80MOL   H27536773   1.661   5.053   2.225 -1.9670  2.3657  1.8825
   80MOL   H27636774   1.863   5.416   2.111 -1.4655  0.8793 -0.5865
   80MOL   H27736775   1.861   5.359   1.884  0.3040 -1.4659 -1.2116
   80MOL   O27836776   1.885   5.401   2.501 -0.0420  0.4666 -0.1009
   80MOL   C27936777   1.812   5.508   2.563 -0.2270 -0.2005  0.0431
   80MOL   C28036778   1.664   5.487   2.572 -0.9142 -0.2716  0.0039
   80MOL   O28136779   1.585   5.576   2.658  0.2359 -0.3291  0.0292
   80MOL   C28236780   1.460   5.603   2.615  0.2891  0.0146 -0.1204
   80MOL   O28336781   1.405   5.551   2.514 -0.0679 -0.5648 -0.1546
   80MOL   C28436782   1.392   5.697   2.705  0.3403  0.4482 -0.7820
   80MOL   C28536783   1.268   5.765   2.664 -0.1981  0.3746  0.3986
   80MOL   C28636784   1.203   5.861   2.740  0.0861 -0.0229 -0.4908
   80MOL   C28736785   1.253   5.894   2.865 -0.0904 -0.2716 -0.7372
   80MOL   C28836786   1.184   6.000   2.953 -0.5000 -0.4966  0.4223
   80MOL   O28936787   1.249   6.075   3.028 -0.2955 -0.4419 -0.4107
   80MOL   O29036788   1.053   5.994   2.948  0.5842  0.2856  0.4296
   80MOL   C29136789   1.369   5.827   2.909  1.2447 -0.3761 -0.2784
   80MOL   C29236790   1.437   5.734   2.834 -0.2705 -0.0886 -0.2187
   80MOL   H29336791   1.854   5.495   2.663  1.0416 -0.9311 -0.5805
   80MOL   H29436792   1.837   5.609   2.530 -1.2537 -0.0745 -0.3903
   80MOL   H29536793   1.649   5.392   2.623 -2.0321  0.4219  0.9868
   80MOL   H29636794   1.629   5.479   2.469  0.3408  1.3666 -0.5730
   80MOL   H29736795   1.223   5.730   2.572  1.8531  0.5973 -0.7226
   80MOL   H29836796   1.122   5.912   2.689  0.2705 -1.1104 -1.8922
   80MOL   H29936797   1.407   5.850   3.008  0.2210  0.8789 -0.1711
   80MOL   H30036798   1.529   5.694   2.874  1.5853  1.8940 -2.4179
   80MOL   O30136799   0.994   6.106   3.031 -0.2875 -0.2141  0.2710
   80MOL   C30236800   0.932   6.049   3.156 -0.5361  0.3304 -0.4917
   80MOL   C30336801   0.836   6.156   3.214 -0.3733  0.0416 -0.5706
   80MOL   O30436802   0.760   6.116   3.328 -0.5303 -0.2472  0.2786
   80MOL   C30536803   0.813   6.124   3.451  0.4512  0.1035 -0.0078
   80MOL   O30636804   0.924   6.174   3.468 -0.0177 -0.6612  0.2385
   80MOL   C30736805   0.739   6.057   3.559  0.2796  0.3291  0.7684
   80MOL   C30836806   0.776   6.068   3.694  0.7745 -0.6554 -0.3201
   80MOL   C30936807   0.713   5.993   3.798  0.0230 -0.0226  1.3531
   80MOL   C31036808   0.613   5.902   3.763  0.1675  0.2903  0.3584
   80MOL   C31136809   0.561   5.821   3.874  0.0335 -0.3730  0.3746
   80MOL   O31236810   0.598   5.829   3.991  0.3676 -0.2741  0.6036
   80MOL   O31336811   0.480   5.725   3.829 -1.0196  0.0203 -0.2154
   80MOL   C31436812   0.571   5.893   3.629 -0.5529 -0.2999  0.0463
   80MOL   C31536813   0.631   5.969   3.527  0.0439  0.9288  0.2195
   80MOL   H31636814   0.873   5.964   3.120 -1.7454  0.0887  1.9579
   80MOL   H31736815   1.010   6.020   3.227 -0.8232 -1.0030 -0.7024
   80MOL   H31836816   0.757   6.195   3.151 -0.4866 -0.0713 -0.4994
   80MOL   H31936817   0.889   6.247   3.242  1.0101 -0.5524 -1.2238
   80MOL   H32036818   0.855   6.138   3.718 -1.6956  1.1436  2.9455
   80MOL   H32136819   0.751   6.003   3.899 -2.4663  0.1199  2.2946
   80MOL   H32236820   0.506   5.810   3.606  1.0899 -1.7797  0.5896
   80MOL   H32336821   0.593   5.951   3.427  1.4049  3.0582 -0.7403
   80MOL   O32436822   0.433   5.632   3.942  0.6644  0.2537  0.4910
   80MOL   C32536823   0.290   5.649   3.937 -0.2011 -0.2254 -0.0646
   80MOL   C32636824   0.231   5.627   3.795  0.2106 -0.4898  0.0844
   80MOL   O32736825   0.257   5.493   3.756 -0.4024 -0.3602 -0.5569
   80MOL   C32836826   0.335   5.463   3.647  0.7044  0.0468  0.0571
   80MOL   O32936827   0.396   5.551   3.584 -0.0870 -0.3281 -0.6021
   80MOL   C33036828   0.335   5.316   3.624 -0.0538  0.2862  0.6299
   80MOL   C33136829   0.261   5.216   3.696  0.1286  0.1074  0.7106
   80MOL   C33236830   0.270   5.080   3.663 -0.5945  0.9064  0.1621
   80MOL   C33336831   0.361   5.036   3.567 -0.7145  0.1691 -0.6930
   80MOL   C33436832   0.380   4.886   3.549  0.2662  0.2533  0.0724
   80MOL   O33536833   0.329   4.801   3.629  0.3757  0.0002  0.4575
   80MOL   O33636834   0.461   4.850   3.446 -0.2347  0.3168 -0.8011
   80MOL   C33736835   0.438   5.131   3.492 -0.6524  0.2555 -0.5162
   80MOL   C33836836   0.420   5.269   3.522  0.4703 -0.4145  0.3178
   80MOL   H33936837   0.244   5.587   4.014 -3.3482 -0.2720 -1.9091
   80MOL   H34036838   0.271   5.755   3.957  1.2912  0.5441 -2.4971
   80MOL   H34136839   0.266   5.703   3.726 -1.1742 -0.9884 -1.1769
   80MOL   H34236840   0.122   5.638   3.792  0.3585  1.4441  1.0644
   80MOL   H34336841   0.184   5.255   3.762  0.6010  1.2773  0.5888
   80MOL   H34436842   0.216   5.008   3.722 -1.9647 -0.2015 -2.3388
   80MOL   H34536843   0.510   5.105   3.416  0.5433  1.1400  0.2960
   80MOL   H34636844   0.477   5.342   3.468 -2.3770  0.6382 -1.3363
   80MOL   O34736845   0.497   4.701   3.447  0.4993  0.3335 -0.1580
   80MOL   C34836846   0.406   4.634   3.362  0.2923 -0.2609 -0.3751
   80MOL   C34936847   0.404   4.487   3.418  0.8289 -0.2377  0.3303
   80MOL   O35036848   0.332   4.465   3.539  0.0170 -0.4611  0.3821
   80MOL   C35136849   0.360   4.358   3.618  0.4269 -1.0655  0.4671
   80MOL   O35236850   0.457   4.282   3.602 -0.2038 -0.0764  0.1416
   80MOL   C35336851   0.255   4.337   3.727  0.5584  0.5002 -0.6912
   80MOL   C35436852   0.164   4.438   3.769  0.6600  0.2020 -0.8462
   80MOL   C35536853   0.075   4.412   3.872  0.2316  0.6891 -0.0621
   80MOL   C35636854   0.083   4.287   3.940  0.2020  0.1894  0.1752
   80MOL   C35736855   8.257   4.249   4.043 -0.0792 -0.4638  0.7102
   80MOL   O35836856   8.268   4.152   4.115 -0.6270 -0.3906 -0.5931
   80MOL   O35936857   8.147   4.326   4.046  0.4231  0.1842  0.4545
   80MOL   C36036858   0.173   4.189   3.903  0.1887 -0.4601 -1.0191
   80MOL   C36136859   0.262   4.214   3.798  0.0677 -0.3074  0.3723
   80MOL   H36236860   0.306   4.678   3.359 -0.0060 -0.9807 -1.1926
   80MOL   H36336861   0.448   4.633   3.261  1.3055  2.1977 -0.0094
   80MOL   H36436862   0.507   4.452   3.416  1.0291  0.3455  0.5184
   80MOL   H36536863   0.358   4.436   3.333 -0.0153 -0.2799  0.8091
   80MOL   H36636864   0.169   4.529   3.711  1.1496  1.0573  0.5132
   80MOL   H36736865   0.006   4.488   3.905 -2.9680 -0.8087 -2.9578
   80MOL   H36836866   0.181   4.097   3.958  0.5215 -0.2049 -0.6335
   80MOL   H36936867   0.331   4.136   3.770  1.1485  0.5486  0.6205
   80MOL   O37036868   8.025   4.263   4.108 -0.1902 -0.0116 -0.8837
   80MOL   C37136869   7.999   4.325   4.232  0.4701  0.0038  0.3123
   80MOL   C37236870   8.078   4.255   4.336 -0.2089  0.7564 -0.1588
   80MOL   O37336871   8.007   4.265   4.457 -0.2061  0.1192  0.5468
   80MOL   C37436872   8.072   4.291   4.563  0.4146 -0.8747  0.0322
   80MOL   O37536873   8.193   4.317   4.569  0.1702 -0.1404 -0.0687
   80MOL   C37636874   7.980   4.308   4.678 -0.1144 -0.0425 -0.0927
   80MOL   C37736875   8.024   4.398   4.775  0.0428 -0.7336 -0.5809
   80MOL   C37836876   7.941   4.428   4.887  0.6024 -0.4407 -0.2700
   80MOL   C37936877   7.810   4.376   4.898 -0.1163  0.3823  0.1283
   80MOL   C38036878   7.731   4.410   5.019 -0.5137 -0.3258 -0.6393
   80MOL   O38136879   7.764   4.491   5.104  0.0317  0.2597  0.3711
   80MOL   O38236880   7.610   4.336   5.032  0.2894 -0.2211 -0.2929
   80MOL   C38336881   7.767   4.287   4.794 -0.3559 -0.3518  0.2113
   80MOL   C38436882   7.849   4.261   4.685 -0.3254  0.4871 -0.3516
   80MOL   H38536883   8.011   4.434   4.227  1.6002 -0.0378  1.8876
   80MOL   H38636884   7.896   4.292   4.241  0.4476  0.0336  0.1719
   80MOL   H38736885   8.174   4.307   4.333  0.2965 -0.0675  1.3551
   80MOL   H38836886   8.083   4.149   4.313 -2.0811  0.2856  1.4977
   80MOL   H38936887   8.128   4.427   4.770 -0.1280 -0.0517 -0.2804
   80MOL   H39036888   7.983   4.492   4.963  0.0549 -1.0146  0.5149
   80MOL   H39136889   7.665   4.252   4.785 -1.2429  2.2504 -0.2820
   80MOL   H39236890   7.805   4.206   4.603 -0.0497 -2.2758  1.2781
   80MOL   O39336891   7.524   4.367   5.153  0.1308  0.8685 -0.5900
   80MOL   C39436892   7.423   4.457   5.107  0.3858 -0.2235 -0.2237
   80MOL   C39536893   7.390   4.553   5.218 -0.5065 -0.3411  0.6786
   80MOL   O39636894   7.314   4.499   5.318  0.0980 -0.0104  0.3339
   80MOL   C39736895   7.175   4.498   5.320 -0.0729  0.5604 -0.6945
   80MOL   O39836896   7.107   4.543   5.232 -0.4789 -0.2389  0.2680
   80MOL   C39936897   7.120   4.458   5.453  0.3745 -0.6379  0.0270
   80MOL   C40036898   7.204   4.464   5.572 -0.1083 -0.1641 -0.0366
   80MOL   C40136899   7.146   4.452   5.702 -0.5563 -0.6731 -0.0575
   80MOL   C40236900   7.010   4.434   5.717  1.1257  0.2742  0.8845
   80MOL   C40336901   6.956   4.428   5.860  0.2525 -0.4042 -0.1860
   80MOL   O40436902   6.840   4.395   5.883  0.0893  0.3599 -0.0011
   80MOL   O40536903   7.041   4.455   5.954 -0.4066  0.0647 -0.1291
   80MOL   C40636904   6.929   4.421   5.596  0.0680  0.8166  0.2810
   80MOL   C40736905   6.982   4.439   5.469  0.5513 -0.4404  0.0487
   80MOL   H40836906   7.462   4.525   5.031 -0.2307  0.3371 -0.0439
   80MOL   H40936907   7.339   4.404   5.063  1.5683 -1.2005 -1.3400
   80MOL   H41036908   7.337   4.639   5.176  2.0826  0.3981 -1.1849
   80MOL   H41136909   7.478   4.603   5.257  0.4793 -0.6702 -1.0858
   80MOL   H41236910   7.309   4.479   5.552 -0.0832 -2.3537 -1.7949
   80MOL   H41336911   7.205   4.447   5.792 -0.4957  0.1152 -0.0560
   80MOL   H41436912   6.823   4.405   5.608  0.0278 -0.5702 -1.6316
   80MOL   H41536913   6.915   4.439   5.384  1.0548  1.5807 -0.3717
   80MOL   O41636914   6.980   4.487   6.087 -0.0606  0.0624  0.5632
   80MOL   C41736915   7.015   4.391   6.184  0.3615 -0.0245  0.0613
   80MOL   C41836916   6.921   4.415   6.306 -1.0738 -0.5075  0.2175
   80MOL   O41936917   6.904   4.551   6.338 -0.0672  1.1805 -0.1462
   80MOL   C42036918   6.930   4.611   6.460 -0.6294  0.0995 -0.2663
   80MOL   O42136919   6.980   4.556   6.551 -0.0684 -0.0099  0.0489
   80MOL   C42236920   6.880   4.749   6.469  0.1670 -0.8219  0.5668
   80MOL   C42336921   6.830   4.809   6.592  0.0187  0.1516  0.0568
   80MOL   C42436922   6.798   4.941   6.596  0.4908 -0.0840  0.5023
   80MOL   C42536923   6.803   5.022   6.486 -0.3636 -0.5208  0.1932
   80MOL   C42636924   6.781   5.169   6.504  0.2317 -0.1543 -0.4154
   80MOL   O42736925   6.855   5.252   6.444  0.2783 -0.2421  0.1690
   80MOL   O42836926   6.679   5.203   6.587 -0.9036 -0.0879  0.0200
   80MOL   C42936927   6.839   4.964   6.362 -0.6674  0.0004 -0.2191
   80MOL   C43036928   6.873   4.827   6.352 -0.3820  0.2840 -0.3161
   80MOL   H43136929   7.003   4.288   6.149  0.7514  0.5013 -1.6139
   80MOL   H43236930   7.120   4.407   6.208  0.4050  2.5236 -1.7186
   80MOL   H43336931   6.960   4.365   6.394 -1.0141 -0.7319  0.0648
   80MOL   H43436932   6.826   4.372   6.274 -0.2489 -0.3433 -2.5924
   80MOL   H43536933   6.831   4.755   6.685  0.7273  0.4830  0.2487
   80MOL   H43636934   6.763   4.978   6.691  2.5767  0.7036  1.0016
   80MOL   H43736935   6.832   5.029   6.275  1.0008 -0.5363 -0.7776
   80MOL   H43836936   6.901   4.792   6.254 -1.9248  0.6453 -0.9096
   80MOL   O43936937   6.650   5.357   6.602 -0.0042  0.0378 -0.6321
   80MOL   C44036938   6.554   5.394   6.501 -0.4952 -0.3688  0.0750
   80MOL   C44136939   6.412   5.394   6.566  0.0797 -0.2666  0.7144
   80MOL   O44236940   6.354   5.270   6.552  0.7165  0.2537 -0.5558
   80MOL   C44336941   6.232   5.247   6.604 -0.0747 -0.2175  0.2259
   80MOL   O44436942   6.180   5.323   6.677 -0.3690 -0.1134 -0.0243
   80MOL   C44536943   6.174   5.111   6.563  0.8886  0.9638 -0.1458
   80MOL   C44636944   6.251   5.007   6.494 -0.3014  0.2215  0.2485
   80MOL   C44736945   6.199   4.880   6.479 -0.5878 -0.4682  0.2600
   80MOL   C44836946   6.065   4.854   6.505  0.4710  0.1184  0.4359
   80MOL   C44936947   6.022   4.711   6.498 -0.2294 -0.2080  0.0224
   80MOL   O45036948   6.094   4.617   6.465 -0.4545 -0.3453 -0.4543
   80MOL   O45136949   5.893   4.697   6.539 -0.3110 -0.6299 -0.1282
   80MOL   C45236950   5.984   4.954   6.567  0.3755 -0.2979  0.0574
   80MOL   C45336951   6.038   5.076   6.598 -0.4025 -0.1690 -0.3391
   80MOL   H45436952   6.584   5.486   6.451  0.9871 -0.6839  0.3458
   80MOL   H45536953   6.567   5.328   6.415  4.3067 -1.1732  1.2383
   80MOL   H45636954   6.346   5.474   6.530 -0.1685 -0.3378  1.0076
   80MOL   H45736955   6.425   5.420   6.671 -2.6228  1.1294  0.7550
   80MOL   H45836956   6.354   5.024   6.467 -0.4911 -0.5771 -0.9874
   80MOL   H45936957   6.262   4.801   6.443  3.6329  2.3994  0.8858
   80MOL   H46036958   5.886   4.943   6.610  0.7107 -0.2517  0.8404
   80MOL   H46136959   5.978   5.150   6.648 -0.5240 -0.2814 -0.3181
   80MOL   H46236960   5.859   4.625   6.488  1.0839 -0.2107 -1.6898
   81MOL     O136961   2.781   7.889   4.493 -0.2855 -0.4337 -0.1903
   81MOL     C236962   2.768   7.878   4.351 -0.1673 -0.0899 -0.5383
   81MOL     C336963   2.876   7.965   4.280  0.2658 -0.8334 -0.2423
   81MOL     O436964   2.829   8.097   4.235 -0.7966  0.2106  0.1539
   81MOL     C536965   2.892   8.212   4.281  0.1045 -0.1791 -0.0949
   81MOL     O636966   2.992   8.214   4.355  0.2379  0.2846 -0.4556
   81MOL     C736967   2.829   0.070   4.238 -0.0404 -0.3013 -0.6218
   81MOL     C836968   2.908   0.185   4.206 -0.2990 -0.3708 -0.4601
   81MOL     C936969   2.859   0.315   4.188 -0.6640 -0.0000 -0.3505
   81MOL    C1036970   2.714   0.326   4.176  0.5080  0.0338  1.1242
   81MOL    C1136971   2.654   0.458   4.134  0.0273 -0.5515 -0.0982
   81MOL    O1236972   2.539   0.496   4.141  0.3212  0.1723 -0.4091
   81MOL    O1336973   2.745   0.537   4.077 -0.8436  0.0651 -0.1067
   81MOL    C1436974   2.634   0.215   4.198  0.0429  0.8249  0.4421
   81MOL    C1536975   2.689   0.088   4.239  0.1164 -0.5312  0.6153
   81MOL    H1636976   2.779   7.771   4.335 -0.3864 -0.0535 -0.9383
   81MOL    H1736977   2.666   7.891   4.315 -0.8845 -0.7060  1.2305
   81MOL    H1836978   2.903   7.920   4.184 -0.5151 -0.2617 -0.7338
   81MOL    H1936979   2.965   7.976   4.342  1.3051 -1.2025 -1.6395
   81MOL    H2036980   3.016   0.185   4.215 -0.4286 -1.0160  1.1402
   81MOL    H2136981   2.922   0.402   4.185 -2.4806  1.3149 -1.0409
   81MOL    H2236982   2.530   0.233   4.176  0.9560  1.3022 -4.0172
   81MOL    H2336983   2.622   0.007   4.261 -2.6781  0.4647 -3.4379
   81MOL    H2436984   2.739   7.814   4.533  0.0138 -0.4023  0.1867
   81MOL    O2536985   2.690   0.668   4.036 -0.0760  0.4239 -0.4954
   81MOL    C2636986   2.742   0.778   4.120 -0.2828  0.7400  1.5245
   81MOL    C2736987   2.664   0.907   4.090 -0.0484  0.1783  0.2570
   81MOL    O2836988   2.678   1.001   4.190 -0.1066 -0.3246 -0.2227
   81MOL    C2936989   2.600   0.993   4.305 -0.6166  0.7263 -0.1354
   81MOL    O3036990   2.519   0.899   4.327 -0.6082 -0.0044 -0.1030
   81MOL    C3136991   2.631   1.103   4.401  0.0070 -0.0509 -0.4647
   81MOL    C3236992   2.608   1.093   4.535  0.6933  0.2522  0.3980
   81MOL    C3336993   2.621   1.201   4.625 -0.1132  0.2437  0.6571
   81MOL    C3436994   2.668   1.325   4.578  0.2027  0.8904  0.4386
   81MOL    C3536995   2.684   1.450   4.658 -0.0672 -0.1017  0.2694
   81MOL    O3636996   2.697   1.566   4.608  0.0692  0.4851 -0.3609
   81MOL    O3736997   2.695   1.432   4.790 -0.4072  0.4621  0.4083
   81MOL    C3836998   2.706   1.336   4.443  0.1425 -0.6330  0.7519
   81MOL    C3936999   2.689   1.227   4.359  0.3900  0.2877 -0.3271
   81MOL    H4037000   2.728   0.750   4.225 -1.7825 -0.8030  0.9417
   81MOL    H4137001   2.848   0.795   4.103 -0.1269  0.2444  1.9687
   81MOL    H4237002   2.559   0.879   4.081 -0.8874  2.3144  2.7787
   81MOL    H4337003   2.696   0.950   3.995 -2.4056  0.4182 -0.4615
   81MOL    H4437004   2.573   0.994   4.562 -2.7070  0.8501 -1.6046
   81MOL    H4537005   2.601   1.183   4.729 -1.8217 -0.5980  0.2077
   81MOL    H4637006   2.734   1.432   4.402  0.5563  0.0541  2.5935
   81MOL    H4737007   2.710   1.246   4.255 -0.2311 -2.1003 -0.9331
   81MOL    O4837008   2.719   1.563   4.869  0.5896 -0.0844  0.2493
   81MOL    C4937009   2.588   1.599   4.924 -0.3751  0.1659  0.9981
   81MOL    C5037010   2.577   1.748   4.955 -1.1020  0.3100 -0.0423
   81MOL    O5137011   2.510   1.768   5.076 -0.2606  0.0846  0.4933
   81MOL    C5237012   2.384   1.747   5.089 -0.3934  0.4167  0.3718
   81MOL    O5337013   2.301   1.720   4.998 -0.1990  0.6239  0.0156
   81MOL    C5437014   2.343   1.750   5.232  0.1367 -0.0555  0.2999
   81MOL    C5537015   2.427   1.811   5.326 -0.0445  0.6055  0.0810
   81MOL    C5637016   2.376   1.829   5.456 -0.4305  0.0394  0.2484
   81MOL    C5737017   2.260   1.770   5.494  0.1921  0.2161 -0.3071
   81MOL    C5837018   2.219   1.780   5.637  0.1705  0.1534 -0.6074
   81MOL    O5937019   2.283   1.836   5.721 -0.0533  0.0251 -0.1512
   81MOL    O6037020   2.106   1.715   5.662  0.1304  0.4007  0.0465
   81MOL    C6137021   2.184   1.693   5.401  0.1688  0.1675  0.4489
   81MOL    C6237022   2.226   1.688   5.271 -0.1602  0.1826  0.2673
   81MOL    H6337023   2.506   1.573   4.857 -1.0927  1.6712  1.2817
   81MOL    H6437024   2.585   1.542   5.017  2.4789  1.1710  1.7616
   81MOL    H6537025   2.519   1.806   4.884 -1.2327  0.5978  0.2979
   81MOL    H6637026   2.678   1.787   4.954  0.0629 -2.2430  4.1424
   81MOL    H6737027   2.530   1.841   5.312  0.4221 -0.9296  0.1470
   81MOL    H6837028   2.438   1.878   5.529  1.2352 -0.5570 -0.7241
   81MOL    H6937029   2.095   1.638   5.427 -0.8319  1.4532 -0.2341
   81MOL    H7037030   2.164   1.640   5.197 -1.6253  2.3177  0.0437
   81MOL    O7137031   2.071   1.693   5.806 -0.2851 -0.0576 -0.7042
   81MOL    C7237032   1.962   1.779   5.837  0.0419 -0.1979 -0.2944
   81MOL    C7337033   2.005   1.926   5.866 -0.1469  0.2204  0.5492
   81MOL    O7437034   2.010   2.005   5.751  0.2804 -0.4574  0.4652
   81MOL    C7537035   1.965   2.125   5.755 -0.1656 -0.4761 -0.1515
   81MOL    O7637036   1.865   2.165   5.816  0.2070  0.2613 -0.2013
   81MOL    C7737037   2.042   2.213   5.669 -0.5696 -0.5318 -0.1243
   81MOL    C7837038   2.157   2.171   5.600 -0.0816 -0.4873  0.3673
   81MOL    C7937039   2.224   2.254   5.509  0.1067 -0.3990 -0.0382
   81MOL    C8037040   2.182   2.387   5.490 -0.0625 -0.9174 -0.2947
   81MOL    C8137041   2.250   2.478   5.388  0.4079  0.4477 -0.0424
   81MOL    O8237042   2.211   2.586   5.354 -0.4759 -0.2372 -0.4406
   81MOL    O8337043   2.358   2.429   5.331 -0.3786 -0.0759 -0.2685
   81MOL    C8437044   2.081   2.440   5.570  0.3849 -0.4868 -0.0043
   81MOL    C8537045   2.003   2.349   5.649  0.1413  0.1842  0.2267
   81MOL    H8637046   1.880   1.754   5.769 -0.2801 -2.8740  0.9978
   81MOL    H8737047   1.934   1.737   5.934  3.0763  1.6018  1.4256
   81MOL    H8837048   2.097   1.924   5.924  1.0203 -0.3508 -1.2875
   81MOL    H8937049   1.929   1.967   5.933  2.0902 -0.5663  3.7057
   81MOL    H9037050   2.189   2.069   5.612  1.6716 -0.3435 -2.5916
   81MOL    H9137051   2.317   2.221   5.466  0.1288  0.7682 -0.9164
   81MOL    H9237052   2.042   2.540   5.559  0.1946 -0.5669 -0.0441
   81MOL    H9337053   1.924   2.393   5.708  0.0367  0.4311 -0.0963
   81MOL    O9437054   2.408   2.512   5.206 -0.0063  0.0837 -0.2019
   81MOL    C9537055   2.350   2.457   5.086  0.0456  0.0680 -0.6805
   81MOL    C9637056   2.348   2.560   4.980 -0.0004  0.1295 -0.3647
   81MOL    O9737057   2.334   2.510   4.843  0.2574  0.2336 -0.3428
   81MOL    C9837058   2.430   2.448   4.787 -0.3484 -0.0963 -0.1757
   81MOL    O9937059   2.541   2.427   4.837 -0.3737  0.5791  0.4456
   81MOL   C10037060   2.402   2.405   4.647 -0.3698 -0.5987 -0.4711
   81MOL   C10137061   2.505   2.345   4.566 -0.1792 -0.3899 -0.0067
   81MOL   C10237062   2.480   2.311   4.431 -0.9714  0.1375  0.7436
   81MOL   C10337063   2.348   2.332   4.381 -0.4753  0.4094 -0.3890
   81MOL   C10437064   2.315   2.297   4.238  0.0947 -0.6145  0.7680
   81MOL   O10537065   2.202   2.304   4.191 -0.3572  0.2119 -0.6833
   81MOL   O10637066   2.417   2.250   4.162  0.3414 -1.4119  0.2026
   81MOL   C10737067   2.247   2.381   4.467 -0.0076  0.3723 -0.4587
   81MOL   C10837068   2.270   2.412   4.600 -0.2809 -0.6412  0.2904
   81MOL   H10937069   2.404   2.367   5.054 -0.3845 -0.4829  0.1143
   81MOL   H11037070   2.252   2.423   5.121 -0.3617  1.7823 -0.1084
   81MOL   H11137071   2.445   2.610   4.981 -0.9061  1.9538 -0.1366
   81MOL   H11237072   2.275   2.636   5.009  0.4955  0.4449  0.0612
   81MOL   H11337073   2.601   2.329   4.615 -0.9804 -0.0952  1.6865
   81MOL   H11437074   2.566   2.277   4.375 -1.5915 -1.2815  0.6272
   81MOL   H11537075   2.150   2.381   4.419 -0.1691 -0.1811 -0.1303
   81MOL   H11637076   2.191   2.445   4.666  0.6737 -1.1423  1.7118
   81MOL   O11737077   2.376   2.240   4.013 -0.1664  0.1567 -0.2969
   81MOL   C11837078   2.308   2.109   3.991 -0.2631 -0.1778 -0.6131
   81MOL   C11937079   2.266   2.127   3.846  0.2354  0.4153 -0.5221
   81MOL   O12037080   2.387   2.156   3.769 -0.1986 -0.5383  0.4431
   81MOL   C12137081   2.408   2.276   3.718 -0.1089  0.0068  0.2507
   81MOL   O12237082   2.330   2.373   3.724  0.5138  0.2690 -0.0956
   81MOL   C12337083   2.545   2.294   3.656  0.5900 -0.5859  0.4283
   81MOL   C12437084   2.648   2.195   3.669  1.1097  0.3186 -0.5314
   81MOL   C12537085   2.776   2.210   3.619  0.0588 -0.1258  0.7162
   81MOL   C12637086   2.813   2.337   3.560 -0.7318  0.4705 -1.2818
   81MOL   C12737087   2.954   2.374   3.522  0.4451  0.1970 -1.0147
   81MOL   O12837088   2.991   2.490   3.500 -0.5051  0.0524 -0.4484
   81MOL   O12937089   3.029   2.260   3.516 -0.7840 -0.9174 -0.4595
   81MOL   C13037090   2.713   2.436   3.544  0.1284  0.1474  0.4799
   81MOL   C13137091   2.579   2.414   3.584  0.1362 -0.3370  0.1388
   81MOL   H13237092   2.393   2.041   3.998 -0.6690 -0.5923  0.4876
   81MOL   H13337093   2.226   2.081   4.057  0.8602 -0.2527  0.7755
   81MOL   H13437094   2.180   2.193   3.835 -0.4806 -0.4181  0.0842
   81MOL   H13537095   2.233   2.028   3.815  2.1563 -0.6706  0.8008
   81MOL   H13637096   2.630   2.110   3.732 -0.1312 -1.1710 -2.8280
   81MOL   H13737097   2.843   2.126   3.621  0.6691  0.3420 -0.1111
   81MOL   H13837098   2.741   2.537   3.516  1.2419 -0.9789 -2.7628
   81MOL   H13937099   2.508   2.494   3.568  2.7384  2.4414  1.9148
   81MOL   O14037100   3.157   2.267   3.420  0.1047 -0.4966 -0.2685
   81MOL   C14137101   3.271   2.268   3.500 -0.2366 -0.4475 -0.3432
   81MOL   C14237102   3.395   2.296   3.420  0.1054  0.5526  0.9335
   81MOL   O14337103   3.434   2.438   3.428  0.2340 -0.2917  0.1107
   81MOL   C14437104   3.401   2.524   3.325 -0.4690  0.6550 -0.0564
   81MOL   O14537105   3.372   2.484   3.211 -0.1710  0.4030  0.3341
   81MOL   C14637106   3.390   2.666   3.368 -0.1282  0.4455  0.4643
   81MOL   C14737107   3.348   2.704   3.498 -0.5755 -0.1374 -0.2302
   81MOL   C14837108   3.348   2.842   3.528  0.0575 -0.1456 -0.4760
   81MOL   C14937109   3.385   2.934   3.426 -0.0040 -0.7918 -0.0347
   81MOL   C15037110   3.393   3.076   3.474  0.3337  0.0772  0.2653
   81MOL   O15137111   3.339   3.118   3.579 -0.1959  1.0542 -0.8428
   81MOL   O15237112   3.452   3.159   3.386  0.6053  0.1861 -0.2105
   81MOL   C15337113   3.417   2.891   3.297 -0.1482  0.6076  0.6612
   81MOL   C15437114   3.423   2.759   3.269  1.1456  0.3258  0.1191
   81MOL   H15537115   3.260   2.352   3.569  0.2885 -0.2431 -0.4991
   81MOL   H15637116   3.255   2.170   3.544 -2.0709 -0.0477 -0.0906
   81MOL   H15737117   3.387   2.265   3.316  0.9387  0.6518  0.8298
   81MOL   H15837118   3.477   2.234   3.457  1.0708  0.8448 -0.6501
   81MOL   H15937119   3.320   2.631   3.573 -1.2813 -0.5363 -0.8638
   81MOL   H16037120   3.332   2.875   3.629 -0.5068 -1.3916 -0.1438
   81MOL   H16137121   3.448   2.962   3.221 -0.4004 -2.3786 -2.3151
   81MOL   H16237122   3.451   2.724   3.171 -0.4405  0.7717 -0.5073
   81MOL   O16337123   3.449   3.304   3.422  0.3854  0.1857 -0.3330
   81MOL   C16437124   3.564   3.340   3.492  0.4214 -0.3283  0.4792
   81MOL   C16537125   3.585   3.492   3.484 -0.2558 -0.0874  0.9417
   81MOL   O16637126   3.485   3.568   3.554  0.2993 -0.3149 -0.3926
   81MOL   C16737127   3.401   3.649   3.481  0.2723 -0.7899  0.7231
   81MOL   O16837128   3.413   3.669   3.362 -0.4031 -0.2991 -0.1655
   81MOL   C16937129   3.292   3.712   3.558  0.1574 -0.5743  0.0565
   81MOL   C17037130   3.235   3.838   3.520  0.2666 -0.7694  0.3304
   81MOL   C17137131   3.118   3.892   3.584  0.4101 -0.2645 -0.1369
   81MOL   C17237132   3.063   3.825   3.699 -0.0785 -0.3700 -0.2143
   81MOL   C17337133   2.927   3.874   3.755 -0.1081  0.9642  0.0162
   81MOL   O17437134   2.881   3.978   3.709 -0.3444  0.2566  0.4696
   81MOL   O17537135   2.883   3.813   3.866  0.1165  0.3683 -0.0531
   81MOL   C17637136   3.121   3.701   3.733  0.2911 -0.8953 -0.9383
   81MOL   C17737137   3.227   3.638   3.662 -0.1268 -0.3143 -0.4774
   81MOL   H17837138   3.546   3.331   3.600 -1.4936  0.9818  0.3123
   81MOL   H17937139   3.649   3.278   3.465  0.6127 -0.3051  1.0179
   81MOL   H18037140   3.586   3.523   3.379 -1.0279 -0.9820  0.6658
   81MOL   H18137141   3.685   3.507   3.524 -0.7943  1.2016  1.8389
   81MOL   H18237142   3.271   3.884   3.429 -1.2905 -3.0433 -1.5026
   81MOL   H18337143   3.089   3.989   3.548  1.2431 -0.0996 -0.3767
   81MOL   H18437144   3.072   3.645   3.811 -0.2602  0.2991 -0.4055
   81MOL   H18537145   3.259   3.539   3.692 -0.9053  0.5530  3.6146
   81MOL   O18637146   2.778   3.884   3.939 -0.2506 -0.5858  0.5088
   81MOL   C18737147   2.658   3.810   3.917 -0.7834 -0.0054  0.0426
   81MOL   C18837148   2.561   3.850   4.028 -0.0070 -0.9275 -0.1719
   81MOL   O18937149   2.509   3.976   3.987  0.1941 -0.1007 -0.4423
   81MOL   C19037150   2.419   4.048   4.067  0.2150 -0.7597  0.2188
   81MOL   O19137151   2.398   4.012   4.186  0.3736  0.1686  0.1142
   81MOL   C19237152   2.360   4.172   4.003  0.1048  0.7565 -0.2721
   81MOL   C19337153   2.314   4.279   4.083  0.1590 -0.4950  0.2313
   81MOL   C19437154   2.278   4.401   4.024  0.2542 -0.0023  0.6683
   81MOL   C19537155   2.276   4.414   3.880 -0.6867 -0.9136 -0.1806
   81MOL   C19637156   2.240   4.541   3.813 -0.2603 -0.4805 -0.3271
   81MOL   O19737157   2.243   4.562   3.691 -0.3245 -0.3833 -0.6669
   81MOL   O19837158   2.191   4.634   3.903  0.0293  0.8295 -0.1388
   81MOL   C19937159   2.305   4.304   3.802  0.2487  0.7627  0.0274
   81MOL   C20037160   2.352   4.184   3.863 -0.7141 -0.0435 -0.3151
   81MOL   H20137161   2.605   3.831   3.824 -2.4304 -1.2119  0.6974
   81MOL   H20237162   2.657   3.701   3.912 -1.2423 -0.1420  2.4785
   81MOL   H20337163   2.591   3.841   4.133 -2.9308 -0.5945  0.7311
   81MOL   H20437164   2.489   3.769   4.022  0.3485 -1.2842  0.3534
   81MOL   H20537165   2.312   4.280   4.191 -0.1572  1.2790  0.2221
   81MOL   H20637166   2.233   4.464   4.100  0.1332 -2.5790  2.8216
   81MOL   H20737167   2.322   4.320   3.697  0.7268  0.8842  0.1199
   81MOL   H20837168   2.387   4.106   3.798 -1.7820 -2.0787  1.5035
   81MOL   O20937169   2.153   4.767   3.841  0.4378  0.6489  0.0710
   81MOL   C21037170   2.243   4.859   3.895 -0.3033  0.6172 -0.1545
   81MOL   C21137171   2.221   5.010   3.860  0.6653  0.6336 -0.5625
   81MOL   O21237172   2.104   5.061   3.907  0.8253  0.5380 -0.4195
   81MOL   C21337173   2.083   5.195   3.919  0.5426  0.6422 -0.7701
   81MOL   O21437174   2.176   5.273   3.914  0.2595 -0.3227  0.0681
   81MOL   C21537175   1.937   5.225   3.932 -0.4979 -0.2617 -0.1474
   81MOL   C21637176   1.890   5.358   3.966 -0.1477 -0.1608  0.0720
   81MOL   C21737177   1.757   5.387   3.987 -0.2357  0.7660  0.0938
   81MOL   C21837178   1.658   5.288   3.962  0.4340  0.4605 -0.1259
   81MOL   C21937179   1.513   5.319   3.956  0.2042 -0.3015 -0.3695
   81MOL   O22037180   1.468   5.433   3.979  0.4336 -0.4214 -0.7769
   81MOL   O22137181   1.424   5.210   3.934 -1.0326 -1.2703  0.2746
   81MOL   C22237182   1.694   5.156   3.936 -0.6227  0.2614  1.0665
   81MOL   C22337183   1.834   5.128   3.917  1.0120 -0.3249  0.5011
   81MOL   H22437184   2.247   4.844   4.003  1.0137  0.0551 -0.2622
   81MOL   H22537185   2.343   4.834   3.858 -0.9922 -2.9766  0.1988
   81MOL   H22637186   2.228   5.020   3.751  1.5345  0.0027 -0.5713
   81MOL   H22737187   2.299   5.068   3.909  2.0490  0.9595 -3.0233
   81MOL   H22837188   1.965   5.435   3.978 -0.9196  0.5743  0.2703
   81MOL   H22937189   1.735   5.489   4.014  2.1558  1.5015 -0.6204
   81MOL   H23037190   1.615   5.084   3.922  0.0213 -0.5967  1.7864
   81MOL   H23137191   1.858   5.030   3.878  1.5046  0.0634 -0.1892
   81MOL   O23237192   1.285   5.253   3.928 -0.4888  0.4142 -0.1347
   81MOL   C23337193   1.241   5.224   3.794 -0.4735  0.4275  0.7900
   81MOL   C23437194   1.305   5.319   3.688 -0.0307  0.5748 -0.0090
   81MOL   O23537195   1.405   5.248   3.620 -0.3341 -0.3800 -0.1773
   81MOL   C23637196   1.542   5.293   3.595  0.6223  0.1860  0.5579
   81MOL   O23737197   1.584   5.397   3.639  0.1564 -0.1524 -0.4261
   81MOL   C23837198   1.618   5.204   3.503 -0.0590 -1.1687  0.6570
   81MOL   C23937199   1.743   5.245   3.440  0.7626 -0.0411  0.1625
   81MOL   C24037200   1.800   5.175   3.340 -0.2141 -0.0605 -0.6963
   81MOL   C24137201   1.760   5.049   3.303 -0.4640  0.0312 -0.0193
   81MOL   C24237202   1.832   4.963   3.199  0.0104  1.4856 -0.3461
   81MOL   O24337203   1.809   4.839   3.183 -0.1142 -0.3656 -0.6360
   81MOL   O24437204   1.931   5.027   3.137  0.0723 -0.1875 -0.1307
   81MOL   C24537205   1.648   4.996   3.372 -0.1283  0.0780  1.1683
   81MOL   C24637206   1.580   5.072   3.465  0.1038 -0.4427 -0.6070
   81MOL   H24737207   1.268   5.121   3.772 -1.9473 -0.2433  2.0961
   81MOL   H24837208   1.134   5.229   3.779 -0.6613  1.0998  2.2948
   81MOL   H24937209   1.346   5.405   3.741 -1.1815  0.8603  0.4422
   81MOL   H25037210   1.238   5.349   3.607  0.3594  0.7172 -0.2832
   81MOL   H25137211   1.781   5.340   3.474 -0.0782 -0.6915  3.0691
   81MOL   H25237212   1.879   5.224   3.285  2.1290 -0.5986  2.1144
   81MOL   H25337213   1.611   4.895   3.357  0.6019 -0.0239 -0.0340
   81MOL   H25437214   1.496   5.030   3.519  0.5189  1.8021  1.8872
   81MOL   O25537215   1.982   4.968   3.009 -0.1340 -0.1021 -0.3939
   81MOL   C25637216   2.079   4.868   3.036 -0.7570  0.2833 -0.4098
   81MOL   C25737217   2.103   4.781   2.910 -0.1759  0.3553 -0.2824
   81MOL   O25837218   2.219   4.810   2.838  0.3057  0.0474  0.0985
   81MOL   C25937219   2.337   4.771   2.879 -0.2003  0.2128 -0.5019
   81MOL   O26037220   2.346   4.705   2.979 -0.1452  0.0959  0.2490
   81MOL   C26137221   2.447   4.814   2.793 -0.1945 -0.1139  0.5202
   81MOL   C26237222   2.430   4.839   2.662 -0.9175  0.6333 -0.3637
   81MOL   C26337223   2.539   4.873   2.581 -0.5993  0.0163 -0.1559
   81MOL   C26437224   2.674   4.869   2.622  0.2264 -0.0844  0.2028
   81MOL   C26537225   2.778   4.912   2.532  0.2241  1.8381  0.2536
   81MOL   O26637226   2.763   4.941   2.414 -0.0444 -0.1182 -0.0640
   81MOL   O26737227   2.903   4.917   2.598 -0.3947  0.0802  0.1898
   81MOL   C26837228   2.687   4.845   2.756 -0.1641  0.3276 -0.6776
   81MOL   C26937229   2.583   4.814   2.843 -0.2193  0.3247 -0.4911
   81MOL   H27037230   2.168   4.925   3.064  1.4408 -3.2383  0.1065
   81MOL   H27137231   2.069   4.810   3.127 -1.2651  1.7433  0.4886
   81MOL   H27237232   2.012   4.786   2.850 -0.6962  0.3830  0.5010
   81MOL   H27337233   2.104   4.673   2.926  0.0042  0.3095 -0.5885
   81MOL   H27437234   2.327   4.842   2.630 -1.0092  0.9228 -0.0381
   81MOL   H27537235   2.512   4.912   2.484 -1.5460  1.0029  0.4956
   81MOL   H27637236   2.782   4.849   2.808  0.6516  0.9640 -2.1645
   81MOL   H27737237   2.596   4.806   2.949 -3.0905  1.5757  0.0213
   81MOL   O27837238   3.020   4.947   2.510  0.1341 -0.3227  0.6415
   81MOL   C27937239   3.106   4.831   2.504 -0.3994  0.5357  0.8339
   81MOL   C28037240   3.034   4.728   2.413  0.2644 -0.3982  0.4710
   81MOL   O28137241   3.102   4.604   2.405  0.0705 -0.1715 -0.4068
   81MOL   C28237242   3.201   4.598   2.311  0.7250 -0.0382 -0.6893
   81MOL   O28337243   3.241   4.689   2.239 -0.2149 -0.3731  0.1091
   81MOL   C28437244   3.266   4.462   2.307  0.4808  0.2090 -0.7527
   81MOL   C28537245   3.378   4.431   2.230  0.1144 -0.2232  0.0315
   81MOL   C28637246   3.428   4.298   2.228 -0.1879 -0.2421  0.2084
   81MOL   C28737247   3.372   4.198   2.315 -0.1330 -0.3952  0.0588
   81MOL   C28837248   3.433   4.061   2.316 -0.2100  0.0945  0.1895
   81MOL   O28937249   3.383   3.961   2.375 -0.0305 -0.3978 -0.6168
   81MOL   O29037250   3.556   4.058   2.245  0.6796 -0.8813 -0.7164
   81MOL   C29137251   3.269   4.235   2.393  0.0813 -0.2802  0.6316
   81MOL   C29237252   3.208   4.358   2.383 -0.1611 -0.0761 -0.0677
   81MOL   H29337253   3.202   4.864   2.466  0.3841 -2.0867  0.4313
   81MOL   H29437254   3.121   4.795   2.606 -1.4397 -2.7410 -0.1274
   81MOL   H29537255   3.012   4.772   2.316 -1.0596  3.6497  2.4840
   81MOL   H29637256   2.939   4.692   2.453  0.5255 -3.1148 -1.1883
   81MOL   H29737257   3.412   4.515   2.170  0.3682  1.1416  2.0249
   81MOL   H29837258   3.513   4.280   2.165 -1.1348 -0.4013 -1.0482
   81MOL   H29937259   3.230   4.162   2.462 -0.1344 -1.3278 -0.5792
   81MOL   H30037260   3.125   4.370   2.451 -0.9956  0.8048 -1.2339
   81MOL   O30137261   3.607   3.913   2.223  0.5780 -0.4079  0.2168
   81MOL   C30237262   3.541   3.860   2.105 -0.3422  0.1793  0.3898
   81MOL   C30337263   3.577   3.939   1.983 -0.0186 -0.4159  0.3684
   81MOL   O30437264   3.454   3.996   1.935 -0.2429  0.2329 -0.3664
   81MOL   C30537265   3.437   3.995   1.801 -0.2654 -0.0951 -0.3478
   81MOL   O30637266   3.523   3.937   1.728  0.8192 -0.8190 -0.6900
   81MOL   C30737267   3.318   4.069   1.754 -1.1458 -0.4085 -0.0904
   81MOL   C30837268   3.216   4.106   1.845  0.0922 -0.0905 -0.3566
   81MOL   C30937269   3.099   4.174   1.797 -0.5967 -0.3018  0.1128
   81MOL   C31037270   3.080   4.208   1.663  0.0417 -0.7129 -0.3690
   81MOL   C31137271   2.951   4.270   1.617  0.0387  0.0511 -0.3421
   81MOL   O31237272   2.884   4.223   1.526 -0.2526  0.1687 -0.1270
   81MOL   O31337273   2.922   4.377   1.688 -0.6489 -0.7177  0.0798
   81MOL   C31437274   3.183   4.167   1.575 -0.2525  0.2268  0.1260
   81MOL   C31537275   3.300   4.105   1.619 -0.0274 -0.2949 -0.1665
   81MOL   H31637276   3.566   3.758   2.078  1.9968  0.6495  0.6767
   81MOL   H31737277   3.434   3.870   2.124 -0.1668 -0.6518  1.8823
   81MOL   H31837278   3.626   3.867   1.917  1.6674 -0.2369  1.3859
   81MOL   H31937279   3.650   4.015   2.012  1.8063 -0.7102 -3.1728
   81MOL   H32037280   3.218   4.094   1.952 -1.1635  1.5736 -0.1263
   81MOL   H32137281   3.024   4.216   1.862  0.2624 -0.2005  1.0575
   81MOL   H32237282   3.167   4.181   1.469 -1.2528  1.3576  0.4101
   81MOL   H32337283   3.379   4.092   1.547  0.6558 -0.3542  0.5853
   81MOL   O32437284   2.796   4.441   1.646  0.2221 -0.7220 -0.2813
   81MOL   C32537285   2.826   4.561   1.586  0.0743 -0.1257 -0.6912
   81MOL   C32637286   2.688   4.623   1.566 -0.2441  0.2804 -0.5697
   81MOL   O32737287   2.612   4.553   1.462 -0.1524 -0.0541 -0.2549
   81MOL   C32837288   2.618   4.584   1.336  0.0173 -0.2360 -0.6329
   81MOL   O32937289   2.684   4.681   1.297 -0.3722 -0.0614 -0.8330
   81MOL   C33037290   2.563   4.487   1.244 -0.0928  0.0902  0.1460
   81MOL   C33137291   2.579   4.504   1.104  0.0875  0.5428  0.3995
   81MOL   C33237292   2.518   4.412   1.013 -0.0693  0.4381 -0.4379
   81MOL   C33337293   2.444   4.305   1.064 -0.7403  0.1565  0.5607
   81MOL   C33437294   2.383   4.210   0.973  0.1001  0.3865 -0.2130
   81MOL   O33537295   2.299   4.128   1.000  0.2318  0.2849  0.2350
   81MOL   O33637296   2.421   4.229   0.847  0.3457 -0.4981  0.4214
   81MOL   C33737297   2.430   4.288   1.207  0.1866 -0.4610  0.5718
   81MOL   C33837298   2.489   4.376   1.295 -0.2442 -0.0160 -0.1929
   81MOL   H33937299   2.880   4.642   1.636 -1.7257  0.7259 -0.0582
   81MOL   H34037300   2.870   4.551   1.487  1.1193 -2.6149  0.0031
   81MOL   H34137301   2.705   4.724   1.528 -0.0060  0.8050  0.9038
   81MOL   H34237302   2.633   4.624   1.660  0.1481  1.2636 -0.3382
   81MOL   H34337303   2.630   4.592   1.068 -0.2756  1.2794  1.6188
   81MOL   H34437304   2.531   4.416   0.906 -0.5543 -0.7190 -0.5491
   81MOL   H34537305   2.371   4.208   1.250 -0.0131 -0.3151  0.5689
   81MOL   H34637306   2.483   4.361   1.402  2.3843 -0.4590 -0.0775
   81MOL   O34737307   2.333   4.137   0.754  0.1359 -0.0135 -0.0585
   81MOL   C34837308   2.206   4.196   0.732 -0.2921 -0.2796 -0.8091
   81MOL   C34937309   2.168   4.161   0.583 -0.0675 -0.2091  0.7607
   81MOL   O35037310   2.114   4.030   0.592 -0.0057 -0.4877 -0.6962
   81MOL   C35137311   2.168   3.935   0.520  0.0196 -0.1130 -0.0719
   81MOL   O35237312   2.252   3.956   0.429 -0.2999  0.1182 -0.4604
   81MOL   C35337313   2.116   3.797   0.559  0.2340 -0.3046  0.5689
   81MOL   C35437314   2.023   3.786   0.657  0.1835 -0.8515  0.1623
   81MOL   C35537315   1.961   3.666   0.689 -0.3170  0.0755 -0.0096
   81MOL   C35637316   1.999   3.546   0.618 -0.3155  0.6852  0.1299
   81MOL   C35737317   1.929   3.421   0.655  0.2549  0.0941 -0.0895
   81MOL   O35837318   1.852   3.413   0.751  0.2349 -0.1553  0.3471
   81MOL   O35937319   1.963   3.311   0.584  0.3693  0.0233 -0.3903
   81MOL   C36037320   2.090   3.560   0.513 -0.9331  0.3701  0.2212
   81MOL   C36137321   2.153   3.685   0.485 -0.1536 -0.6145 -0.2921
   81MOL   H36237322   2.131   4.170   0.806 -2.0510 -1.7089 -3.0484
   81MOL   H36337323   2.206   4.302   0.760  0.6006  0.3172 -2.9414
   81MOL   H36437324   2.257   4.176   0.522 -1.0919  1.4000 -0.3491
   81MOL   H36537325   2.088   4.224   0.546 -0.5844 -0.2340  1.8041
   81MOL   H36637326   2.002   3.869   0.724 -0.6254  0.5429 -1.7565
   81MOL   H36737327   1.893   3.675   0.772 -0.4143  0.1209 -0.0940
   81MOL   H36837328   2.104   3.474   0.448 -1.0520  1.7610 -1.7094
   81MOL   H36937329   2.225   3.697   0.405  1.4088 -4.1953  0.4754
   81MOL   O37037330   1.929   3.181   0.644  0.2004  0.8791 -0.3460
   81MOL   C37137331   1.817   3.130   0.567  0.0324  0.6762 -0.2684
   81MOL   C37237332   1.754   3.006   0.628  0.2406  0.3351 -0.1319
   81MOL   O37337333   1.706   3.031   0.765  0.1873 -0.1925 -0.2703
   81MOL   C37437334   1.782   3.009   0.880  0.9428  0.8893  0.0663
   81MOL   O37537335   1.894   2.963   0.870 -0.0653 -0.4172 -0.0958
   81MOL   C37637336   1.714   3.036   1.001  0.6937  0.6114 -0.5914
   81MOL   C37737337   1.596   3.110   0.996  0.0208 -0.1138  0.9194
   81MOL   C37837338   1.530   3.137   1.116 -0.0594  0.9370 -0.0296
   81MOL   C37937339   1.586   3.088   1.243  0.0629 -0.6021 -0.2469
   81MOL   C38037340   1.534   3.122   1.379  0.4470  0.3824  0.3946
   81MOL   O38137341   1.585   3.101   1.488  0.3060  0.1398 -0.1655
   81MOL   O38237342   1.412   3.181   1.372  0.3469  0.1902  0.3644
   81MOL   C38337343   1.703   3.016   1.241  0.3670  0.1923 -0.1126
   81MOL   C38437344   1.767   2.989   1.121  0.3810 -0.0663  0.3375
   81MOL   H38537345   1.737   3.202   0.552  0.5978  1.1061 -1.2711
   81MOL   H38637346   1.855   3.107   0.468  1.0494  1.6483 -0.1101
   81MOL   H38737347   1.813   2.915   0.627  1.9155  1.3986 -2.1748
   81MOL   H38837348   1.662   2.976   0.578 -0.5412  0.7198  1.0500
   81MOL   H38937349   1.555   3.150   0.905  2.1397  0.7873  0.3510
   81MOL   H39037350   1.443   3.198   1.132  0.2412  1.6163 -0.9362
   81MOL   H39137351   1.733   2.979   1.338 -0.1583  0.4450  0.1492
   81MOL   H39237352   1.856   2.928   1.122 -0.4204 -1.2338  0.7188
   81MOL   O39337353   1.353   3.217   1.510 -0.1658  0.6644 -0.2196
   81MOL   C39437354   1.232   3.147   1.519 -0.9191 -0.4019  0.4813
   81MOL   C39537355   1.167   3.199   1.646  0.0375  0.1012  0.4072
   81MOL   O39637356   1.051   3.122   1.654  0.6764  0.7733 -0.1639
   81MOL   C39737357   0.939   3.171   1.721 -0.4071  0.4094  0.1536
   81MOL   O39837358   0.940   3.273   1.786  0.2834  0.5256  0.2337
   81MOL   C39937359   0.823   3.080   1.719  0.3375  1.0657  0.1783
   81MOL   C40037360   0.826   2.950   1.655  0.0914  0.4630 -0.6856
   81MOL   C40137361   0.703   2.881   1.645 -0.3850 -0.1581 -0.3441
   81MOL   C40237362   0.585   2.929   1.694  1.0251 -0.1741 -0.6024
   81MOL   C40337363   0.459   2.850   1.671  0.0889  0.0629 -0.7888
   81MOL   O40437364   0.458   2.765   1.585 -0.7998  0.2896 -0.1536
   81MOL   O40537365   0.354   2.891   1.744  0.0764  0.5766 -0.4668
   81MOL   C40637366   0.588   3.052   1.766  0.6616 -1.0648  0.6027
   81MOL   C40737367   0.707   3.121   1.784 -0.5300 -0.6578  0.5484
   81MOL   H40837368   1.165   3.170   1.437 -0.4551  0.7643  0.4224
   81MOL   H40937369   1.255   3.040   1.517  0.1840 -0.1611 -0.0511
   81MOL   H41037370   1.148   3.306   1.634 -2.8042  0.0248  3.5172
   81MOL   H41137371   1.235   3.180   1.729  0.6011  0.7884  0.1069
   81MOL   H41237372   0.910   2.917   1.595 -0.7136 -1.4337 -0.8169
   81MOL   H41337373   0.709   2.789   1.588 -1.1413  0.0214 -0.7152
   81MOL   H41437374   0.499   3.092   1.812  1.6433 -0.6284  2.1281
   81MOL   H41537375   0.710   3.214   1.838 -2.4776  0.3474 -1.0204
   81MOL   O41637376   0.232   2.814   1.717  0.1309 -0.5260 -0.3731
   81MOL   C41737377   0.158   2.878   1.611 -0.1556 -0.2612 -0.5756
   81MOL   C41837378   0.000   2.851   1.613  0.0039 -0.1214  0.1082
   81MOL   O41937379   8.202   2.935   1.706  0.4826 -0.2225  0.2301
   81MOL   C42037380   8.186   2.901   1.839 -0.5548  0.1777  0.2626
   81MOL   O42137381   8.234   2.800   1.886 -0.8687 -0.0501 -0.3722
   81MOL   C42237382   8.108   3.009   1.913 -0.3092  0.4404 -0.0795
   81MOL   C42337383   8.053   3.119   1.846  0.9187 -0.1416  0.5054
   81MOL   C42437384   8.003   3.234   1.918 -0.3912  0.1335  0.6484
   81MOL   C42537385   8.012   3.234   2.056 -0.2832  0.5298  0.4316
   81MOL   C42637386   7.944   3.345   2.138 -0.2739 -0.3024  0.6000
   81MOL   O42737387   7.889   3.444   2.084  0.1700  0.1541 -0.1865
   81MOL   O42837388   7.949   3.323   2.265  0.0342  0.1079 -0.7643
   81MOL   C42937389   8.068   3.120   2.124 -0.2318  0.4644 -1.0693
   81MOL   C43037390   8.124   3.010   2.055  0.8345  0.0546  0.5584
   81MOL   H43137391   0.168   2.986   1.600 -0.4620 -0.2302 -0.5592
   81MOL   H43237392   0.207   2.836   1.523 -0.1217  0.9584 -1.1436
   81MOL   H43337393   8.250   2.748   1.637 -2.1576  0.3084 -0.2252
   81MOL   H43437394   8.228   2.845   1.515  0.3027  0.9617 -0.1145
   81MOL   H43537395   8.049   3.121   1.738  1.1853  3.1965  0.4941
   81MOL   H43637396   7.963   3.318   1.864 -0.3997 -1.8103 -2.4879
   81MOL   H43737397   8.099   3.125   2.227  0.1255 -3.3034 -0.9362
   81MOL   H43837398   8.174   2.933   2.112  1.2964  0.0660  0.1667
   81MOL   O43937399   7.907   3.438   2.358 -0.2405 -0.2486  0.1178
   81MOL   C44037400   8.009   3.448   2.460  0.2647 -0.3587  0.8266
   81MOL   C44137401   8.149   3.460   2.399  0.0164 -1.0235  0.8570
   81MOL   O44237402   8.211   3.334   2.380 -0.6150  0.1074 -0.0152
   81MOL   C44337403   0.022   3.282   2.467 -0.2179  1.0724 -0.4215
   81MOL   O44437404   0.026   3.312   2.583  0.0949  0.0997  0.0734
   81MOL   C44537405   0.091   3.167   2.402 -0.3194 -0.2305 -0.1484
   81MOL   C44637406   0.131   3.055   2.481  0.9695  0.7741  0.2199
   81MOL   C44737407   0.189   2.944   2.426 -0.1626 -1.0486 -0.9794
   81MOL   C44837408   0.212   2.934   2.288 -0.5134 -0.0359 -0.2487
   81MOL   C44937409   0.276   2.816   2.216  0.4322  0.0535  0.2672
   81MOL   O45037410   0.366   2.742   2.266  0.1724 -0.3753 -0.4379
   81MOL   O45137411   0.245   2.811   2.088  0.6556  0.4935  0.1322
   81MOL   C45237412   0.174   3.043   2.208 -0.0314  0.6891  0.3002
   81MOL   C45337413   0.111   3.154   2.263 -0.1830  0.1255 -0.0982
   81MOL   H45437414   7.989   3.534   2.524  1.7999 -0.0030  0.8481
   81MOL   H45537415   8.000   3.366   2.531 -2.8265  0.1550  1.1143
   81MOL   H45637416   8.213   3.529   2.455  2.2464 -2.1458 -0.2489
   81MOL   H45737417   8.121   3.497   2.299  1.8744  0.0147  0.6968
   81MOL   H45837418   0.111   3.052   2.588  2.3060  2.1242  0.5212
   81MOL   H45937419   0.214   2.854   2.482  2.9746  0.5586  0.3160
   81MOL   H46037420   0.185   3.039   2.101 -1.4948  1.7951  0.0962
   81MOL   H46137421   0.087   3.238   2.200  2.2753  1.1126  0.2458
   81MOL   H46237422   0.313   2.761   2.045 -1.0537 -0.1363 -1.9159
   82MOL     O137423   2.465   3.149   2.295  0.3832  0.1443 -0.2393
   82MOL     C237424   2.488   3.220   2.178  0.5587 -0.1230  0.2207
   82MOL     C337425   2.357   3.286   2.127 -0.0653  0.4182 -0.9443
   82MOL     O437426   2.374   3.344   1.991 -0.3667 -0.1472 -0.1239
   82MOL     C537427   2.381   3.271   1.887  0.5553  0.6099  0.3124
   82MOL     O637428   2.370   3.151   1.891 -0.3344  0.7616  0.3424
   82MOL     C737429   2.405   3.345   1.762 -0.2941 -0.3400 -0.5212
   82MOL     C837430   2.436   3.274   1.647  0.2497 -0.1002  1.7728
   82MOL     C937431   2.458   3.343   1.529 -0.3488 -0.2788 -0.2473
   82MOL    C1037432   2.436   3.480   1.517 -0.0113  0.5199  0.2472
   82MOL    C1137433   2.432   3.546   1.378 -0.0360  0.2892  0.2560
   82MOL    O1237434   2.459   3.487   1.272  0.4887 -0.5162  0.5502
   82MOL    O1337435   2.399   3.676   1.383  0.0729  0.5248  0.3452
   82MOL    C1437436   2.400   3.550   1.637 -0.1048 -0.4893  0.2836
   82MOL    C1537437   2.391   3.482   1.759 -0.1427  0.2144 -0.2759
   82MOL    H1637438   2.561   3.298   2.198  0.5988 -0.2431  0.5619
   82MOL    H1737439   2.523   3.147   2.104  0.1148 -1.6504  1.4801
   82MOL    H1837440   2.351   3.359   2.208  1.2567 -0.2064 -0.2607
   82MOL    H1937441   2.275   3.215   2.138  1.1186 -1.3266 -2.9695
   82MOL    H2037442   2.445   3.167   1.648  0.9763 -0.0882  0.0358
   82MOL    H2137443   2.481   3.280   1.444  0.7151  0.3819 -0.4647
   82MOL    H2237444   2.384   3.657   1.625 -1.3363 -0.6688  0.2601
   82MOL    H2337445   2.376   3.538   1.850 -0.3307  0.9827 -0.7668
   82MOL    H2437446   2.416   3.071   2.274 -0.0612  0.7077 -1.3325
   82MOL    O2537447   2.370   3.729   1.239  0.4011 -0.2546 -0.2047
   82MOL    C2637448   2.460   3.839   1.201 -0.0141  0.4016 -0.3303
   82MOL    C2737449   2.461   3.944   1.315 -0.7344 -0.5347 -0.6758
   82MOL    O2837450   2.561   3.920   1.412 -0.0253  0.1358  0.2578
   82MOL    C2937451   2.582   4.000   1.521  0.4799 -0.0007  0.5115
   82MOL    O3037452   2.523   4.108   1.535 -0.1070 -0.5978  0.1695
   82MOL    C3137453   2.676   3.942   1.624  0.7650 -0.3288 -0.4100
   82MOL    C3237454   2.724   4.021   1.727  0.2824 -0.1140 -0.5838
   82MOL    C3337455   2.826   3.978   1.817  1.1430 -0.2431 -0.0348
   82MOL    C3437456   2.874   3.842   1.807  0.0614  0.2666 -0.4334
   82MOL    C3537457   2.977   3.793   1.901  0.4778  0.3919 -0.1397
   82MOL    O3637458   3.006   3.676   1.911  0.2764 -0.3501 -0.2230
   82MOL    O3737459   3.024   3.886   1.981  0.4806  0.6505  0.0416
   82MOL    C3837460   2.830   3.760   1.700 -0.1946 -0.1310 -0.0614
   82MOL    C3937461   2.733   3.813   1.610 -1.0648 -0.1788  0.0862
   82MOL    H4037462   2.557   3.793   1.184  0.2239  0.7522  0.0482
   82MOL    H4137463   2.424   3.872   1.104  1.7636 -1.0873 -1.5279
   82MOL    H4237464   2.362   3.933   1.359 -0.5535  1.1548  0.2057
   82MOL    H4337465   2.469   4.045   1.276  0.3291 -1.5493 -3.2518
   82MOL    H4437466   2.685   4.121   1.736  1.2267  0.3465 -1.4476
   82MOL    H4537467   2.871   4.043   1.891 -0.4204  1.1381 -0.2572
   82MOL    H4637468   2.859   3.657   1.687 -0.7345 -0.3886  0.7672
   82MOL    H4737469   2.702   3.752   1.527 -1.2468  0.5402 -0.3850
   82MOL    O4837470   3.133   3.835   2.077  0.8724  0.2417  0.2877
   82MOL    C4937471   3.085   3.842   2.211  0.8809 -0.5125 -0.7424
   82MOL    C5037472   3.073   3.986   2.256  0.0214  0.3521 -0.8163
   82MOL    O5137473   2.979   4.070   2.195 -0.4418 -0.3153 -0.2156
   82MOL    C5237474   2.859   4.095   2.258 -0.0602 -0.3163  0.3724
   82MOL    O5337475   2.821   4.045   2.364  0.3429 -0.3358 -0.0522
   82MOL    C5437476   2.782   4.185   2.175 -0.6815 -0.3865 -0.3650
   82MOL    C5537477   2.837   4.268   2.078 -0.4093 -0.1250 -0.2250
   82MOL    C5637478   2.765   4.368   2.010  0.2783 -0.8667  0.1178
   82MOL    C5737479   2.627   4.366   2.026  0.3409  0.0623  0.1243
   82MOL    C5837480   2.540   4.447   1.942  0.7372 -0.5022 -0.3323
   82MOL    O5937481   2.582   4.548   1.890  0.4189 -0.0434  0.2517
   82MOL    O6037482   2.413   4.399   1.927  0.3284  0.1115  0.1223
   82MOL    C6137483   2.562   4.286   2.121  0.0168  0.0940  0.8347
   82MOL    C6237484   2.644   4.195   2.197  0.9781  0.1495  0.3298
   82MOL    H6337485   2.996   3.783   2.232 -0.7634  1.9736 -0.6606
   82MOL    H6437486   3.163   3.795   2.271 -1.3256 -1.2311  1.6609
   82MOL    H6537487   3.170   4.030   2.231  0.4066  1.1490  1.9570
   82MOL    H6637488   3.064   3.991   2.364  0.9095  0.3003 -0.7374
   82MOL    H6737489   2.945   4.274   2.069 -0.5161 -0.1321 -1.5987
   82MOL    H6837490   2.823   4.439   1.954 -2.4199 -0.7229 -2.5857
   82MOL    H6937491   2.456   4.288   2.145  0.1308 -0.1475  1.3651
   82MOL    H7037492   2.607   4.130   2.275  2.6917 -0.2396  0.8273
   82MOL    O7137493   2.327   4.488   1.849 -0.0341 -0.4900 -0.3547
   82MOL    C7237494   2.310   4.430   1.726  0.4745 -0.0457  0.9103
   82MOL    C7337495   2.199   4.493   1.650  0.7468 -0.1821  0.0788
   82MOL    O7437496   2.259   4.599   1.583  0.3390  0.7212 -0.4753
   82MOL    C7537497   2.246   4.604   1.445  0.1105 -0.5019 -0.3280
   82MOL    O7637498   2.204   4.512   1.378  0.0750  0.1036 -0.0054
   82MOL    C7737499   2.292   4.733   1.383  0.0097  0.1704  0.6379
   82MOL    C7837500   2.316   4.847   1.461 -0.3818 -0.3906  0.2947
   82MOL    C7937501   2.368   4.968   1.404 -0.2701 -0.3813  0.4954
   82MOL    C8037502   2.396   4.966   1.262 -0.3450  0.5371 -0.3088
   82MOL    C8137503   2.446   5.089   1.195 -0.0229 -0.0543  0.2950
   82MOL    O8237504   2.445   5.200   1.244 -0.5709  0.5402 -0.3485
   82MOL    O8337505   2.498   5.067   1.068  0.4117 -0.2034 -0.0026
   82MOL    C8437506   2.372   4.847   1.185 -0.1825 -0.0893  0.8140
   82MOL    C8537507   2.326   4.729   1.245 -0.3650  0.5781  0.1398
   82MOL    H8637508   2.409   4.432   1.680  0.3452 -0.6764  0.6088
   82MOL    H8737509   2.283   4.325   1.736 -0.2825  0.0791  0.1722
   82MOL    H8837510   2.115   4.534   1.707 -0.5641 -3.1358  0.3505
   82MOL    H8937511   2.159   4.420   1.580  1.0378 -1.0962  0.8630
   82MOL    H9037512   2.298   4.840   1.567 -0.1756 -1.4094  0.2668
   82MOL    H9137513   2.389   5.053   1.467 -0.0210  1.6320 -2.1927
   82MOL    H9237514   2.393   4.841   1.079  1.5040  0.6005  1.0987
   82MOL    H9337515   2.333   4.638   1.188  2.2411  0.2858  0.8484
   82MOL    O9437516   2.531   5.194   0.992 -0.4307 -0.3411 -0.6442
   82MOL    C9537517   2.433   5.208   0.892 -0.9792  0.5228 -0.2164
   82MOL    C9637518   2.454   5.101   0.779  0.3487  0.3621  0.7820
   82MOL    O9737519   2.572   5.139   0.700 -0.1224 -0.3315  0.2918
   82MOL    C9837520   2.561   5.237   0.607  0.7819  0.3236  0.4441
   82MOL    O9937521   2.455   5.300   0.590 -0.4665  0.4988  0.3145
   82MOL   C10037522   2.694   5.255   0.535  0.0785  1.0219  0.4709
   82MOL   C10137523   2.694   5.315   0.407 -0.1486 -0.3585  0.4574
   82MOL   C10237524   2.814   5.326   0.339  0.0503  0.7320 -0.1757
   82MOL   C10337525   2.939   5.320   0.405 -0.4236 -0.3827  0.5472
   82MOL   C10437526   3.065   5.359   0.332 -0.1863  0.0153 -0.1465
   82MOL   O10537527   3.176   5.304   0.351  0.0116  0.8776 -0.0598
   82MOL   O10637528   3.040   5.465   0.248  0.2166 -0.0040 -0.5866
   82MOL   C10737529   2.937   5.264   0.537 -0.4932 -0.2888 -0.1623
   82MOL   C10837530   2.816   5.231   0.604  0.1259  0.4509  0.5450
   82MOL   H10937531   2.333   5.201   0.933 -1.3906  1.5262 -1.0387
   82MOL   H11037532   2.446   5.307   0.847  0.2181 -0.3566 -1.9022
   82MOL   H11137533   2.360   5.097   0.723  0.7942  0.8489 -0.0115
   82MOL   H11237534   2.480   5.005   0.823  1.0760 -1.3254 -3.0961
   82MOL   H11337535   2.607   5.350   0.353  1.8300  3.5746 -0.3678
   82MOL   H11437536   2.807   5.358   0.236 -0.9340 -0.1219 -0.3840
   82MOL   H11537537   3.024   5.251   0.600 -0.4647 -0.8125 -0.3106
   82MOL   H11637538   2.820   5.202   0.708  0.8423  0.8658  0.6293
   82MOL   O11737539   3.133   5.487   0.131 -0.6145 -0.3833  0.2413
   82MOL   C11837540   3.064   5.478   0.013 -0.1992 -0.6238 -0.5189
   82MOL   C11937541   2.976   5.603   8.268  0.1747 -0.5688 -0.2221
   82MOL   O12037542   2.863   5.620   0.074 -0.1393  0.4253 -0.1287
   82MOL   C12137543   2.752   5.564   0.033 -0.4939  0.3864  0.6211
   82MOL   O12237544   2.736   5.502   8.207  0.1333 -0.6514 -0.2143
   82MOL   C12337545   2.639   5.567   0.136  0.0809 -0.7447 -0.5432
   82MOL   C12437546   2.537   5.468   0.138 -0.1640  0.7134  0.0080
   82MOL   C12537547   2.431   5.475   0.230 -0.4508 -0.1287  0.3849
   82MOL   C12637548   2.434   5.571   0.331 -0.1004 -0.2736  0.0059
   82MOL   C12737549   2.328   5.567   0.437 -0.4568 -0.3591 -0.6338
   82MOL   O12837550   2.233   5.490   0.441  0.5558  0.0811 -0.5062
   82MOL   O12937551   2.350   5.661   0.525  0.2729 -0.0938  0.3815
   82MOL   C13037552   2.539   5.664   0.333  0.3975 -0.7380 -0.3574
   82MOL   C13137553   2.649   5.659   0.251  0.6368 -0.5117 -0.3573
   82MOL   H13237554   3.127   5.469   8.199  0.3206  0.8326 -0.3075
   82MOL   H13337555   3.008   5.385   0.016 -0.4799 -0.3955  3.3802
   82MOL   H13437556   2.948   5.606   8.162 -1.2211 -0.6917  0.1344
   82MOL   H13537557   3.039   5.686   0.023  0.8133 -1.6488  1.4994
   82MOL   H13637558   2.547   5.386   0.068 -1.0427  1.0761 -0.5434
   82MOL   H13737559   2.362   5.392   0.236 -0.1160 -0.5254 -1.2254
   82MOL   H13837560   2.543   5.738   0.411  0.1103 -1.5580  0.4439
   82MOL   H13937561   2.729   5.732   0.255  1.0447 -0.8674 -1.5881
   82MOL   O14037562   2.234   5.688   0.617  0.1284 -0.1127  0.0798
   82MOL   C14137563   2.261   5.619   0.738 -0.1677  0.0888  0.3870
   82MOL   C14237564   2.154   5.641   0.847  0.5144  0.3112  0.6050
   82MOL   O14337565   2.172   5.586   0.971 -0.5400 -0.4811 -0.0431
   82MOL   C14437566   2.078   5.616   1.072 -0.0169  0.2788  0.1159
   82MOL   O14537567   1.976   5.682   1.049  0.4053  0.5003 -0.6512
   82MOL   C14637568   2.121   5.554   1.203  0.1854  0.2193  0.9603
   82MOL   C14737569   2.026   5.559   1.308  0.0889  0.8413 -0.3080
   82MOL   C14837570   2.057   5.505   1.433  0.3249  0.4316  0.3454
   82MOL   C14937571   2.183   5.458   1.462  0.2509 -0.3855  0.7821
   82MOL   C15037572   2.212   5.418   1.603 -0.4240  0.4501 -0.7447
   82MOL   O15137573   2.303   5.342   1.640 -0.3761  0.7418  0.3978
   82MOL   O15237574   2.138   5.480   1.688  0.3631 -0.5669 -0.6816
   82MOL   C15337575   2.275   5.444   1.358 -0.2466 -0.3319 -0.4547
   82MOL   C15437576   2.246   5.490   1.226 -0.2409 -0.4424  0.3061
   82MOL   H15537577   2.273   5.511   0.735 -2.5053 -0.3610  3.9129
   82MOL   H15637578   2.354   5.658   0.781 -1.8630  2.1306  2.3386
   82MOL   H15737579   2.064   5.592   0.810  1.0369 -0.2805  0.1179
   82MOL   H15837580   2.132   5.748   0.846 -1.2638 -0.0550 -1.3892
   82MOL   H15937581   1.932   5.609   1.290 -1.2382 -0.7820  1.9130
   82MOL   H16037582   1.986   5.514   1.514  1.1705  0.3555  1.1005
   82MOL   H16137583   2.376   5.415   1.383  1.1326  2.2210 -2.8090
   82MOL   H16237584   2.319   5.467   1.150  1.4759  2.1853  1.0721
   82MOL   O16337585   2.152   5.439   1.841  0.3149 -0.2111 -0.4273
   82MOL   C16437586   2.240   5.539   1.893  0.7256  0.2185  0.5144
   82MOL   C16537587   2.205   5.551   2.040 -0.3363 -0.0078  0.0603
   82MOL   O16637588   2.263   5.668   2.086  0.0449 -0.4810  0.8091
   82MOL   C16737589   2.242   5.697   2.220 -1.0916 -0.2191 -0.1310
   82MOL   O16837590   2.195   5.624   2.307 -0.4026  0.4158  0.4123
   82MOL   C16937591   2.305   5.830   2.255 -0.5558  0.1982 -0.2875
   82MOL   C17037592   2.403   5.884   2.171 -0.0877 -0.4720  0.1817
   82MOL   C17137593   2.479   5.993   2.206  0.2356  0.5686 -0.1237
   82MOL   C17237594   2.457   6.053   2.333  0.0208  0.2031 -0.3193
   82MOL   C17337595   2.537   6.172   2.360 -0.3056 -0.0746  0.5210
   82MOL   O17437596   2.614   6.225   2.286  0.4017 -0.1139 -0.0427
   82MOL   O17537597   2.505   6.238   2.477  0.4494 -0.0024  0.2630
   82MOL   C17637598   2.349   6.007   2.416  0.4696  0.2360 -0.3081
   82MOL   C17737599   2.281   5.891   2.381 -0.2968  0.8767 -0.2110
   82MOL   H17837600   2.342   5.502   1.887  0.5468 -0.0639 -0.9024
   82MOL   H17937601   2.221   5.639   1.856  0.7775  0.0375  0.0030
   82MOL   H18037602   2.244   5.466   2.096 -1.1995 -1.0800 -0.9362
   82MOL   H18137603   2.097   5.546   2.046 -0.6071 -0.1017 -3.6344
   82MOL   H18237604   2.421   5.833   2.077 -2.6003 -3.8313  1.4167
   82MOL   H18337605   2.554   6.028   2.136 -0.6433  0.2806 -1.2353
   82MOL   H18437606   2.314   6.069   2.497 -1.0427  0.4686 -1.1059
   82MOL   H18537607   2.211   5.850   2.451  0.5162 -2.4519 -1.2150
   82MOL   O18637608   2.556   6.373   2.492 -0.1341 -0.3883  0.2731
   82MOL   C18737609   2.667   6.365   2.573 -0.1923 -0.1436 -0.0115
   82MOL   C18837610   2.645   6.293   2.705  0.2135 -0.6120  0.8475
   82MOL   O18937611   2.535   6.343   2.778  0.0437 -0.2456 -0.2038
   82MOL   C19037612   2.413   6.288   2.785 -0.7908  0.2368  0.2794
   82MOL   O19137613   2.373   6.184   2.733  0.2881  0.3474  0.1016
   82MOL   C19237614   2.331   6.358   2.883  0.4760  0.0414 -0.4907
   82MOL   C19337615   2.345   6.494   2.886 -0.1140 -0.7299 -0.5379
   82MOL   C19437616   2.257   6.560   2.980 -0.2776  0.3079  0.4642
   82MOL   C19537617   2.166   6.494   3.060  0.1595  0.5211  0.2182
   82MOL   C19637618   2.072   6.575   3.139 -0.7684  0.9147 -0.3180
   82MOL   O19737619   2.109   6.681   3.185 -0.0112  0.3035 -0.1193
   82MOL   O19837620   1.951   6.520   3.148  0.2056 -0.1687 -0.0909
   82MOL   C19937621   2.150   6.354   3.050 -0.9601 -0.1230  0.1743
   82MOL   C20037622   2.239   6.290   2.963 -0.3995 -0.2296  0.3565
   82MOL   H20137623   2.735   6.319   2.501 -0.7861  1.2573 -1.4903
   82MOL   H20237624   2.703   6.467   2.582 -1.1205  0.1969 -0.1635
   82MOL   H20337625   2.728   6.313   2.773 -1.9165  1.6706  2.8913
   82MOL   H20437626   2.627   6.189   2.678 -0.9238 -1.1600  3.5593
   82MOL   H20537627   2.402   6.558   2.821  2.0745 -1.2863  0.7863
   82MOL   H20637628   2.248   6.667   2.991  1.0814  0.5701 -0.8456
   82MOL   H20737629   2.080   6.301   3.113  0.3580 -1.7580  0.2915
   82MOL   H20837630   2.232   6.183   2.948  0.1806 -0.5600  2.2659
   82MOL   O20937631   1.878   6.575   3.263 -0.4454 -0.0012  0.2491
   82MOL   C21037632   1.884   6.475   3.368  0.4227  0.3436 -0.0170
   82MOL   C21137633   2.024   6.475   3.450  0.2477 -1.0705 -0.4481
   82MOL   O21237634   2.097   6.361   3.411  0.3247  0.0100  0.2129
   82MOL   C21337635   2.211   6.335   3.472  0.3997  0.6218  0.6750
   82MOL   O21437636   2.269   6.411   3.548  0.1946  0.3299 -0.3618
   82MOL   C21537637   2.269   6.206   3.423 -0.4150 -0.9616 -0.5244
   82MOL   C21637638   2.386   6.162   3.489 -0.6782 -1.5588  0.9073
   82MOL   C21737639   2.456   6.044   3.450 -0.0184  0.7014 -0.2546
   82MOL   C21837640   2.396   5.964   3.346  0.8306  0.2031  0.2395
   82MOL   C21937641   2.459   5.837   3.298  0.6611  0.1908 -0.5476
   82MOL   O22037642   2.411   5.766   3.204 -0.0403 -0.1505  0.2719
   82MOL   O22137643   2.575   5.816   3.355 -0.3774 -0.0913  0.0746
   82MOL   C22237644   2.276   5.999   3.290 -0.4037  0.2558  0.3633
   82MOL   C22337645   2.206   6.115   3.334 -1.0838 -0.1455  0.2300
   82MOL   H22437646   1.806   6.513   3.435 -1.5052 -0.2345 -1.8759
   82MOL   H22537647   1.852   6.372   3.355  0.1744  0.5210 -0.8294
   82MOL   H22637648   2.018   6.457   3.557 -1.9676 -1.6589 -0.6398
   82MOL   H22737649   2.078   6.568   3.432  2.3868 -2.4358 -1.1960
   82MOL   H22837650   2.423   6.227   3.567  0.0666 -2.4510  1.3127
   82MOL   H22937651   2.555   6.015   3.484 -0.5190 -0.8112 -0.0301
   82MOL   H23037652   2.230   5.929   3.222  0.3564  0.4986 -0.4088
   82MOL   H23137653   2.106   6.118   3.293 -0.7349 -0.9095 -0.7048
   82MOL   O23237654   2.627   5.679   3.328  0.5394  0.3325  0.7989
   82MOL   C23337655   2.710   5.685   3.211  0.3142 -0.3645 -0.0225
   82MOL   C23437656   2.829   5.590   3.239 -0.1873 -0.1765  0.1076
   82MOL   O23537657   2.893   5.636   3.354  0.2538  0.0582  0.5347
   82MOL   C23637658   3.009   5.591   3.402 -0.3240  0.5949  0.1539
   82MOL   O23737659   3.070   5.502   3.347 -0.1307  0.3804 -0.5994
   82MOL   C23837660   3.048   5.659   3.525 -0.1140 -0.6012 -0.3797
   82MOL   C23937661   3.149   5.605   3.602  0.3352  0.4889  0.5157
   82MOL   C24037662   3.186   5.668   3.717 -0.6384 -0.4035 -0.6084
   82MOL   C24137663   3.125   5.788   3.763  0.7233  0.3898  0.1280
   82MOL   C24237664   3.181   5.853   3.884 -0.4211  0.2461  0.2080
   82MOL   O24337665   3.129   5.950   3.933 -0.6612 -0.2763 -0.4049
   82MOL   O24437666   3.301   5.810   3.920  0.5305  0.5717  0.1583
   82MOL   C24537667   3.024   5.839   3.688  0.4168  0.5824  0.5082
   82MOL   C24637668   2.991   5.780   3.564 -0.1366 -0.2077  0.0187
   82MOL   H24737669   2.653   5.652   3.123  0.9728  0.2007 -0.6661
   82MOL   H24837670   2.748   5.786   3.198  2.2122 -0.9799  0.6422
   82MOL   H24937671   2.892   5.599   3.151  1.4215  1.0032  1.3453
   82MOL   H25037672   2.792   5.488   3.254  0.1311 -0.3846 -0.5193
   82MOL   H25137673   3.207   5.517   3.578  1.5687  1.2158  0.7790
   82MOL   H25237674   3.254   5.609   3.775 -0.0464  0.2371 -0.6469
   82MOL   H25337675   2.973   5.925   3.728 -0.9082 -0.0899  0.2666
   82MOL   H25437676   2.916   5.827   3.502 -0.4057 -0.2602  0.3028
   82MOL   O25537677   3.365   5.887   4.032  0.4100  0.3782 -0.3146
   82MOL   C25637678   3.460   5.981   3.977 -0.4999  0.4053 -0.2076
   82MOL   C25737679   3.397   6.122   3.946 -0.1141  1.1420  1.0773
   82MOL   O25837680   3.373   6.186   4.069  0.1439  0.4219  0.3488
   82MOL   C25937681   3.455   6.255   4.126 -0.4428 -0.3292 -0.5967
   82MOL   O26037682   3.567   6.283   4.082 -0.0112  0.0337  0.1446
   82MOL   C26137683   3.415   6.306   4.263 -0.0940  0.5658  0.8809
   82MOL   C26237684   3.470   6.433   4.305  0.0544  0.3174 -0.4744
   82MOL   C26337685   3.450   6.474   4.440  0.0322 -0.2531 -0.3595
   82MOL   C26437686   3.373   6.396   4.525 -0.2026  0.1135 -0.7108
   82MOL   C26537687   3.367   6.441   4.672 -0.7148 -1.2403  0.4748
   82MOL   O26637688   3.395   6.557   4.701  0.0983  0.1559  0.4327
   82MOL   O26737689   3.340   6.351   4.765 -0.1003 -0.2629 -0.0992
   82MOL   C26837690   3.325   6.270   4.483 -0.5724  0.1966 -0.7403
   82MOL   C26937691   3.335   6.236   4.350  0.4359  0.3752  0.1003
   82MOL   H27037692   3.540   5.991   4.050 -0.0932 -1.0673 -0.4451
   82MOL   H27137693   3.504   5.940   3.887  0.5990  0.0704  0.4831
   82MOL   H27237694   3.301   6.106   3.896  0.6305  0.2841 -0.0779
   82MOL   H27337695   3.456   6.181   3.877  0.0177 -0.0899  0.1153
   82MOL   H27437696   3.528   6.492   4.236  1.5865 -0.5951 -0.0070
   82MOL   H27537697   3.500   6.564   4.473 -1.8922  0.2541  1.2095
   82MOL   H27637698   3.260   6.219   4.552 -0.9287  2.5937  0.7595
   82MOL   H27737699   3.281   6.144   4.331 -2.5704  2.0255  0.1919
   82MOL   O27837700   3.343   6.399   4.907  0.2516 -0.0279 -0.1058
   82MOL   C27937701   3.448   6.344   4.974 -0.3508  0.0899 -0.5853
   82MOL   C28037702   3.413   6.396   5.112 -0.2287 -0.2423 -0.2058
   82MOL   O28137703   3.453   6.528   5.124  0.1504  0.1603  0.2433
   82MOL   C28237704   3.383   6.624   5.188  0.8422  0.0389 -0.0985
   82MOL   O28337705   3.275   6.594   5.249 -0.6384  0.1108 -0.0627
   82MOL   C28437706   3.444   6.760   5.176  0.6682  0.9212 -0.3567
   82MOL   C28537707   3.542   6.773   5.073  0.2204 -0.4471 -0.6465
   82MOL   C28637708   3.593   6.899   5.047 -0.8874  0.6163  0.3828
   82MOL   C28737709   3.550   7.015   5.120  0.1518  0.4964 -0.4335
   82MOL   C28837710   3.584   7.151   5.071 -0.3363 -0.3170 -0.4669
   82MOL   O28937711   3.621   7.175   4.957  0.3837  0.0551  0.4139
   82MOL   O29037712   3.559   7.243   5.161  0.2232 -0.2143  0.0979
   82MOL   C29137713   3.456   6.999   5.227  0.3045  0.1429 -0.2640
   82MOL   C29237714   3.404   6.868   5.252  0.0906  0.3528 -0.7406
   82MOL   H29337715   3.445   6.236   4.962  1.5576 -0.0332 -0.0755
   82MOL   H29437716   3.537   6.394   4.935  0.2738 -0.1800  0.4799
   82MOL   H29537717   3.463   6.336   5.189  1.8991 -0.2391 -1.5547
   82MOL   H29637718   3.310   6.370   5.139  0.4855 -1.2232  1.6724
   82MOL   H29737719   3.584   6.693   5.013 -0.1839 -1.9843  1.1023
   82MOL   H29837720   3.658   6.914   4.962 -1.9190  0.2583 -0.4808
   82MOL   H29937721   3.425   7.081   5.289 -1.1082 -0.1069 -0.6082
   82MOL   H30037722   3.324   6.858   5.324  0.1220 -1.6169 -0.9473
   82MOL   O30137723   3.591   7.376   5.107 -0.2390 -0.0302  0.1600
   82MOL   C30237724   3.683   7.432   5.199 -1.0593  0.5054 -0.1339
   82MOL   C30337725   3.619   7.444   5.336 -0.6153 -0.2605  0.3163
   82MOL   O30437726   3.524   7.550   5.330  0.5917 -0.3778 -0.0705
   82MOL   C30537727   3.491   7.621   5.443 -0.6826  0.2512  0.0738
   82MOL   O30637728   3.529   7.590   5.554 -0.0141 -0.1291 -0.0061
   82MOL   C30737729   3.402   7.732   5.418 -0.0694 -0.4304  0.6766
   82MOL   C30837730   3.336   7.755   5.289 -0.0073 -0.9203  0.8137
   82MOL   C30937731   3.246   7.860   5.277  0.1277 -0.9336 -0.1744
   82MOL   C31037732   3.213   7.937   5.391  0.1345 -0.2908  0.8982
   82MOL   C31137733   3.109   8.036   5.390  0.7212 -0.1079  0.1673
   82MOL   O31237734   3.095   8.116   5.482 -0.0579  0.0032  0.2111
   82MOL   O31337735   3.042   8.036   5.277 -0.9013  0.7567 -0.0618
   82MOL   C31437736   3.284   7.919   5.513  0.0448  0.0191 -0.2421
   82MOL   C31537737   3.376   7.815   5.527  0.4353 -0.2228 -0.9427
   82MOL   H31637738   3.773   7.371   5.205 -2.1030 -1.1927 -1.1383
   82MOL   H31737739   3.709   7.533   5.168  1.4443 -0.6217 -1.8683
   82MOL   H31837740   3.700   7.478   5.402  0.8364  1.3972 -2.2467
   82MOL   H31937741   3.575   7.354   5.378  0.1631  0.3251  2.4717
   82MOL   H32037742   3.354   7.692   5.204  0.7004 -0.6611  0.7677
   82MOL   H32137743   3.194   7.878   5.184  1.9548 -0.5623 -1.1501
   82MOL   H32237744   3.257   7.978   5.599 -0.3528 -1.0297  0.3650
   82MOL   H32337745   3.437   7.811   5.616 -1.6651  1.7912  0.6655
   82MOL   O32437746   2.959   8.151   5.267  0.0673 -0.2197 -0.0001
   82MOL   C32537747   3.023   8.242   5.181 -0.5732  0.5571  0.3376
   82MOL   C32637748   3.131   0.056   5.250 -0.2474  0.0474  0.6419
   82MOL   O32737749   3.147   0.168   5.157  0.3003  0.1638 -0.0029
   82MOL   C32837750   3.260   0.239   5.169 -0.3357  0.6662  0.3990
   82MOL   O32937751   3.339   0.227   5.267 -0.0934  0.2418 -0.0146
   82MOL   C33037752   3.257   0.350   5.075  0.4940  0.3863  0.4058
   82MOL   C33137753   3.337   0.464   5.107  0.6148 -0.7890  0.4387
   82MOL   C33237754   3.345   0.570   5.013  0.0581  0.3426 -0.9271
   82MOL   C33337755   3.277   0.552   4.888  0.1783  0.1212  0.3988
   82MOL   C33437756   3.288   0.661   4.790 -0.3752 -1.1541 -0.8731
   82MOL   O33537757   3.327   0.774   4.819 -0.2853  0.8524 -1.1053
   82MOL   O33637758   3.250   0.630   4.663  0.1611 -0.3415  0.5614
   82MOL   C33737759   3.195   0.448   4.863 -0.5263  0.4114  0.4280
   82MOL   C33837760   3.178   0.348   4.956 -0.2882  0.5489 -0.1471
   82MOL   H33937761   3.062   8.194   5.091 -0.2007  0.3455  0.6091
   82MOL   H34037762   2.942   0.029   5.143 -0.7945 -0.5880 -1.1098
   82MOL   H34137763   3.223   8.275   5.267  0.2459  0.4377 -0.6796
   82MOL   H34237764   3.102   0.093   5.349 -1.3939 -1.2638  0.8067
   82MOL   H34337765   3.391   0.475   5.200 -1.5170 -0.2147  1.6345
   82MOL   H34437766   3.403   0.657   5.035  1.6942 -0.7418 -0.8590
   82MOL   H34537767   3.134   0.439   4.775  1.0708 -1.3610 -0.5195
   82MOL   H34637768   3.114   0.266   4.928  1.2898 -0.2240 -1.6421
   82MOL   O34737769   3.272   0.736   4.560  0.4035 -0.2704  0.4734
   82MOL   C34837770   3.397   0.713   4.501 -0.4884  0.2947  0.6818
   82MOL   C34937771   3.524   0.748   4.574  0.4053 -0.4073  0.1521
   82MOL   O35037772   3.555   0.632   4.651  0.3398 -0.2110  0.7357
   82MOL   C35137773   3.646   0.645   4.746 -0.1726 -0.1121 -0.5644
   82MOL   O35237774   3.714   0.749   4.763  0.2516 -0.9506  0.4671
   82MOL   C35337775   3.664   0.515   4.813  0.2324  0.2754  0.1188
   82MOL   C35437776   3.598   0.391   4.769  0.0023  0.1101  0.2287
   82MOL   C35537777   3.604   0.278   4.852  0.4955 -0.0895 -0.2804
   82MOL   C35637778   3.682   0.283   4.981  0.0366  0.0518  0.1273
   82MOL   C35737779   3.705   0.162   5.059  0.6670  0.7914 -0.2696
   82MOL   O35837780   3.698   0.051   5.008  0.1236 -0.1666 -0.0763
   82MOL   O35937781   3.731   0.173   5.190 -0.0508  0.1771 -0.2472
   82MOL   C36037782   3.746   0.403   5.013 -0.0851 -0.4424  0.0874
   82MOL   C36137783   3.728   0.519   4.937 -0.2858 -0.6463 -0.5829
   82MOL   H36237784   3.406   0.617   4.452 -0.1439  0.9416 -0.5523
   82MOL   H36337785   3.393   0.785   4.419  2.9089  0.3824  0.5263
   82MOL   H36437786   3.519   0.842   4.630  1.5391 -1.8290  2.7287
   82MOL   H36537787   3.605   0.764   4.502  0.6604  1.4678  0.8184
   82MOL   H36637788   3.546   0.392   4.675  0.0105 -1.3450  0.1929
   82MOL   H36737789   3.548   0.190   4.827  0.7384 -0.2475 -0.2757
   82MOL   H36837790   3.805   0.416   5.102 -0.1991 -1.1124  0.2582
   82MOL   H36937791   3.775   0.612   4.965 -0.2599 -1.5781  2.6776
   82MOL   O37037792   3.770   0.046   5.269 -0.2122  0.1939  0.5690
   82MOL   C37137793   3.912   0.015   5.253  0.9235 -0.1523 -0.3751
   82MOL   C37237794   3.956   8.168   5.340 -0.2338  0.0246 -0.5323
   82MOL   O37337795   4.085   8.125   5.302  0.4804 -0.3977  0.4536
   82MOL   C37437796   4.103   8.034   5.210  0.2284  0.6073  0.1568
   82MOL   O37537797   4.007   7.980   5.161 -0.2280 -0.0618  0.0652
   82MOL   C37637798   4.244   8.008   5.184 -0.4709  0.8920  0.1266
   82MOL   C37737799   4.345   8.107   5.206  0.3130  0.0973 -0.4347
   82MOL   C37837800   4.475   8.073   5.169 -0.3876  0.1064 -0.0091
   82MOL   C37937801   4.516   7.944   5.126  0.4375 -0.1476 -0.3904
   82MOL   C38037802   4.658   7.918   5.084 -0.5063  0.3166 -0.6304
   82MOL   O38137803   4.736   8.011   5.063 -0.2456 -0.0696 -0.2485
   82MOL   O38237804   4.684   7.788   5.072 -0.7056 -0.2403  0.1381
   82MOL   C38337805   4.417   7.847   5.114  0.4018 -0.4424  0.0900
   82MOL   C38437806   4.282   7.878   5.143 -0.1093  0.1043  0.4219
   82MOL   H38537807   3.933   8.262   5.150 -0.4494 -1.0380 -0.4125
   82MOL   H38637808   3.963   0.106   5.287  0.6270  0.2113 -0.9002
   82MOL   H38737809   3.880   8.091   5.330  1.2202 -1.5045 -0.1864
   82MOL   H38837810   3.957   8.183   5.448 -0.2089 -0.4980 -0.4563
   82MOL   H38937811   4.323   8.204   5.249  0.2592  0.0069 -0.2554
   82MOL   H39037812   4.554   8.142   5.193  2.0678 -3.4842  2.8039
   82MOL   H39137813   4.442   7.763   5.052  3.5635  1.3869 -1.2522
   82MOL   H39237814   4.197   7.815   5.120  0.4082 -0.9020  1.2340
   82MOL   O39337815   4.826   7.766   5.022  0.5919 -0.5284 -0.7789
   82MOL   C39437816   4.822   7.729   4.885 -0.4516  0.1320 -0.3619
   82MOL   C39537817   4.955   7.692   4.830 -0.4589 -0.2106 -0.6632
   82MOL   O39637818   5.042   7.795   4.773 -0.2652 -0.6505  0.2924
   82MOL   C39737819   5.034   7.817   4.637 -0.0844  0.0879 -0.1388
   82MOL   O39837820   4.953   7.753   4.565 -0.3324 -0.6838 -0.7113
   82MOL   C39937821   5.125   7.918   4.583 -0.5146 -0.8446  0.2927
   82MOL   C40037822   5.238   7.966   4.655 -0.1273 -0.6033 -0.4906
   82MOL   C40137823   5.323   8.068   4.610  0.2744  0.6848  0.3140
   82MOL   C40237824   5.294   8.128   4.484  0.3311  0.6943 -0.0237
   82MOL   C40337825   5.375   8.237   4.430 -0.3657  0.2318  0.6293
   82MOL   O40437826   5.353   0.012   4.319  0.1388  0.2813 -0.3398
   82MOL   O40537827   5.470   8.275   4.508 -0.2210  0.2366  0.1692
   82MOL   C40637828   5.184   8.079   4.402 -0.6736  0.0398  0.4535
   82MOL   C40737829   5.099   7.981   4.452  0.5674  0.5544  0.5664
   82MOL   H40837830   4.749   7.649   4.872 -1.0612  0.3838  1.3601
   82MOL   H40937831   4.775   7.812   4.831 -0.2661  1.0835  0.9306
   82MOL   H41037832   4.940   7.621   4.749 -0.4180 -1.0413  0.0416
   82MOL   H41137833   5.004   7.644   4.915 -1.7213 -1.6162 -0.7196
   82MOL   H41237834   5.271   7.928   4.751 -1.3418  0.2846  0.2850
   82MOL   H41337835   5.407   8.106   4.666  1.2021  0.8596 -1.1502
   82MOL   H41437836   5.167   8.118   4.304  3.3152 -1.2070 -0.8648
   82MOL   H41537837   5.006   7.952   4.406 -0.1592  2.8310  0.5324
   82MOL   O41637838   5.507   0.144   4.481 -0.0740 -0.0272 -0.2282
   82MOL   C41737839   5.467   0.222   4.590  0.5253  0.4757  0.1625
   82MOL   C41837840   5.557   0.197   4.709  0.7066 -0.5421  0.1897
   82MOL   O41937841   5.629   0.306   4.757 -0.1530 -0.2434  0.5941
   82MOL   C42037842   5.745   0.347   4.695 -0.0989 -0.3791 -0.3312
   82MOL   O42137843   5.796   0.297   4.598 -0.0869  0.3240 -0.4472
   82MOL   C42237844   5.794   0.469   4.756 -0.3849 -0.7153  0.3481
   82MOL   C42337845   5.781   0.481   4.898 -1.3911  0.1891  0.2795
   82MOL   C42437846   5.827   0.595   4.962 -0.7155  0.4565  0.5246
   82MOL   C42537847   5.889   0.700   4.891 -0.4703  0.2571 -0.1847
   82MOL   C42637848   5.943   0.815   4.974  0.3742  0.2221 -0.0122
   82MOL   O42737849   5.915   0.825   5.093  0.0458 -0.2728 -0.6549
   82MOL   O42837850   6.008   0.912   4.905 -1.2968  0.2884  0.1693
   82MOL   C42937851   5.902   0.683   4.748  0.1150  1.0768  0.1331
   82MOL   C43037852   5.847   0.574   4.681 -0.5251  0.1483 -0.2067
   82MOL   H43137853   5.479   0.326   4.559 -0.8077  0.7535  0.5596
   82MOL   H43237854   5.366   0.205   4.629  0.3199 -2.4141 -1.4823
   82MOL   H43337855   5.628   0.115   4.699 -1.0739 -1.9081 -1.6283
   82MOL   H43437856   5.497   0.179   4.798  0.6763 -0.0227  0.2769
   82MOL   H43537857   5.743   0.400   4.959 -0.1594  0.2619  1.1583
   82MOL   H43637858   5.816   0.585   5.069  2.8086 -1.0993  0.8150
   82MOL   H43737859   5.962   0.753   4.691  0.7189 -0.6761 -1.4252
   82MOL   H43837860   5.858   0.562   4.574 -1.0012 -1.3214 -0.1028
   82MOL   O43937861   6.019   1.042   4.987  0.3103 -0.0982 -0.4910
   82MOL   C44037862   5.905   1.125   4.960  0.1181  0.1342 -0.6411
   82MOL   C44137863   5.893   1.145   4.810 -0.2381 -0.0378  1.0492
   82MOL   O44237864   6.015   1.216   4.768 -0.6793 -0.5259  0.1575
   82MOL   C44337865   6.018   1.288   4.662 -0.4183  0.5562  0.9720
   82MOL   O44437866   5.927   1.279   4.574 -0.9724  0.0742 -0.0690
   82MOL   C44537867   6.143   1.367   4.652 -0.4493  0.9839  0.4580
   82MOL   C44637868   6.241   1.369   4.756  0.1930 -0.6104 -0.1904
   82MOL   C44737869   6.366   1.441   4.744  0.1843 -0.3685 -0.8196
   82MOL   C44837870   6.376   1.535   4.635 -0.0730 -0.1880  0.3369
   82MOL   C44937871   6.487   1.640   4.634 -0.7174  0.4024  0.5807
   82MOL   O45037872   6.492   1.736   4.560 -0.1014  0.0139 -0.0953
   82MOL   O45137873   6.590   1.611   4.718 -0.0630  0.1514 -0.6315
   82MOL   C45237874   6.282   1.530   4.526  0.3367 -0.6580  0.3687
   82MOL   C45337875   6.174   1.437   4.534  0.8143 -0.4475  0.1992
   82MOL   H45437876   5.817   1.079   5.004 -0.1309  1.8510  0.7446
   82MOL   H45537877   5.910   1.226   5.001 -0.8976  0.5598 -1.5526
   82MOL   H45637878   5.802   1.200   4.789  0.4761  0.8746  0.3153
   82MOL   H45737879   5.879   1.054   4.751  0.9890  0.6577 -0.3396
   82MOL   H45837880   6.233   1.302   4.841 -0.5508  1.1974  1.2047
   82MOL   H45937881   6.436   1.434   4.826  0.5959 -0.3664 -1.1708
   82MOL   H46037882   6.288   1.598   4.442 -0.7740 -0.0565  0.7729
   82MOL   H46137883   6.103   1.430   4.453  0.3283 -1.8719  0.7545
   82MOL   H46237884   6.661   1.658   4.678  1.2671  0.5032  1.9944
   83MOL     O137885   5.924   3.682   3.382  0.9972 -0.1881 -0.1079
   83MOL     C237886   6.064   3.675   3.399  0.5518 -0.3061  0.2572
   83MOL     C337887   6.108   3.574   3.302 -0.4913 -0.5643  0.3228
   83MOL     O437888   6.246   3.560   3.290  0.2369  0.4496  0.2709
   83MOL     C537889   6.293   3.481   3.192 -0.4454  0.1906  0.9195
   83MOL     O637890   6.226   3.404   3.130  0.1582  0.1546 -0.1337
   83MOL     C737891   6.436   3.509   3.169 -0.4008 -0.4277 -0.5464
   83MOL     C837892   6.518   3.525   3.280  0.6194 -0.3393  0.7075
   83MOL     C937893   6.655   3.560   3.256 -0.7184  0.0444 -0.2729
   83MOL    C1037894   6.711   3.564   3.127  0.5999 -0.2338 -0.4432
   83MOL    C1137895   6.848   3.605   3.103  0.0660 -0.1899  0.3866
   83MOL    O1237896   6.899   3.598   2.992 -0.0209 -0.1768  0.8763
   83MOL    O1337897   6.908   3.664   3.203 -0.5819  0.1860 -0.3097
   83MOL    C1437898   6.623   3.545   3.017 -0.8496  0.3286  0.1762
   83MOL    C1537899   6.490   3.514   3.040  0.2541  0.3717 -0.7084
   83MOL    H1637900   6.098   3.777   3.382 -0.4125  0.0051  0.1540
   83MOL    H1737901   6.077   3.640   3.501  3.0125 -0.5318 -0.1153
   83MOL    H1837902   6.066   3.602   3.206  0.2089  0.1970  0.2325
   83MOL    H1937903   6.055   3.481   3.322 -2.1125  0.5245  1.1769
   83MOL    H2037904   6.480   3.515   3.381 -2.3987 -0.9816 -0.4310
   83MOL    H2137905   6.717   3.574   3.344  0.4091 -2.2094 -0.6502
   83MOL    H2237906   6.669   3.543   2.919 -1.3680  0.7866 -0.0730
   83MOL    H2337907   6.427   3.490   2.956  0.6248 -0.2974 -0.7896
   83MOL    H2437908   5.884   3.658   3.464 -1.1122 -0.2339 -1.1273
   83MOL    O2537909   7.051   3.684   3.178  0.4930  0.1222  0.1238
   83MOL    C2637910   7.122   3.559   3.204  0.1705  0.3980  0.0834
   83MOL    C2737911   7.092   3.505   3.341  0.1211 -0.0602  0.1134
   83MOL    O2837912   7.127   3.595   3.441 -0.4429 -0.0462 -0.0887
   83MOL    C2937913   7.255   3.597   3.491  0.1987  0.1028 -0.8478
   83MOL    O3037914   7.351   3.523   3.468  0.4574 -0.1112 -0.0202
   83MOL    C3137915   7.270   3.707   3.593 -0.5541 -0.4508 -0.0889
   83MOL    C3237916   7.397   3.770   3.606  0.4094  0.1435 -0.2935
   83MOL    C3337917   7.408   3.874   3.696  0.1019  0.0139 -0.3559
   83MOL    C3437918   7.301   3.927   3.762  1.0919  0.2412  0.2696
   83MOL    C3537919   7.313   4.054   3.837  0.8692  0.6255  0.5564
   83MOL    O3637920   7.220   4.099   3.902  0.9878 -0.6045 -0.3814
   83MOL    O3737921   7.434   4.122   3.832 -0.6738  0.3156 -0.2425
   83MOL    C3837922   7.174   3.866   3.747 -0.3062  0.6682 -0.5277
   83MOL    C3937923   7.160   3.760   3.666 -0.6194  0.4065  0.2407
   83MOL    H4037924   7.110   3.485   3.125 -1.2036  1.3193 -0.6020
   83MOL    H4137925   7.230   3.574   3.197  0.6083 -2.7966 -0.3600
   83MOL    H4237926   7.142   3.412   3.368  0.1755 -0.3775 -1.0449
   83MOL    H4337927   6.985   3.483   3.345  0.2200 -0.1873  2.9851
   83MOL    H4437928   7.479   3.735   3.546  0.2436 -0.4260 -0.1850
   83MOL    H4537929   7.503   3.924   3.684 -0.1003  0.2119 -1.2069
   83MOL    H4637930   7.087   3.905   3.797 -0.2642 -1.5264  1.3412
   83MOL    H4737931   7.062   3.720   3.644 -0.3393 -1.3186  1.9196
   83MOL    O4837932   7.435   4.241   3.911 -0.1107  0.3509 -0.4982
   83MOL    C4937933   7.495   4.214   4.035 -0.1193  0.1084 -0.0276
   83MOL    C5037934   7.476   4.349   4.122  0.3206 -0.0065 -0.1026
   83MOL    O5137935   7.342   4.343   4.176 -0.0115 -0.2719  0.0822
   83MOL    C5237936   7.295   4.440   4.259 -0.3478 -0.2158 -0.5465
   83MOL    O5337937   7.359   4.537   4.296  0.8980 -0.6063 -0.2333
   83MOL    C5437938   7.152   4.415   4.302  0.1845 -0.1582  0.0295
   83MOL    C5537939   7.098   4.476   4.418  0.0161  0.2014 -0.2588
   83MOL    C5637940   6.963   4.453   4.451 -0.2161 -0.5428  0.6983
   83MOL    C5737941   6.878   4.378   4.367 -0.3264  0.4734  0.4245
   83MOL    C5837942   6.733   4.360   4.402  0.1575  0.6469 -0.3086
   83MOL    O5937943   6.676   4.403   4.500  0.1305 -0.0314  0.4240
   83MOL    O6037944   6.659   4.290   4.310 -0.0302 -0.0461 -0.2066
   83MOL    C6137945   6.934   4.319   4.251  0.0044  0.2609 -0.3208
   83MOL    C6237946   7.070   4.334   4.221  0.4942 -0.5576 -0.2670
   83MOL    H6337947   7.468   4.125   4.091  1.5019 -0.2639  0.2104
   83MOL    H6437948   7.601   4.197   4.014 -0.4034 -0.3652 -1.1273
   83MOL    H6537949   7.518   4.435   4.069  1.2848  0.3138  1.1607
   83MOL    H6637950   7.536   4.337   4.212  1.1358  2.5235 -0.2482
   83MOL    H6737951   7.156   4.548   4.474  1.7199 -0.7531 -0.7389
   83MOL    H6837952   6.926   4.508   4.537 -2.1134  0.8520 -0.9534
   83MOL    H6937953   6.877   4.249   4.191 -2.1723  0.4641  1.4340
   83MOL    H7037954   7.114   4.293   4.131 -1.8471  0.0464 -1.7289
   83MOL    O7137955   6.516   4.307   4.318  0.3292  0.5673  0.3856
   83MOL    C7237956   6.481   4.422   4.241  0.3627 -0.5224  0.0059
   83MOL    C7337957   6.333   4.400   4.186  0.1017 -0.3692 -0.0262
   83MOL    O7437958   6.342   4.318   4.066  0.2881 -0.4014 -0.0739
   83MOL    C7537959   6.331   4.378   3.953 -0.3754 -0.2731 -0.0077
   83MOL    O7637960   6.310   4.500   3.933  0.0023 -0.2189  0.0578
   83MOL    C7737961   6.355   4.283   3.840 -1.0466  0.3486 -1.2007
   83MOL    C7837962   6.451   4.180   3.855  0.4857  0.5668  0.5773
   83MOL    C7937963   6.457   4.078   3.758  0.1188 -0.3216 -0.9024
   83MOL    C8037964   6.374   4.081   3.644 -0.0011  0.6297 -0.1277
   83MOL    C8137965   6.387   3.984   3.536 -0.0150  0.1269  0.0485
   83MOL    O8237966   6.307   3.963   3.444  0.4989  0.3041  0.4581
   83MOL    O8337967   6.510   3.929   3.529 -0.2800  0.4341  0.2014
   83MOL    C8437968   6.282   4.183   3.632  0.2266  0.1233 -0.1059
   83MOL    C8537969   6.266   4.281   3.726 -0.3309 -0.5102 -0.4073
   83MOL    H8637970   6.491   4.506   4.310  1.7973  0.2464 -1.1089
   83MOL    H8737971   6.544   4.454   4.158 -0.1855  1.4373  0.3173
   83MOL    H8837972   6.276   4.491   4.168  0.3717 -0.2898 -0.4926
   83MOL    H8937973   6.281   4.342   4.262  0.4023 -0.5287  0.0575
   83MOL    H9037974   6.532   4.176   3.928 -1.0103  0.6494  2.2754
   83MOL    H9137975   6.536   4.006   3.767 -0.5462 -0.8969  0.6385
   83MOL    H9237976   6.219   4.186   3.545 -1.8817 -3.4868  1.2147
   83MOL    H9337977   6.179   4.345   3.726  1.5208  2.0940  1.1129
   83MOL    O9437978   6.538   3.853   3.411  0.2224 -0.5031  0.1177
   83MOL    C9537979   6.604   3.931   3.318 -0.1716 -0.6247 -0.5014
   83MOL    C9637980   6.757   3.957   3.342  0.2028  0.1967  0.7468
   83MOL    O9737981   6.782   4.049   3.450  0.2263  0.2037 -0.1100
   83MOL    C9837982   6.895   4.069   3.512  0.1685  0.8082 -0.6760
   83MOL    O9937983   7.001   4.021   3.483 -0.0737  0.2445 -0.0562
   83MOL   C10037984   6.881   4.160   3.623  0.1821  0.0223  0.4773
   83MOL   C10137985   6.759   4.217   3.655  0.9796 -0.8184 -0.8906
   83MOL   C10237986   6.747   4.318   3.753  0.0356 -0.0434  0.0380
   83MOL   C10337987   6.862   4.366   3.819 -0.0133  0.2618 -0.5124
   83MOL   C10437988   6.852   4.480   3.914  0.4488 -0.2494  0.0828
   83MOL   O10537989   6.754   4.548   3.920 -0.2264  0.6193 -0.6497
   83MOL   O10637990   6.962   4.512   3.979  0.4909  0.0688 -0.0335
   83MOL   C10737991   6.986   4.303   3.791  0.5356 -0.9517 -0.3313
   83MOL   C10837992   6.994   4.206   3.692  0.3146  0.2323 -0.1019
   83MOL   H10937993   6.588   3.879   3.223 -0.9891  0.9951 -1.2561
   83MOL   H11037994   6.554   4.027   3.321  2.7342  0.8850  2.4798
   83MOL   H11137995   6.798   3.998   3.250  0.0341 -2.4668 -0.5509
   83MOL   H11237996   6.807   3.863   3.365 -1.0126 -0.8069 -0.6462
   83MOL   H11337997   6.674   4.172   3.607  0.1647 -1.8637  1.4476
   83MOL   H11437998   6.654   4.366   3.775 -1.5030 -2.8867 -0.0193
   83MOL   H11537999   7.068   4.323   3.858  0.1025 -0.7251  0.1313
   83MOL   H11638000   7.091   4.159   3.683  0.4537  0.5656 -0.3694
   83MOL   O11738001   6.943   4.640   4.050  0.3236  0.6710 -0.6736
   83MOL   C11838002   7.025   4.740   3.990  0.1900 -0.0130  0.9538
   83MOL   C11938003   7.176   4.704   3.999  0.0144  0.1103 -0.1676
   83MOL   O12038004   7.218   4.644   3.877  0.6137 -1.1131 -0.0530
   83MOL   C12138005   7.297   4.710   3.793 -0.1101  0.0709  0.1860
   83MOL   O12238006   7.310   4.832   3.792  0.2643  0.2437 -0.1525
   83MOL   C12338007   7.366   4.622   3.693  0.3959  0.7689 -0.6715
   83MOL   C12438008   7.361   4.477   3.709  0.3786  0.2379  0.4129
   83MOL   C12538009   7.445   4.395   3.633  0.2827 -0.8291  0.3537
   83MOL   C12638010   7.525   4.446   3.531 -0.2435  0.4600  0.7286
   83MOL   C12738011   7.613   4.348   3.455 -0.0962 -0.3191  0.3836
   83MOL   O12838012   7.597   4.228   3.467 -0.0800 -0.3667 -0.6882
   83MOL   O12938013   7.706   4.404   3.372  0.4174 -0.6420  0.7429
   83MOL   C13038014   7.519   4.588   3.502 -0.0114 -0.8132 -0.3812
   83MOL   C13138015   7.441   4.672   3.585  0.8077  0.6662  0.5569
   83MOL   H13238016   7.004   4.733   3.884 -0.2818 -0.5182  1.0768
   83MOL   H13338017   6.996   4.834   4.038 -1.5410  0.1079 -0.3025
   83MOL   H13438018   7.186   4.630   4.079 -1.3383  0.9513  0.7921
   83MOL   H13538019   7.242   4.789   4.018  1.7232 -0.9187 -1.3744
   83MOL   H13638020   7.301   4.426   3.783  1.2328  0.3669  1.2082
   83MOL   H13738021   7.439   4.288   3.649 -0.6097 -0.9183 -0.5496
   83MOL   H13838022   7.585   4.641   3.436 -2.2636  2.5259 -0.0857
   83MOL   H13938023   7.450   4.779   3.576 -0.4311  0.8282  1.1015
   83MOL   O14038024   7.784   4.306   3.288 -0.2984 -0.0424 -0.6887
   83MOL   C14138025   7.763   4.323   3.153 -0.0074 -0.1019  0.2094
   83MOL   C14238026   7.861   4.420   3.092  0.1855 -0.9896 -0.1462
   83MOL   O14338027   7.815   4.556   3.123  0.0734 -0.4611  0.6801
   83MOL   C14438028   7.778   4.654   3.025 -0.1022  0.4130 -1.0235
   83MOL   O14538029   7.792   4.633   2.905  0.1966  0.1388 -0.8539
   83MOL   C14638030   7.717   4.777   3.081 -0.1857 -0.2813  0.1865
   83MOL   C14738031   7.656   4.873   2.993 -1.0146  0.4126 -0.0051
   83MOL   C14838032   7.608   4.990   3.037  0.2683 -0.2597 -0.2139
   83MOL   C14938033   7.605   5.018   3.179 -0.1884 -0.6741 -0.5023
   83MOL   C15038034   7.540   5.147   3.235  0.0153 -0.1955  0.5460
   83MOL   O15138035   7.503   5.246   3.173  0.1615 -0.4620 -0.0750
   83MOL   O15238036   7.519   5.134   3.371  0.4530  0.3361  0.3823
   83MOL   C15338037   7.654   4.919   3.266 -0.1894 -0.0063 -0.1595
   83MOL   C15438038   7.719   4.804   3.222  0.3989  0.4593  0.7719
   83MOL   H15538039   7.786   4.226   3.109  0.4511  1.2594 -2.6829
   83MOL   H15638040   7.660   4.341   3.122  0.6382  1.2350 -1.2578
   83MOL   H15738041   7.872   4.408   2.984  0.7840 -0.7533 -0.1129
   83MOL   H15838042   7.953   4.393   3.143  0.1402  1.6336  1.4000
   83MOL   H15938043   7.647   4.847   2.888  1.6788 -2.3949  0.3659
   83MOL   H16038044   7.558   5.062   2.974 -0.7607 -0.3010  0.5502
   83MOL   H16138045   7.657   4.933   3.374  0.4934 -1.3445  0.0036
   83MOL   H16238046   7.772   4.731   3.283  0.4030  0.5733  0.9061
   83MOL   O16338047   7.472   5.251   3.455 -0.0336  0.3102 -0.3842
   83MOL   C16438048   7.332   5.245   3.477  0.4182  0.3168 -0.4111
   83MOL   C16538049   7.288   5.136   3.569  0.1198  0.0472  0.2453
   83MOL   O16638050   7.272   5.025   3.485  0.1582  0.3509  0.3451
   83MOL   C16738051   7.158   4.966   3.483  0.4274 -1.0094 -0.3421
   83MOL   O16838052   7.057   5.010   3.533 -0.0215 -0.0571 -0.1265
   83MOL   C16938053   7.171   4.835   3.422  0.0613  0.4115  0.2010
   83MOL   C17038054   7.117   4.720   3.486  0.1798  0.3756  0.0803
   83MOL   C17138055   7.138   4.590   3.438 -0.1092 -0.2300 -0.4442
   83MOL   C17238056   7.201   4.577   3.316  0.1158  0.2873 -0.1946
   83MOL   C17338057   7.225   4.439   3.257  0.7788  0.1759 -0.2213
   83MOL   O17438058   7.277   4.422   3.144 -0.4614  0.1808  0.2088
   83MOL   O17538059   7.180   4.341   3.337  0.1501  0.3628 -0.1104
   83MOL   C17638060   7.246   4.689   3.237 -0.3797  0.1935 -0.4634
   83MOL   C17738061   7.232   4.818   3.293  0.2115  0.2157 -0.2639
   83MOL   H17838062   7.306   5.341   3.521 -1.4198  0.4780 -1.7931
   83MOL   H17938063   7.285   5.238   3.379 -0.0524  2.4140 -0.3593
   83MOL   H18038064   7.198   5.168   3.622  0.0870  0.4708 -0.0571
   83MOL   H18138065   7.364   5.105   3.639 -0.6658  0.2438  1.1912
   83MOL   H18238066   7.067   4.728   3.582  3.0855  0.7685  1.6123
   83MOL   H18338067   7.092   4.512   3.498 -0.4276  1.6153  1.7500
   83MOL   H18438068   7.288   4.670   3.139  1.0665  0.2070  0.1381
   83MOL   H18538069   7.262   4.903   3.234  0.6399 -0.0130 -0.3789
   83MOL   O18638070   7.192   4.206   3.273  0.6159 -0.0254  0.0384
   83MOL   C18738071   7.321   4.148   3.312 -0.3199 -0.0403 -0.4390
   83MOL   C18838072   7.326   3.998   3.270  0.2187  0.8521 -0.3929
   83MOL   O18938073   7.453   3.945   3.291  0.1519 -0.0613 -0.0255
   83MOL   C19038074   7.487   3.844   3.224 -0.7599  1.5395 -0.8603
   83MOL   O19138075   7.420   3.775   3.148 -0.0212  0.4130 -0.7686
   83MOL   C19238076   7.633   3.814   3.254 -0.9316 -0.6699 -0.8010
   83MOL   C19338077   7.721   3.895   3.328 -0.0108 -0.3064  0.0091
   83MOL   C19438078   7.852   3.858   3.361 -1.0440  0.2920 -0.1086
   83MOL   C19538079   7.908   3.746   3.291  0.8327  0.3892  0.4531
   83MOL   C19638080   8.045   3.694   3.321  0.3332 -0.2265 -0.2332
   83MOL   O19738081   8.112   3.621   3.248  0.3668  0.5056 -0.3924
   83MOL   O19838082   8.085   3.734   3.440  0.5845 -0.2076 -0.5817
   83MOL   C19938083   7.825   3.668   3.209 -0.2369  0.1049  0.4910
   83MOL   C20038084   7.688   3.699   3.194  0.8051  0.6556 -0.0207
   83MOL   H20138085   7.403   4.196   3.257 -4.0848  3.9921 -2.8976
   83MOL   H20238086   7.341   4.151   3.419  2.6721 -1.8323 -0.8822
   83MOL   H20338087   7.294   3.991   3.166  1.1714  1.2939 -0.7207
   83MOL   H20438088   7.251   3.936   3.319  0.9258 -0.5333 -1.0604
   83MOL   H20538089   7.671   3.981   3.369 -0.5672 -0.5727 -0.1094
   83MOL   H20638090   7.904   3.921   3.433  0.8697  0.6457 -1.7466
   83MOL   H20738091   7.868   3.583   3.158 -2.5633 -0.6990 -0.1710
   83MOL   H20838092   7.629   3.643   3.123  0.9230 -2.6299  2.3601
   83MOL   O20938093   8.226   3.677   3.476 -0.9224 -0.8742  0.7475
   83MOL   C21038094   8.203   3.554   3.540  0.2102  0.3605  0.1291
   83MOL   C21138095   0.064   3.521   3.611 -0.4313  0.3784  0.4602
   83MOL   O21238096   0.100   3.616   3.713 -0.2995 -0.1022  0.4568
   83MOL   C21338097   0.063   3.584   3.839 -0.2964 -0.0367 -0.2096
   83MOL   O21438098   8.265   3.488   3.869 -0.0221 -0.0522  0.4182
   83MOL   C21538099   0.104   3.684   3.944  0.4336  0.4071  0.0670
   83MOL   C21638100   0.224   3.751   3.925 -0.2611 -0.5210 -0.2992
   83MOL   C21738101   0.271   3.842   4.027 -0.0087  0.4280 -0.5485
   83MOL   C21838102   0.196   3.861   4.144  0.7821 -0.1181 -0.1214
   83MOL   C21938103   0.239   3.957   4.242  0.3549  0.0188  0.0931
   83MOL   O22038104   0.358   3.983   4.252 -0.4675 -0.0869 -0.8747
   83MOL   O22138105   0.138   4.012   4.321 -0.4790 -0.1493  0.1079
   83MOL   C22238106   0.070   3.794   4.162 -0.8227 -0.3114 -0.4433
   83MOL   C22338107   0.022   3.710   4.058  0.0336 -0.7248  0.2298
   83MOL   H22438108   8.134   3.568   3.623 -1.4306 -0.7745 -1.0287
   83MOL   H22538109   8.165   3.477   3.474  0.0493  1.1815 -0.7516
   83MOL   H22638110   0.138   3.509   3.533  1.3570  0.5801  2.0969
   83MOL   H22738111   0.058   3.422   3.655  0.0078  1.0554  2.0880
   83MOL   H22838112   0.280   3.758   3.833  0.4355 -0.7652  0.1062
   83MOL   H22938113   0.369   3.886   4.020 -0.3612  2.1275  3.8029
   83MOL   H23038114   0.022   3.787   4.259  1.2799  0.5720  0.6967
   83MOL   H23138115   8.214   3.646   4.079  0.1282 -1.0110 -0.2745
   83MOL   O23238116   0.196   4.108   4.431  0.0698  0.0831  0.1842
   83MOL   C23338117   0.196   4.240   4.377 -0.1195  0.6890  0.7518
   83MOL   C23438118   0.318   4.308   4.440  0.7476 -0.2405  0.3078
   83MOL   O23538119   0.289   4.347   4.567 -0.2417 -0.3581 -0.0452
   83MOL   C23638120   0.241   4.462   4.591 -0.0886  0.8519 -0.3955
   83MOL   O23738121   0.206   4.548   4.508  0.0723  0.3858  0.1346
   83MOL   C23838122   0.230   4.479   4.738 -0.0651  0.6763 -0.8118
   83MOL   C23938123   0.173   4.600   4.782  0.4462 -0.2151 -0.3436
   83MOL   C24038124   0.179   4.635   4.921 -0.8621 -0.0683  0.2369
   83MOL   C24138125   0.240   4.552   5.013  0.5950 -0.4004  0.2181
   83MOL   C24238126   0.251   4.605   5.156  0.4236  0.5214  0.7208
   83MOL   O24338127   0.235   4.725   5.183  0.1038 -0.1239 -0.1803
   83MOL   O24438128   0.287   4.508   5.253 -0.2812  0.4589 -0.2957
   83MOL   C24538129   0.280   4.423   4.976  0.3036 -0.0176  0.3309
   83MOL   C24638130   0.275   4.391   4.840 -1.2890  0.1866 -0.0481
   83MOL   H24738131   0.218   4.213   4.274 -2.5560 -0.4110  0.4884
   83MOL   H24838132   0.098   4.287   4.383 -0.0847  1.6074 -4.0806
   83MOL   H24938133   0.355   4.389   4.377 -1.8895  1.4039  0.8096
   83MOL   H25038134   0.400   4.237   4.431  2.1595  1.4533 -0.4688
   83MOL   H25138135   0.135   4.672   4.712  0.2845 -2.2736 -2.4223
   83MOL   H25238136   0.138   4.728   4.956 -0.4125  0.6970 -1.2196
   83MOL   H25338137   0.313   4.350   5.048 -3.1707 -1.0232  0.9959
   83MOL   H25438138   0.306   4.297   4.795 -0.3746  0.5558 -0.1978
   83MOL   O25538139   0.298   4.558   5.390 -0.0232 -0.4151 -0.2495
   83MOL   C25638140   0.174   4.536   5.460 -0.8355  0.1031 -0.1269
   83MOL   C25738141   0.151   4.390   5.512  0.0378  0.2091 -0.8548
   83MOL   O25838142   0.232   4.384   5.629 -0.2388 -0.6596  0.1360
   83MOL   C25938143   0.179   4.415   5.743 -0.2982 -0.6177 -0.2025
   83MOL   O26038144   0.060   4.433   5.762 -0.1530 -0.7897  0.0201
   83MOL   C26138145   0.283   4.449   5.847  0.1258  0.4272  0.0751
   83MOL   C26238146   0.417   4.397   5.845 -0.2192  0.2514 -0.4203
   83MOL   C26338147   0.504   4.432   5.951 -0.4002  0.3910  0.5546
   83MOL   C26438148   0.466   4.525   6.049  0.1906 -0.2226  0.0528
   83MOL   C26538149   0.557   4.578   6.153 -0.0415  0.0816 -0.0092
   83MOL   O26638150   0.529   4.650   6.249  0.1464 -0.2890 -0.2800
   83MOL   O26738151   0.685   4.528   6.132  0.0489  0.2749  0.0151
   83MOL   C26838152   0.337   4.582   6.050  0.5741  0.3810 -0.0518
   83MOL   C26938153   0.248   4.548   5.945 -0.0013 -0.2981 -0.0108
   83MOL   H27038154   0.156   4.596   5.549 -1.8772 -0.9562  0.3965
   83MOL   H27138155   0.094   4.565   5.391 -0.4400  0.3834 -0.4686
   83MOL   H27238156   0.182   4.305   5.451  1.7261  0.4101 -0.3026
   83MOL   H27338157   0.049   4.361   5.535 -0.1047  1.0706 -0.3855
   83MOL   H27438158   0.444   4.324   5.770  0.8246  0.0442  0.1487
   83MOL   H27538159   0.602   4.387   5.953 -0.4735  0.2680  1.7592
   83MOL   H27638160   0.325   4.661   6.123 -0.6055  1.3057 -1.2507
   83MOL   H27738161   0.145   4.581   5.944 -0.2642 -1.0403  1.0104
   83MOL   O27838162   0.781   4.566   6.234 -0.5215  0.5346 -0.0780
   83MOL   C27938163   0.847   4.690   6.184  0.0575 -0.2474  0.5768
   83MOL   C28038164   0.991   4.720   6.241  0.2731  0.1912 -0.0862
   83MOL   O28138165   1.025   4.852   6.254  0.0571  0.3346  0.5080
   83MOL   C28238166   1.059   4.915   6.134 -0.1316  0.3102  0.1108
   83MOL   O28338167   1.080   4.860   6.024  0.6974  0.2880  0.1205
   83MOL   C28438168   1.055   5.065   6.155 -0.6509  0.6389  0.3511
   83MOL   C28538169   1.135   5.147   6.072  0.3875  0.5546  0.0647
   83MOL   C28638170   1.131   5.288   6.091 -0.7496  0.3377  0.4049
   83MOL   C28738171   1.062   5.345   6.201  0.1574 -0.3406  0.6838
   83MOL   C28838172   1.082   5.495   6.225 -0.2946  0.3077  1.0186
   83MOL   O28938173   1.169   5.561   6.165  0.6899  0.1710 -0.1077
   83MOL   O29038174   1.002   5.543   6.311  0.4743 -0.0601 -0.0821
   83MOL   C29138175   0.994   5.262   6.292  0.8633 -0.4934 -0.1742
   83MOL   C29238176   0.994   5.122   6.268 -0.3123  0.2340  0.3203
   83MOL   H29338177   0.855   4.689   6.075  3.4430  0.1904  0.7608
   83MOL   H29438178   0.779   4.768   6.215 -1.1079 -1.9919  2.5843
   83MOL   H29538179   1.076   4.672   6.193  0.7770  1.1227 -0.1314
   83MOL   H29638180   0.995   4.686   6.345 -0.6901  0.7149  0.1349
   83MOL   H29738181   1.192   5.104   5.991 -1.0159  1.0490 -1.2026
   83MOL   H29838182   1.195   5.346   6.026 -1.3920  1.1276  0.4654
   83MOL   H29938183   0.954   5.301   6.385  1.0618  0.8706 -0.6396
   83MOL   H30038184   0.942   5.064   6.343 -1.3159 -0.3074 -0.7673
   83MOL   O30138185   1.032   5.685   6.352  0.0251 -0.7590  1.0167
   83MOL   C30238186   1.048   5.688   6.487  0.0062 -0.1143 -1.1672
   83MOL   C30338187   1.104   5.829   6.523  0.0647  0.1780  0.0613
   83MOL   O30438188   1.011   5.923   6.481  0.2202  0.0973  0.6603
   83MOL   C30538189   0.897   5.934   6.555  0.4313 -0.1567  0.0157
   83MOL   O30638190   0.889   5.891   6.671  0.4581  0.1833 -0.0461
   83MOL   C30738191   0.796   6.033   6.500 -0.6422 -0.1547  0.0656
   83MOL   C30838192   0.807   6.076   6.362 -0.5402 -0.1053  0.0438
   83MOL   C30938193   0.730   6.183   6.313  0.3469 -0.4370 -0.5947
   83MOL   C31038194   0.639   6.239   6.405  0.5279 -0.0197  0.1258
   83MOL   C31138195   0.548   6.352   6.355 -0.2779  0.2108  0.1487
   83MOL   O31238196   0.559   6.417   6.254  0.7004 -0.0951 -0.0868
   83MOL   O31338197   0.446   6.378   6.442 -0.4017  0.3707  0.2754
   83MOL   C31438198   0.623   6.194   6.532 -0.4952  0.1800 -0.7794
   83MOL   C31538199   0.708   6.094   6.582 -0.0379  0.7666 -0.3933
   83MOL   H31638200   0.960   5.649   6.538  2.2013 -0.4431  2.5521
   83MOL   H31738201   1.126   5.616   6.511 -0.0110  0.2369 -0.0141
   83MOL   H31838202   1.204   5.829   6.480  1.5396  1.7747  3.2807
   83MOL   H31938203   1.110   5.832   6.632  1.1395  2.1168 -0.0237
   83MOL   H32038204   0.883   6.029   6.301  1.2392  0.0361  2.1016
   83MOL   H32138205   0.736   6.221   6.212  1.3567 -2.7763 -1.4364
   83MOL   H32238206   0.550   6.239   6.598 -0.5860  1.0670 -1.4753
   83MOL   H32338207   0.696   6.071   6.687  1.4392  1.1117 -0.1308
   83MOL   O32438208   0.369   6.506   6.418 -0.3538 -0.0527 -0.3239
   83MOL   C32538209   0.415   6.603   6.513 -0.4119  0.0239  0.1607
   83MOL   C32638210   0.341   6.727   6.462  0.4054 -0.5305 -0.4878
   83MOL   O32738211   0.347   6.841   6.553 -0.0042  0.2294 -0.3847
   83MOL   C32838212   0.450   6.906   6.581 -0.3653 -0.2672 -0.4069
   83MOL   O32938213   0.556   6.888   6.516 -0.1046  0.3376 -0.0391
   83MOL   C33038214   0.434   7.006   6.690 -0.3486  0.6312  0.1951
   83MOL   C33138215   0.533   7.106   6.707  0.0601 -0.1175 -0.5685
   83MOL   C33238216   0.516   7.215   6.797 -0.2226  0.2371  0.1129
   83MOL   C33338217   0.394   7.223   6.868  0.1364 -0.4704  0.0509
   83MOL   C33438218   0.361   7.344   6.950 -0.6865  0.1751  0.9276
   83MOL   O33538219   0.248   7.389   6.963 -0.3110 -0.1791 -0.0696
   83MOL   O33638220   0.464   7.408   7.002 -0.3171 -0.0257  0.5755
   83MOL   C33738221   0.301   7.121   6.858 -0.3584 -0.3709 -0.7697
   83MOL   C33838222   0.320   7.014   6.774 -0.7332  0.2070 -0.1481
   83MOL   H33938223   0.377   6.578   6.612  0.9920 -2.4017  0.1332
   83MOL   H34038224   0.522   6.616   6.529 -0.9890  1.8972  2.6892
   83MOL   H34138225   0.240   6.691   6.442 -0.2184  0.5374  0.6660
   83MOL   H34238226   0.392   6.748   6.368  2.8978 -0.0414  0.9324
   83MOL   H34338227   0.626   7.106   6.651  1.2966 -1.6934  1.4130
   83MOL   H34438228   0.593   7.291   6.799  0.1702 -0.0862 -1.9898
   83MOL   H34538229   0.214   7.129   6.921 -1.2076 -1.7048 -1.7615
   83MOL   H34638230   0.247   6.935   6.773 -2.0509  1.4191 -0.2294
   83MOL   O34738231   0.425   7.511   7.104 -0.3598  0.0813 -0.3838
   83MOL   C34838232   0.455   7.454   7.224 -0.0956 -0.2750  0.2440
   83MOL   C34938233   0.474   7.552   7.341 -0.5744  0.3089  0.2370
   83MOL   O35038234   0.571   7.654   7.321  0.0919  0.5849 -0.2945
   83MOL   C35138235   0.699   7.618   7.313  0.1814 -0.3690 -1.1035
   83MOL   O35238236   0.734   7.506   7.332 -0.0571  0.1672  0.0849
   83MOL   C35338237   0.791   7.726   7.275  0.2716  0.6639 -0.0684
   83MOL   C35438238   0.924   7.694   7.240 -0.3168  0.5103  0.0941
   83MOL   C35538239   1.011   7.793   7.189 -0.8113 -0.1955 -0.2536
   83MOL   C35638240   0.966   7.928   7.183  0.1665 -0.1681 -0.3718
   83MOL   C35738241   1.066   8.031   7.151  1.2501 -0.1640 -0.1701
   83MOL   O35838242   1.189   8.013   7.146 -0.1278 -0.0095 -0.5466
   83MOL   O35938243   1.016   8.151   7.118 -0.0572  0.2088 -0.0033
   83MOL   C36038244   0.827   7.954   7.201 -0.0143  0.1673 -0.4374
   83MOL   C36138245   0.740   7.855   7.255 -0.6372 -0.1276  0.6849
   83MOL   H36238246   0.376   7.381   7.242 -0.4487 -0.2323 -1.1002
   83MOL   H36338247   0.545   7.394   7.214 -0.6486 -1.0018 -0.4872
   83MOL   H36438248   0.509   7.497   7.428  0.3900  0.0463 -0.3134
   83MOL   H36538249   0.376   7.592   7.369 -0.8413 -0.1302 -0.0521
   83MOL   H36638250   0.941   7.587   7.237 -0.7093  0.4509 -0.0060
   83MOL   H36738251   1.114   7.766   7.172 -1.8061 -3.0957 -1.9815
   83MOL   H36838252   0.771   8.042   7.170  1.3031  1.2799  0.2866
   83MOL   H36938253   0.634   7.875   7.265 -0.9288 -1.8943  1.2712
   83MOL   O37038254   1.101   8.271   7.100  0.2444 -0.3917  0.4140
   83MOL   C37138255   1.142   0.050   7.219  0.3026 -0.4578 -0.4765
   83MOL   C37238256   1.034   0.140   7.281  0.6233  0.0127 -0.1049
   83MOL   O37338257   0.973   0.234   7.192  0.0032 -0.3235  0.8218
   83MOL   C37438258   1.036   0.350   7.167 -0.8338  0.3300  0.8998
   83MOL   O37538259   1.148   0.380   7.219 -0.1377  0.3724 -0.1222
   83MOL   C37638260   0.969   0.440   7.072  0.7596  0.0817  0.4650
   83MOL   C37738261   1.025   0.569   7.051  0.1015 -0.3157  0.9790
   83MOL   C37838262   0.974   0.654   6.956  0.4332 -0.8765 -0.1348
   83MOL   C37938263   0.857   0.616   6.887  0.2072 -0.1935  0.7880
   83MOL   C38038264   0.797   0.702   6.785 -0.4804  0.0484 -0.4738
   83MOL   O38138265   0.727   0.660   6.688  0.1041 -0.2186  0.1406
   83MOL   O38238266   0.819   0.830   6.807  0.1982  0.0476 -0.3762
   83MOL   C38338267   0.791   0.501   6.923 -0.2724  0.0376  0.5074
   83MOL   C38438268   0.843   0.410   7.012 -0.8187  0.7333 -0.5195
   83MOL   H38538269   1.174   8.245   7.285  2.9199  0.7221 -0.2632
   83MOL   H38638270   1.233   0.105   7.195  0.0212 -0.3441 -1.2816
   83MOL   H38738271   1.076   0.195   7.366 -2.2206  1.8196  0.2465
   83MOL   H38838272   0.957   0.071   7.317 -0.9330  1.6215 -0.2539
   83MOL   H38938273   1.119   0.594   7.096  0.6463  1.7923 -1.2706
   83MOL   H39038274   1.032   0.742   6.936  1.3167 -1.4227 -0.0100
   83MOL   H39138275   0.698   0.479   6.872  1.0515 -0.3712 -1.8018
   83MOL   H39238276   0.793   0.320   7.044  1.3421 -0.4501 -0.4168
   83MOL   O39338277   0.749   0.913   6.712  0.1512 -0.0613 -0.0856
   83MOL   C39438278   0.843   0.946   6.606  0.5625 -0.1960 -0.5600
   83MOL   C39538279   0.955   1.045   6.648  0.1481 -0.5538  0.2001
   83MOL   O39638280   0.914   1.177   6.666 -0.0432 -0.3395  0.2148
   83MOL   C39738281   0.877   1.228   6.788  0.6875 -0.1738  0.2905
   83MOL   O39838282   0.873   1.156   6.889  0.2750  0.0588 -0.2204
   83MOL   C39938283   0.843   1.375   6.778  0.1169  0.5902 -0.1454
   83MOL   C40038284   0.743   1.437   6.863 -0.1821  0.4219  0.7902
   83MOL   C40138285   0.700   1.575   6.843 -0.1704 -0.1721  0.2558
   83MOL   C40238286   0.743   1.648   6.730  0.1627 -0.3148  0.7156
   83MOL   C40338287   0.706   1.786   6.704 -0.0327 -0.0107  0.1627
   83MOL   O40438288   0.631   1.856   6.769 -0.3818  0.3071 -0.0433
   83MOL   O40538289   0.769   1.835   6.593 -0.1740 -0.1330 -0.0889
   83MOL   C40638290   0.832   1.577   6.640  0.0169  0.0811 -0.0452
   83MOL   C40738291   0.878   1.445   6.662  0.4506  0.1044  0.2305
   83MOL   H40838292   0.878   0.848   6.576 -1.5759 -0.5631 -1.9991
   83MOL   H40938293   0.786   0.985   6.521  0.5805  1.4619  0.1586
   83MOL   H41038294   1.035   1.051   6.574 -1.4283 -0.7549 -1.5414
   83MOL   H41138295   1.006   1.002   6.734 -1.4534 -1.4977  0.6930
   83MOL   H41238296   0.698   1.378   6.942 -0.4669  0.3442  0.5674
   83MOL   H41338297   0.632   1.617   6.916 -1.2502 -0.2918 -0.6528
   83MOL   H41438298   0.856   1.626   6.547 -0.9717  1.2050  0.2903
   83MOL   H41538299   0.951   1.407   6.592  1.2339  1.1528  0.4637
   83MOL   O41638300   0.742   1.982   6.568 -0.5275  0.0867 -0.3037
   83MOL   C41738301   0.633   1.988   6.475  0.3882 -0.7046  0.6796
   83MOL   C41838302   0.613   2.135   6.438  0.1864 -0.0074 -0.1569
   83MOL   O41938303   0.527   2.162   6.320  0.8583  0.0072  0.5555
   83MOL   C42038304   0.582   2.233   6.223 -0.0380  0.1822  0.4878
   83MOL   O42138305   0.692   2.299   6.228 -0.4673  0.1740  0.2397
   83MOL   C42238306   0.496   2.257   6.106 -0.0410 -0.6624 -0.4835
   83MOL   C42338307   0.545   2.318   5.989 -0.1751  0.2648 -0.3678
   83MOL   C42438308   0.468   2.329   5.875 -0.1227  0.0954 -0.7754
   83MOL   C42538309   0.332   2.291   5.873  0.0671 -0.2483 -0.0454
   83MOL   C42638310   0.249   2.320   5.754  0.1923 -0.6292  0.0464
   83MOL   O42738311   0.290   2.380   5.657 -0.3825  0.0086  0.2634
   83MOL   O42838312   0.117   2.277   5.758 -0.6218 -0.0024  0.8515
   83MOL   C42938313   0.273   2.240   5.992  0.6708 -0.5554  0.1370
   83MOL   C43038314   0.355   2.226   6.105 -1.1397  0.2461 -0.4761
   83MOL   H43138315   0.654   1.946   6.377  0.9598  3.0809 -0.9134
   83MOL   H43238316   0.535   1.954   6.511  0.5155  1.2268  3.0347
   83MOL   H43338317   0.701   2.199   6.429 -0.6888  1.1605 -0.5317
   83MOL   H43438318   0.561   2.184   6.521  1.8692  2.9060 -0.7452
   83MOL   H43538319   0.647   2.353   5.994  0.0636  0.0274 -2.8767
   83MOL   H43638320   0.508   2.379   5.788  1.0540 -0.8729 -0.8156
   83MOL   H43738321   0.168   2.217   5.996  0.2965  1.1760  0.6729
   83MOL   H43838322   0.308   2.187   6.195 -0.0429  1.0461  0.4593
   83MOL   O43938323   0.034   2.307   5.632  0.6080  0.2232 -0.3546
   83MOL   C44038324   8.236   2.431   5.650 -0.0747 -0.2276 -0.1901
   83MOL   C44138325   8.173   2.448   5.511  0.5759  0.8729 -0.4871
   83MOL   O44238326   8.083   2.564   5.505 -0.7878 -0.1085 -0.1539
   83MOL   C44338327   7.963   2.564   5.540  0.6926 -0.9934 -0.2497
   83MOL   O44438328   7.896   2.461   5.562 -0.8794  0.4948 -0.0508
   83MOL   C44538329   7.904   2.703   5.556  0.1779  0.0012  0.5316
   83MOL   C44638330   7.985   2.817   5.580 -0.1485  0.4825  0.2314
   83MOL   C44738331   7.934   2.939   5.617 -0.2764  0.4254  0.5059
   83MOL   C44838332   7.797   2.959   5.616  0.1771  0.8190 -0.9033
   83MOL   C44938333   7.732   3.090   5.644  0.1643  0.3904 -0.4619
   83MOL   O45038334   7.637   3.136   5.592 -0.3345  0.3425 -0.2833
   83MOL   O45138335   7.797   3.165   5.739  0.3283 -0.3814  0.5713
   83MOL   C45238336   7.710   2.847   5.586  0.5279  0.0760  0.0774
   83MOL   C45338337   7.766   2.719   5.553  0.7530  0.2289 -0.5453
   83MOL   H45438338   8.170   2.419   5.735  1.0613 -1.2405  0.5604
   83MOL   H45538339   0.035   2.507   5.674 -0.7940  0.2480  0.5402
   83MOL   H45638340   8.120   2.358   5.478  0.6376  0.4988  0.3962
   83MOL   H45738341   8.247   2.454   5.432 -0.3363  0.4151 -1.3882
   83MOL   H45838342   8.092   2.817   5.574 -0.0833  0.1424  1.3271
   83MOL   H45938343   8.001   3.019   5.645  1.8816 -1.5467  1.1527
   83MOL   H46038344   7.603   2.854   5.597  0.2126 -3.7777  0.2932
   83MOL   H46138345   7.689   2.642   5.550  0.6632  0.3140 -0.4452
   83MOL   H46238346   7.753   3.242   5.772  1.1372 -0.1923  1.2485
   84MOL     O138347   4.840   7.335   2.323  0.0538  0.3133  0.3279
   84MOL     C238348   4.718   7.410   2.319  0.5629 -0.2246 -0.1131
   84MOL     C338349   4.660   7.431   2.452  0.1266  0.4605 -0.8289
   84MOL     O438350   4.725   7.540   2.500  0.0083 -0.1126 -0.0845
   84MOL     C538351   4.799   7.531   2.617 -0.3958  0.0088 -0.3855
   84MOL     O638352   4.808   7.431   2.687 -0.3792  0.3478  0.4657
   84MOL     C738353   4.861   7.668   2.658  0.8151  0.6021 -0.2583
   84MOL     C838354   4.809   7.792   2.603  0.9007 -0.1091 -0.3357
   84MOL     C938355   4.865   7.919   2.649 -0.6693 -0.4426  0.2309
   84MOL    C1038356   4.975   7.917   2.740 -0.7157  0.0103  0.5346
   84MOL    C1138357   5.036   8.037   2.786  0.6748 -0.0423 -0.2503
   84MOL    O1238358   5.150   8.040   2.834 -0.0725 -0.1657 -0.6098
   84MOL    O1338359   4.955   8.151   2.773  0.1042 -0.5097 -0.1324
   84MOL    C1438360   5.018   7.791   2.799  0.1936 -0.4922 -0.8262
   84MOL    C1538361   4.965   7.670   2.757  0.4871 -0.2933  0.2491
   84MOL    H1638362   4.727   7.504   2.264 -0.7410  0.2558  0.4894
   84MOL    H1738363   4.657   7.335   2.268  0.4802 -0.2849  0.0764
   84MOL    H1838364   4.666   7.339   2.511 -0.1934  1.3895  0.6931
   84MOL    H1938365   4.554   7.454   2.451  0.4236  1.8771 -1.0613
   84MOL    H2038366   4.730   7.791   2.529  3.2753  0.4799 -2.9575
   84MOL    H2138367   4.836   8.009   2.597 -1.0783  1.0059  2.8774
   84MOL    H2238368   5.105   7.791   2.863  1.0168  0.5872 -1.9120
   84MOL    H2338369   4.996   7.577   2.803 -0.6718 -0.0883  1.4733
   84MOL    H2438370   4.827   7.259   2.378 -0.8957 -0.8665 -1.4945
   84MOL    O2538371   5.010   0.007   2.829  0.0105 -0.2828 -0.6635
   84MOL    C2638372   5.096   0.057   2.728 -0.0318 -0.4245 -0.2442
   84MOL    C2738373   5.162   0.193   2.772  0.1947  0.1507 -0.0963
   84MOL    O2838374   5.287   0.222   2.723 -0.0580 -0.5729  0.4689
   84MOL    C2938375   5.394   0.179   2.787 -0.4784 -0.0500  0.1651
   84MOL    O3038376   5.396   0.110   2.888 -0.2438  0.3807  0.0079
   84MOL    C3138377   5.513   0.222   2.710  0.5578 -0.2868 -0.4514
   84MOL    C3238378   5.509   0.290   2.589  0.1069  0.2362 -0.2923
   84MOL    C3338379   5.627   0.331   2.525  0.2294 -0.3431 -0.6551
   84MOL    C3438380   5.757   0.298   2.582 -0.6718  0.2236  0.1406
   84MOL    C3538381   5.888   0.346   2.532 -0.0075 -0.2653  0.6271
   84MOL    O3638382   5.990   0.284   2.552  0.9971  0.1011  0.5563
   84MOL    O3738383   5.888   0.452   2.457  0.1478 -0.3942  0.0626
   84MOL    C3838384   5.757   0.218   2.697  0.2386  0.1160 -0.1779
   84MOL    C3938385   5.638   0.190   2.770 -0.0997  0.8337  0.0062
   84MOL    H4038386   5.180   8.263   2.729  1.3240  1.1818  0.6446
   84MOL    H4138387   5.055   0.050   2.628  0.9917  0.2640 -0.7211
   84MOL    H4238388   5.158   0.197   2.880 -0.2964  1.1757 -0.1467
   84MOL    H4338389   5.085   0.266   2.748 -0.7455 -0.7708  0.0645
   84MOL    H4438390   5.416   0.294   2.534  0.4815 -2.0081 -1.1547
   84MOL    H4538391   5.622   0.392   2.437  1.0184  0.0730 -0.4123
   84MOL    H4638392   5.843   0.186   2.754 -0.8231  0.2883  1.5707
   84MOL    H4738393   5.650   0.142   2.866  1.3462 -0.8441 -0.9677
   84MOL    O4838394   6.029   0.474   2.393  0.3561 -0.3184  0.0246
   84MOL    C4938395   6.101   0.555   2.481 -0.3352  0.6244 -0.1976
   84MOL    C5038396   6.210   0.619   2.393 -0.4619  0.1086  0.0815
   84MOL    O5138397   6.232   0.753   2.436  0.5744  0.6500 -0.2402
   84MOL    C5238398   6.290   0.786   2.551 -0.1065  0.0089 -0.1379
   84MOL    O5338399   6.333   0.708   2.638  0.4736  0.1927 -0.0073
   84MOL    C5438400   6.298   0.934   2.581  0.1873  0.3224  0.1715
   84MOL    C5538401   6.312   1.018   2.473  0.6333  0.0790  0.1643
   84MOL    C5638402   6.309   1.154   2.496 -0.1306 -0.4261 -0.8711
   84MOL    C5738403   6.274   1.205   2.620 -0.1771 -0.1542 -0.1395
   84MOL    C5838404   6.247   1.352   2.652 -0.8493  0.1557 -0.1440
   84MOL    O5938405   6.230   1.388   2.770  0.5099  0.1953 -0.2142
   84MOL    O6038406   6.254   1.436   2.543 -0.4672 -0.5476 -0.6413
   84MOL    C6138407   6.261   1.116   2.731  0.0051  0.4393  0.2839
   84MOL    C6238408   6.281   0.977   2.714 -0.2328  0.3842  0.1221
   84MOL    H6338409   6.027   0.624   2.522  0.4934  0.8416  0.9640
   84MOL    H6438410   6.139   0.492   2.561  1.1082  1.5100 -0.1767
   84MOL    H6538411   6.192   0.624   2.285  1.9690  2.1277 -0.2694
   84MOL    H6638412   6.303   0.561   2.396 -0.4856 -0.0006 -0.9848
   84MOL    H6738413   6.332   0.980   2.374  0.6082 -1.9391  0.9177
   84MOL    H6838414   6.321   1.221   2.412 -0.4780  0.7419 -0.0007
   84MOL    H6938415   6.238   1.151   2.831  0.2117 -1.4981  1.0393
   84MOL    H7038416   6.261   0.910   2.797  1.6545  0.9467  1.0788
   84MOL    O7138417   6.206   1.578   2.571  0.2215  0.2954 -0.2346
   84MOL    C7238418   6.315   1.658   2.622  0.0223  0.9433 -0.2007
   84MOL    C7338419   6.260   1.789   2.677 -0.3648  0.1448  0.0519
   84MOL    O7438420   6.225   1.878   2.564  0.3857  0.4001  0.1701
   84MOL    C7538421   6.318   1.953   2.498  0.1647  0.2346 -0.1411
   84MOL    O7638422   6.426   1.973   2.544 -0.6265 -0.1276  0.3189
   84MOL    C7738423   6.271   2.008   2.374 -0.0651 -0.8464  0.3795
   84MOL    C7838424   6.325   2.125   2.319  0.3403 -0.6160 -0.6175
   84MOL    C7938425   6.265   2.185   2.208 -0.8691  0.4719 -0.0969
   84MOL    C8038426   6.158   2.127   2.141 -0.7774  0.9247 -0.0840
   84MOL    C8138427   6.093   2.185   2.022 -0.2856 -0.0216  0.6450
   84MOL    O8238428   6.019   2.128   1.941  0.3052  0.3239  0.7141
   84MOL    O8338429   6.117   2.318   2.013  0.1871  0.1507 -0.3116
   84MOL    C8438430   6.109   2.006   2.189  0.0590 -0.1915 -0.1926
   84MOL    C8538431   6.162   1.948   2.302  0.2975  0.1498  0.0267
   84MOL    H8638432   6.382   1.606   2.690 -0.0577  2.4894  1.0740
   84MOL    H8738433   6.386   1.679   2.541  2.0671 -0.0706  1.2828
   84MOL    H8838434   6.323   1.852   2.740  0.0060  1.6763 -1.8031
   84MOL    H8938435   6.174   1.767   2.740 -0.8264 -3.0782 -1.6084
   84MOL    H9038436   6.411   2.174   2.363  0.2587  0.2722 -1.4297
   84MOL    H9138437   6.300   2.278   2.164 -2.7964  0.4100 -1.8710
   84MOL    H9238438   6.012   1.974   2.153 -0.2744  0.4286  0.1271
   84MOL    H9338439   6.103   1.864   2.335 -0.7172  1.2678  1.1262
   84MOL    O9438440   6.007   2.406   1.946 -0.1407 -0.1911 -0.1853
   84MOL    C9538441   6.046   2.426   1.809 -0.1186 -0.2827 -0.4182
   84MOL    C9638442   6.141   2.547   1.802 -0.0425 -0.4213 -0.3269
   84MOL    O9738443   6.146   2.572   1.659 -0.4162  0.1331 -0.1230
   84MOL    C9838444   6.062   2.663   1.613 -0.1219  0.5767  0.0180
   84MOL    O9938445   5.991   2.738   1.689 -0.5780 -0.0209  0.1728
   84MOL   C10038446   6.059   2.682   1.467 -0.0849 -0.5571 -0.3487
   84MOL   C10138447   6.120   2.584   1.388  0.1415 -0.0009  1.2655
   84MOL   C10238448   6.118   2.594   1.247 -0.0917  0.3940  0.1042
   84MOL   C10338449   6.045   2.697   1.186  0.5045  0.1390 -0.4838
   84MOL   C10438450   6.022   2.691   1.040  0.6806  0.6909  0.7518
   84MOL   O10538451   6.017   2.585   0.968 -0.3158  0.0049  0.0422
   84MOL   O10638452   6.014   2.815   0.985 -0.3469 -0.1934  0.0405
   84MOL   C10738453   5.973   2.791   1.261  0.0765  0.6108  0.0051
   84MOL   C10838454   5.984   2.784   1.403  1.0852  0.2406  0.4200
   84MOL   H10938455   6.093   2.333   1.776  0.6752 -0.7231  1.8098
   84MOL   H11038456   5.950   2.445   1.762  0.2205  0.3049 -0.8795
   84MOL   H11138457   6.244   2.532   1.835  0.4620  0.3835 -1.5021
   84MOL   H11238458   6.090   2.612   1.873 -0.2973 -1.5499  0.5559
   84MOL   H11338459   6.180   2.507   1.435  0.4649 -1.0542 -0.8244
   84MOL   H11438460   6.163   2.517   1.185 -1.7620 -2.1577  1.9407
   84MOL   H11538461   5.918   2.873   1.217 -0.4958  1.0772  1.5501
   84MOL   H11638462   5.924   2.851   1.463  0.7439  1.7744 -1.5847
   84MOL   O11738463   5.984   2.815   0.833 -0.4561  0.2988 -0.4427
   84MOL   C11838464   5.862   2.884   0.813 -0.3230  0.0547  0.1553
   84MOL   C11938465   5.858   2.901   0.664 -0.1848 -0.2233  0.0892
   84MOL   O12038466   5.899   3.037   0.625  1.0103 -0.3055  0.1308
   84MOL   C12138467   6.021   3.077   0.638 -0.1834 -1.2759  0.6626
   84MOL   O12238468   6.112   3.004   0.676 -0.4129 -0.1652  0.3104
   84MOL   C12338469   6.048   3.218   0.583 -0.2437  0.1711  0.2471
   84MOL   C12438470   6.174   3.273   0.607  1.0883 -0.3009  0.1290
   84MOL   C12538471   6.200   3.400   0.558  0.3299 -0.6860  0.0362
   84MOL   C12638472   6.112   3.477   0.477 -0.2708  0.2100  0.7078
   84MOL   C12738473   6.163   3.591   0.402 -0.0491 -0.8352 -0.7772
   84MOL   O12838474   6.275   3.644   0.412  0.3720  0.0992  0.0665
   84MOL   O12938475   6.069   3.637   0.320  0.3703  0.7473  0.0805
   84MOL   C13038476   5.985   3.419   0.456 -0.2445 -0.1911 -0.0617
   84MOL   C13138477   5.955   3.289   0.504 -0.0075  0.1706 -0.2116
   84MOL   H13238478   5.778   2.842   0.869 -1.3337  3.5043  1.3967
   84MOL   H13338479   5.880   2.983   0.855  0.4762  0.5483 -1.3262
   84MOL   H13438480   5.755   2.885   0.632 -0.6407  1.3857  0.7194
   84MOL   H13538481   5.918   2.821   0.621 -0.2849 -0.2482 -0.0061
   84MOL   H13638482   6.248   3.223   0.668  1.7555  0.0003 -0.4280
   84MOL   H13738483   6.302   3.430   0.572  0.8375 -1.7195 -1.3264
   84MOL   H13838484   5.915   3.461   0.385 -1.0537  1.4302  1.6624
   84MOL   H13938485   5.852   3.256   0.492 -0.1123  0.6274 -0.5951
   84MOL   O14038486   6.105   3.755   0.235 -0.2907  0.2728  0.2960
   84MOL   C14138487   6.154   3.701   0.104  1.1734  0.6180  0.3286
   84MOL   C14238488   6.114   3.784   8.256  0.0627  0.2357  0.7312
   84MOL   O14338489   6.180   3.735   8.136  0.4774 -0.1139 -0.5025
   84MOL   C14438490   6.115   3.642   8.055 -0.2084 -1.1264  0.1139
   84MOL   O14538491   6.007   3.590   8.095  0.7021  0.0488 -0.2731
   84MOL   C14638492   6.178   3.620   7.920  0.0066 -0.2326 -0.1542
   84MOL   C14738493   6.311   3.670   7.904  0.0189 -0.0154 -0.0086
   84MOL   C14838494   6.375   3.665   7.774 -0.3036  0.4259 -0.7956
   84MOL   C14938495   6.315   3.596   7.667  0.0989  0.2731  0.0737
   84MOL   C15038496   6.398   3.582   7.536  0.3233 -0.9117 -0.0590
   84MOL   O15138497   6.352   3.538   7.429 -0.3078 -0.0607  0.3041
   84MOL   O15238498   6.517   3.639   7.533  0.2664  0.0255  0.6628
   84MOL   C15338499   6.181   3.543   7.688 -0.6328  0.8474 -0.0165
   84MOL   C15438500   6.115   3.559   7.812 -0.0458  0.0318 -0.0220
   84MOL   H15538501   6.261   3.681   0.106  1.1004  0.3484  1.9288
   84MOL   H15638502   6.106   3.608   0.073  0.9363  0.4075  1.3055
   84MOL   H15738503   6.147   3.887   8.266 -2.3729  1.0668  0.4334
   84MOL   H15838504   6.007   3.779   8.239  0.2354 -1.0869 -0.1053
   84MOL   H15938505   6.366   3.712   7.987 -1.4853  2.0323 -0.0310
   84MOL   H16038506   6.479   3.692   7.764 -0.2042 -0.3930 -2.0599
   84MOL   H16138507   6.123   3.511   7.603 -0.9012  2.2113 -0.3601
   84MOL   H16238508   6.017   3.518   7.832 -0.0013 -1.5675 -2.8078
   84MOL   O16338509   6.586   3.625   7.401 -0.2319  0.1833 -0.3275
   84MOL   C16438510   6.560   3.744   7.323 -0.7338  0.0135  0.1032
   84MOL   C16538511   6.576   3.874   7.404 -0.0691 -0.4417  0.1028
   84MOL   O16638512   6.455   3.905   7.474  0.5017  0.2623 -0.0606
   84MOL   C16738513   6.453   3.984   7.582 -0.2821  0.2911  0.0085
   84MOL   O16838514   6.550   4.045   7.619 -0.6163  0.1770  0.2606
   84MOL   C16938515   6.320   4.003   7.629  0.1571 -0.0972 -0.6138
   84MOL   C17038516   6.286   4.114   7.703 -0.1695 -0.6444 -0.2281
   84MOL   C17138517   6.145   4.131   7.732  0.2121  0.3061  0.0723
   84MOL   C17238518   6.049   4.032   7.707 -0.0757 -0.1600 -0.6200
   84MOL   C17338519   5.911   4.038   7.757  0.0852  0.1118 -0.6807
   84MOL   O17438520   5.872   4.126   7.833 -0.5531 -0.0387  0.1494
   84MOL   O17538521   5.846   3.932   7.728 -0.5208 -0.0212 -0.4160
   84MOL   C17638522   6.087   3.920   7.636 -0.4668  1.0509 -0.6554
   84MOL   C17738523   6.218   3.904   7.596 -0.2031 -0.6382  0.4271
   84MOL   H17838524   6.633   3.743   7.242  1.0126  2.4798  1.5597
   84MOL   H17938525   6.466   3.747   7.267 -0.0629  2.4010 -0.9863
   84MOL   H18038526   6.592   3.946   7.323 -0.0408 -1.1116 -0.4918
   84MOL   H18138527   6.664   3.881   7.467  0.0284  0.9152 -0.1623
   84MOL   H18238528   6.357   4.192   7.730  1.3109 -1.4253 -1.7250
   84MOL   H18338529   6.105   4.216   7.785 -1.8289 -0.6000  0.0388
   84MOL   H18438530   6.020   3.850   7.590  1.8006 -0.6270 -1.4483
   84MOL   H18538531   6.243   3.818   7.536 -0.9833 -0.5768  0.0140
   84MOL   O18638532   5.698   3.934   7.766 -0.4140 -0.2675 -0.2825
   84MOL   C18738533   5.624   3.941   7.647 -0.1091 -0.0807  0.7568
   84MOL   C18838534   5.484   3.871   7.680  0.2679 -0.0338  0.1285
   84MOL   O18938535   5.428   3.800   7.572 -0.8427 -0.0193  0.5416
   84MOL   C19038536   5.375   3.871   7.468 -0.1742 -0.4868 -0.1203
   84MOL   O19138537   5.382   3.992   7.454 -0.3944  0.3076 -0.0043
   84MOL   C19238538   5.300   3.777   7.372  0.5837  0.7914 -0.1113
   84MOL   C19338539   5.309   3.639   7.396  0.5010  0.3748 -0.1768
   84MOL   C19438540   5.241   3.556   7.308 -0.3460  0.3103 -0.1206
   84MOL   C19538541   5.159   3.604   7.199  0.0929 -0.3323  0.6972
   84MOL   C19638542   5.086   3.510   7.113  0.1509  0.1469  0.0762
   84MOL   O19738543   4.986   3.546   7.048 -0.3849 -0.0070  0.1143
   84MOL   O19838544   5.138   3.392   7.122 -0.2816  0.3107  0.5227
   84MOL   C19938545   5.149   3.747   7.185 -0.3880  0.7072  0.0424
   84MOL   C20038546   5.222   3.830   7.267  0.6649 -0.3777  0.1595
   84MOL   H20138547   5.615   4.045   7.615 -0.7202 -0.3106  0.1744
   84MOL   H20238548   5.666   3.877   7.569 -0.9653 -0.7719  0.8600
   84MOL   H20338549   5.408   3.942   7.715 -1.6254 -0.8291 -2.2163
   84MOL   H20438550   5.481   3.805   7.767  1.7435 -0.5229 -0.1803
   84MOL   H20538551   5.376   3.590   7.465 -0.6338  0.9695  1.3958
   84MOL   H20638552   5.252   3.449   7.324  0.4098  0.1160 -1.7940
   84MOL   H20738553   5.093   3.790   7.103 -1.2529  0.2578  0.3902
   84MOL   H20838554   5.217   3.937   7.252  1.6267 -0.2940  0.3752
   84MOL   O20938555   5.062   3.286   7.046 -1.0324  0.4620  0.0049
   84MOL   C21038556   4.973   3.217   7.135  0.0302  1.0087  0.1092
   84MOL   C21138557   5.045   3.108   7.201 -0.7511 -0.2420  0.1809
   84MOL   O21238558   5.137   3.160   7.296 -0.1152 -0.5534 -0.2039
   84MOL   C21338559   5.259   3.111   7.310  0.2261  0.8469  0.7118
   84MOL   O21438560   5.296   3.027   7.234 -0.3000 -0.4192  0.4570
   84MOL   C21538561   5.338   3.172   7.415  0.1442  0.8449 -0.4233
   84MOL   C21638562   5.279   3.264   7.503 -0.0422 -0.5338 -0.3255
   84MOL   C21738563   5.367   3.340   7.590 -0.2162 -0.5869  0.5040
   84MOL   C21838564   5.513   3.315   7.589  0.0938 -0.3777  0.5114
   84MOL   C21938565   5.591   3.397   7.685  0.0290 -0.2847 -0.1967
   84MOL   O22038566   5.551   3.503   7.733  0.0221  0.0159 -0.2588
   84MOL   O22138567   5.716   3.344   7.702  0.3556  0.4190  0.2420
   84MOL   C22238568   5.563   3.209   7.509  0.1494  0.4490  0.0479
   84MOL   C22338569   5.476   3.141   7.423 -0.3644  0.9948 -0.5324
   84MOL   H22438570   4.916   3.279   7.204 -1.7874 -0.6378  0.1380
   84MOL   H22538571   4.892   3.173   7.076  0.1488 -0.0337  0.7186
   84MOL   H22638572   5.088   3.044   7.123  0.1638  1.7548 -0.9859
   84MOL   H22738573   4.968   3.044   7.243 -1.6634  0.7201 -0.0259
   84MOL   H22838574   5.173   3.284   7.513 -0.1447  0.0363 -2.3221
   84MOL   H22938575   5.331   3.418   7.656  0.5378 -0.9110  1.3012
   84MOL   H23038576   5.669   3.186   7.507 -0.1657 -1.0325 -0.4726
   84MOL   H23138577   5.519   3.064   7.361 -0.7757  1.3425 -1.2535
   84MOL   O23238578   5.798   3.434   7.784 -0.5665 -0.3607  0.1126
   84MOL   C23338579   5.787   3.384   7.913  0.5398  0.2425  0.4319
   84MOL   C23438580   5.887   3.267   7.925  0.5814  0.0379  0.3037
   84MOL   O23538581   6.001   3.303   8.005  0.2683  0.5392  0.2383
   84MOL   C23638582   5.984   3.292   8.140  0.2555  0.4511  0.2593
   84MOL   O23738583   5.873   3.287   8.193 -0.4883  0.0274 -0.5733
   84MOL   C23838584   6.106   3.296   8.222  0.6705  0.4230  0.4100
   84MOL   C23938585   6.094   3.293   0.090 -0.0939  0.0713  0.3837
   84MOL   C24038586   6.206   3.298   0.164 -1.1302  0.0106 -0.2867
   84MOL   C24138587   6.332   3.308   0.107  0.7470  0.0992 -0.4830
   84MOL   C24238588   6.452   3.299   0.196 -0.3952  0.1879  0.5013
   84MOL   O24338589   6.564   3.283   0.151 -0.7069 -0.4143  0.1594
   84MOL   O24438590   6.423   3.329   0.325  0.3679 -0.2213 -0.1917
   84MOL   C24538591   6.349   3.321   8.243  0.6193  0.3109  0.0990
   84MOL   C24638592   6.237   3.312   8.162 -0.0073 -0.2357  0.7302
   84MOL   H24738593   5.808   3.461   7.987  1.2180  0.1619  0.3234
   84MOL   H24838594   5.687   3.350   7.940  0.6596 -1.2472 -0.9680
   84MOL   H24938595   5.924   3.254   7.823 -1.2676 -1.4446 -0.2099
   84MOL   H25038596   5.833   3.178   7.957  1.6927 -1.4542 -1.8760
   84MOL   H25138597   6.000   3.295   0.144 -0.6801 -1.1286 -0.5719
   84MOL   H25238598   6.189   3.290   0.270 -0.5483 -0.5138 -0.2276
   84MOL   H25338599   6.446   3.325   8.195  0.2924 -0.8711 -0.6927
   84MOL   H25438600   6.247   3.312   8.054  1.9227  0.0721  0.8894
   84MOL   O25538601   6.543   3.318   0.421  0.0695  0.3753  0.3739
   84MOL   C25638602   6.523   3.209   0.497  0.1110  0.5283  0.1356
   84MOL   C25738603   6.637   3.205   0.601  0.2969  0.7160  0.0245
   84MOL   O25838604   6.730   3.106   0.569 -0.6781 -0.2984  0.2121
   84MOL   C25938605   6.835   3.095   0.650 -0.1982  0.0193 -0.0342
   84MOL   O26038606   6.868   3.161   0.754  0.3954 -0.0438  0.0983
   84MOL   C26138607   6.922   2.986   0.597 -0.0194  0.2270  0.0948
   84MOL   C26238608   6.881   2.910   0.480 -0.5195  0.2210  0.2226
   84MOL   C26338609   6.954   2.812   0.422 -0.4011 -0.3389  0.3005
   84MOL   C26438610   7.085   2.788   0.476 -0.4613  0.0340  0.2605
   84MOL   C26538611   7.168   2.688   0.415  0.9144  0.1445 -0.3736
   84MOL   O26638612   7.263   2.634   0.468 -0.2969  0.7498  0.1345
   84MOL   O26738613   7.143   2.661   0.288 -0.3163  0.2861  0.1761
   84MOL   C26838614   7.126   2.862   0.592  0.1771 -0.0831  0.1729
   84MOL   C26938615   7.039   2.953   0.657  0.5488 -0.1717  0.5748
   84MOL   H27038616   6.432   3.219   0.556 -1.0256  1.8647 -1.7980
   84MOL   H27138617   6.510   3.122   0.433 -0.4991  1.9966 -1.8009
   84MOL   H27238618   6.585   3.166   0.688 -0.4150 -1.9978 -1.5574
   84MOL   H27338619   6.670   3.303   0.636  3.1248  0.4487 -1.7034
   84MOL   H27438620   6.781   2.933   0.446 -0.6461  0.2977  0.6427
   84MOL   H27538621   6.915   2.773   0.329  2.6827  0.2361 -1.3106
   84MOL   H27638622   7.222   2.832   0.631  0.6805  1.8698  0.4904
   84MOL   H27738623   7.066   3.001   0.749 -0.7549  0.8131  0.4531
   84MOL   O27838624   7.240   2.566   0.222 -0.3588  0.0293  0.0133
   84MOL   C27938625   7.167   2.446   0.204 -0.0686 -0.3147 -0.3649
   84MOL   C28038626   7.254   2.337   0.142 -0.5414 -0.7532 -0.6955
   84MOL   O28138627   7.274   2.357   8.272 -0.4727 -0.6084  0.1775
   84MOL   C28238628   7.371   2.287   8.212 -0.3579 -0.0190  0.4849
   84MOL   O28338629   7.439   2.198   8.270 -0.0821 -0.0654 -0.3144
   84MOL   C28438630   7.388   2.318   8.069  0.0296 -0.0008  0.1109
   84MOL   C28538631   7.499   2.284   7.995  0.2603  0.1526  0.4814
   84MOL   C28638632   7.527   2.352   7.871  0.0239  0.2213  0.0689
   84MOL   C28738633   7.443   2.450   7.824 -0.3937 -0.1733 -0.6106
   84MOL   C28838634   7.483   2.528   7.700 -0.0458 -0.3382 -0.1683
   84MOL   O28938635   7.577   2.502   7.623 -0.2668  0.4004 -0.0416
   84MOL   O29038636   7.415   2.646   7.696 -0.2426 -0.2115 -0.2579
   84MOL   C29138637   7.318   2.479   7.888  0.4550 -0.4401 -0.7184
   84MOL   C29238638   7.292   2.413   8.012  0.1423  0.4309 -0.3270
   84MOL   H29338639   7.132   2.402   0.298  0.3961 -1.1237 -0.5702
   84MOL   H29438640   7.080   2.471   0.144  0.6354  0.5214 -1.0545
   84MOL   H29538641   7.210   2.239   0.159 -1.7932 -0.7191 -3.5437
   84MOL   H29638642   7.349   2.333   0.196 -0.6038  0.4983 -0.4844
   84MOL   H29738643   7.566   2.212   8.039  1.0222 -0.7706 -2.1405
   84MOL   H29838644   7.619   2.331   7.818 -0.3707 -1.2830 -0.0630
   84MOL   H29938645   7.248   2.556   7.861 -0.6269 -1.6350 -1.4101
   84MOL   H30038646   7.211   2.453   8.071 -1.8652 -1.6248 -1.6402
   84MOL   O30138647   7.451   2.726   7.575  0.0904  0.2212  0.0069
   84MOL   C30238648   7.358   2.713   7.479  0.3499  0.5192 -0.2362
   84MOL   C30338649   7.254   2.828   7.489  0.5959  0.0567 -0.2753
   84MOL   O30438650   7.292   2.945   7.414  0.0554 -0.3516  0.0456
   84MOL   C30538651   7.220   3.055   7.430 -0.0055 -0.2603  0.1159
   84MOL   O30638652   7.113   3.054   7.490  0.7086 -0.3638  0.2952
   84MOL   C30738653   7.280   3.162   7.344 -0.0541 -0.2363 -0.2763
   84MOL   C30838654   7.208   3.281   7.304 -0.9220  0.2628  0.1070
   84MOL   C30938655   7.268   3.386   7.241  0.1239 -0.2508 -0.9279
   84MOL   C31038656   7.405   3.376   7.206 -0.5953 -0.4582 -0.2536
   84MOL   C31138657   7.469   3.490   7.134  0.0360  0.0323  0.5572
   84MOL   O31238658   7.406   3.595   7.108 -0.0113 -0.1323  0.7144
   84MOL   O31338659   7.592   3.468   7.090  0.0685  0.0397  0.8973
   84MOL   C31438660   7.473   3.251   7.228 -0.8373  0.0859  0.3371
   84MOL   C31538661   7.406   3.146   7.285 -0.0413 -0.4439 -0.0648
   84MOL   H31638662   7.397   2.733   7.379  1.8510  2.2740  0.6807
   84MOL   H31738663   7.298   2.621   7.478  2.2398 -0.8745  3.9357
   84MOL   H31838664   7.242   2.854   7.594 -0.2817  0.3727 -0.4476
   84MOL   H31938665   7.159   2.790   7.450 -0.7865  0.7566  2.2438
   84MOL   H32038666   7.108   3.293   7.343 -1.4270 -2.0448 -0.4349
   84MOL   H32138667   7.209   3.471   7.209 -0.5224 -0.2175  0.2964
   84MOL   H32238668   7.574   3.235   7.191 -0.6427 -0.5035  1.1129
   84MOL   H32338669   7.465   3.055   7.291 -0.7111 -1.0664 -2.2952
   84MOL   O32438670   7.647   3.565   6.984 -0.2341 -0.2577 -0.4275
   84MOL   C32538671   7.616   3.507   6.861  0.5699  0.2826 -0.7160
   84MOL   C32638672   7.693   3.585   6.751 -0.1639 -0.6547  0.0372
   84MOL   O32738673   7.620   3.693   6.693 -0.1588 -0.1957 -0.5525
   84MOL   C32838674   7.680   3.778   6.605 -0.3922 -0.3915  0.2115
   84MOL   O32938675   7.801   3.781   6.582  0.7212  0.8232 -0.3089
   84MOL   C33038676   7.589   3.890   6.551 -0.8085 -0.2619 -0.3930
   84MOL   C33138677   7.466   3.914   6.605 -0.0655 -0.2688 -0.3391
   84MOL   C33238678   7.389   4.024   6.562 -0.1756  0.2842 -0.5359
   84MOL   C33338679   7.423   4.105   6.453  0.1664 -0.0624 -0.5443
   84MOL   C33438680   7.348   4.228   6.412  0.2558  0.3596 -0.0357
   84MOL   O33538681   7.354   4.276   6.301  0.1237 -0.0214  0.2851
   84MOL   O33638682   7.250   4.275   6.495  0.2416 -0.2515 -0.4841
   84MOL   C33738683   7.532   4.052   6.379 -0.4180 -0.4132  0.2396
   84MOL   C33838684   7.621   3.959   6.430 -0.3332 -0.6707  0.0051
   84MOL   H33938685   7.642   3.402   6.875  0.2182  0.2847 -0.0402
   84MOL   H34038686   7.509   3.509   6.841  0.2963 -0.5894  0.6016
   84MOL   H34138687   7.715   3.516   6.669 -0.8662  2.1288 -2.5736
   84MOL   H34238688   7.791   3.620   6.782 -0.3538  0.1455 -0.2614
   84MOL   H34338689   7.444   3.853   6.691  1.4423 -1.9964 -1.1484
   84MOL   H34438690   7.294   4.034   6.614 -0.0742 -0.3932 -0.2222
   84MOL   H34538691   7.567   4.102   6.290 -2.2278  0.1744 -0.1571
   84MOL   H34638692   7.710   3.942   6.371 -1.4771 -2.0843 -1.3261
   84MOL   O34738693   7.285   4.284   6.646  0.2962 -0.4762  0.7086
   84MOL   C34838694   7.227   4.401   6.699  0.1284 -0.4387  0.3648
   84MOL   C34938695   7.249   4.420   6.842 -0.8401 -0.2627 -0.0393
   84MOL   O35038696   7.376   4.472   6.862 -0.0311 -0.1817  0.5466
   84MOL   C35138697   7.471   4.402   6.922 -0.2784 -0.6539 -0.0751
   84MOL   O35238698   7.454   4.296   6.986  0.7817 -0.1772  0.2865
   84MOL   C35338699   7.607   4.462   6.921 -1.0040 -0.5953  0.8148
   84MOL   C35438700   7.630   4.602   6.902 -0.7411 -0.0706 -0.3486
   84MOL   C35538701   7.764   4.658   6.889 -0.1629  0.6355  0.5685
   84MOL   C35638702   7.874   4.575   6.909  0.1336 -0.0599 -0.5005
   84MOL   C35738703   8.017   4.617   6.888 -0.0373 -0.2749 -0.3814
   84MOL   O35838704   8.115   4.537   6.898  0.3845  0.5944 -0.1890
   84MOL   O35938705   8.027   4.755   6.870  0.0044  0.3123 -0.5312
   84MOL   C36038706   7.855   4.441   6.951  0.2432  1.2458 -0.5529
   84MOL   C36138707   7.725   4.382   6.957  0.8840  1.1464  0.6261
   84MOL   H36238708   7.250   4.493   6.646 -1.0108 -1.4216 -1.8952
   84MOL   H36338709   7.121   4.381   6.681  0.7198 -0.8053 -3.0999
   84MOL   H36438710   7.236   4.333   6.906 -1.5044  0.2556  0.5396
   84MOL   H36538711   7.186   4.493   6.892 -0.1274 -0.6696  1.4580
   84MOL   H36638712   7.546   4.670   6.896 -1.3092 -0.8691 -1.7644
   84MOL   H36738713   7.775   4.765   6.880  0.0045  0.5151 -0.7053
   84MOL   H36838714   7.947   4.389   6.975 -0.1601  1.1057  0.7130
   84MOL   H36938715   7.701   4.280   6.984 -0.3933  1.0199 -0.9020
   84MOL   O37038716   8.161   4.797   6.820  0.2262  0.2753  0.1313
   84MOL   C37138717   8.230   4.857   6.938  0.4298 -0.1381  0.1256
   84MOL   C37238718   0.082   4.918   6.879  0.0802 -0.1838  0.4383
   84MOL   O37338719   0.176   4.948   6.979  0.0345  0.2079  0.1801
   84MOL   C37438720   0.166   5.063   7.046  0.2684  0.4921  0.4650
   84MOL   O37538721   0.082   5.148   7.027 -0.0725 -0.7593 -0.3626
   84MOL   C37638722   0.271   5.072   7.153 -0.1337 -0.2392 -0.7609
   84MOL   C37738723   0.380   4.982   7.155  0.5662 -0.1002  0.4770
   84MOL   C37838724   0.482   4.990   7.256  0.0048  0.2253  0.2774
   84MOL   C37938725   0.478   5.094   7.352  0.8785 -0.2719  0.1840
   84MOL   C38038726   0.585   5.107   7.456  0.6125  0.5857  1.0004
   84MOL   O38138727   0.608   5.210   7.523 -0.4931 -0.8852  0.4956
   84MOL   O38238728   0.650   4.995   7.469 -0.2935  0.1772  0.1136
   84MOL   C38338729   0.377   5.198   7.342  0.7100  0.7931 -0.5599
   84MOL   C38438730   0.276   5.182   7.243  0.5971  0.4605  0.1566
   84MOL   H38538731   8.167   4.933   6.985 -2.8256 -1.9996 -1.1127
   84MOL   H38638732   8.243   4.784   7.018 -1.0466  0.1397  0.6451
   84MOL   H38738733   0.059   5.006   6.820  1.6436  0.1955  0.3785
   84MOL   H38838734   0.135   4.849   6.813  0.6527  2.3330 -1.7895
   84MOL   H38938735   0.388   4.892   7.095  1.3495  0.1616  0.1815
   84MOL   H39038736   0.563   4.920   7.247 -0.9702 -0.9888  0.8216
   84MOL   H39138737   0.370   5.285   7.405  2.1693 -1.4211  2.8157
   84MOL   H39238738   0.199   5.258   7.239 -0.3809 -0.3841  2.4526
   84MOL   O39338739   0.778   4.999   7.555  0.1775 -0.5322  0.0764
   84MOL   C39438740   0.878   5.000   7.456  0.0260 -0.2309 -0.1285
   84MOL   C39538741   1.006   5.052   7.515 -0.9316 -0.5361 -0.2458
   84MOL   O39638742   1.124   5.024   7.433  0.6393 -0.1734 -0.9008
   84MOL   C39738743   1.241   5.031   7.492 -0.2549 -0.2194 -0.4645
   84MOL   O39838744   1.260   5.036   7.612  0.1955  0.0409 -0.7051
   84MOL   C39938745   1.356   5.027   7.395  0.1720 -0.0187 -0.5962
   84MOL   C40038746   1.330   5.016   7.262  0.2901 -0.1540  0.0860
   84MOL   C40138747   1.443   5.001   7.176 -0.0815  0.1889  0.0849
   84MOL   C40238748   1.572   4.988   7.219 -0.0515  0.2193  0.3054
   84MOL   C40338749   1.682   4.963   7.119  0.4431  0.3730 -0.7356
   84MOL   O40438750   1.788   4.901   7.129  0.1802  0.2374  1.0382
   84MOL   O40538751   1.652   5.018   6.998 -0.1829  0.0848 -0.4324
   84MOL   C40638752   1.597   5.002   7.355  0.3477  0.6389  0.7136
   84MOL   C40738753   1.488   5.027   7.443  0.2050  0.3409  0.1377
   84MOL   H40838754   0.887   4.898   7.421  1.9409 -0.3582  0.6577
   84MOL   H40938755   0.857   5.068   7.374 -1.3460  0.2893  0.6229
   84MOL   H41038756   1.021   5.001   7.610  0.7894  1.0707  0.3844
   84MOL   H41138757   0.993   5.156   7.547  0.2721 -0.9877  1.7539
   84MOL   H41238758   1.231   5.028   7.220  1.2112 -0.0799 -2.1666
   84MOL   H41338759   1.421   4.990   7.071  0.5970  0.3858 -0.0732
   84MOL   H41438760   1.695   5.010   7.400  0.5004  0.3314  0.4336
   84MOL   H41538761   1.497   5.019   7.551 -0.4317 -2.0535  0.0299
   84MOL   O41638762   1.743   4.980   6.884  0.3726 -0.3857  0.2306
   84MOL   C41738763   1.694   4.872   6.813  0.6187 -0.1080  0.2960
   84MOL   C41838764   1.571   4.900   6.728 -0.0121 -0.3907  0.1624
   84MOL   O41938765   1.455   4.930   6.796  0.2814  0.2580  0.2730
   84MOL   C42038766   1.381   4.834   6.849 -0.0380 -0.3791  0.0586
   84MOL   O42138767   1.417   4.721   6.856 -0.0567  0.0713  0.2661
   84MOL   C42238768   1.242   4.874   6.894 -0.2778  0.0372 -0.0379
   84MOL   C42338769   1.207   5.010   6.908  0.0528  0.1220  0.4369
   84MOL   C42438770   1.086   5.044   6.969 -1.3356  0.2211 -0.1182
   84MOL   C42538771   0.991   4.950   7.013  0.6390  0.6730 -0.0444
   84MOL   C42638772   0.862   4.989   7.085  0.2648  0.6363  0.6032
   84MOL   O42738773   0.779   4.910   7.137  0.0352  0.1278 -0.3945
   84MOL   O42838774   0.846   5.128   7.086  0.3760 -0.4654 -0.1086
   84MOL   C42938775   1.021   4.818   6.986  0.8844 -0.2477 -0.8559
   84MOL   C43038776   1.140   4.781   6.924  0.3217  0.0442 -0.5057
   84MOL   H43138777   1.771   4.854   6.738  0.4037 -1.9314  0.4947
   84MOL   H43238778   1.675   4.779   6.865 -2.5621 -0.8741 -2.0798
   84MOL   H43338779   1.549   4.813   6.666 -1.6223  0.9143 -1.1467
   84MOL   H43438780   1.590   4.989   6.669 -2.0568  0.3258  0.5387
   84MOL   H43538781   1.269   5.097   6.889 -1.6355  0.9382 -1.4836
   84MOL   H43638782   1.053   5.147   6.969 -0.3597  0.5540 -1.6421
   84MOL   H43738783   0.948   4.745   7.016 -0.1458  0.2514 -2.1109
   84MOL   H43838784   1.161   4.682   6.885 -0.4965  0.1807 -1.3254
   84MOL   O43938785   0.709   5.180   7.115  0.7703 -0.0137 -0.4988
   84MOL   C44038786   0.621   5.169   7.004 -0.3489 -0.2009  0.0710
   84MOL   C44138787   0.661   5.269   6.891  0.3651 -0.1195  0.1184
   84MOL   O44238788   0.754   5.204   6.811  0.2711 -0.3673  0.4118
   84MOL   C44338789   0.854   5.273   6.766 -0.0212 -0.3486  0.1423
   84MOL   O44438790   0.862   5.396   6.787 -0.2216  0.9886  0.1541
   84MOL   C44538791   0.944   5.198   6.683  0.3651  0.4895 -0.5150
   84MOL   C44638792   1.055   5.270   6.636  0.0935  0.6042 -0.2855
   84MOL   C44738793   1.163   5.208   6.570  0.6949 -0.1695  0.5000
   84MOL   C44838794   1.149   5.064   6.545  0.3563 -0.2959 -0.3622
   84MOL   C44938795   1.263   4.983   6.486  0.3304 -0.2179 -0.7464
   84MOL   O45038796   1.271   4.859   6.499 -0.3694 -0.0902  0.1161
   84MOL   O45138797   1.351   5.062   6.415 -0.0396 -0.9255  0.0080
   84MOL   C45238798   1.036   4.988   6.584  0.3065 -0.2838  0.0743
   84MOL   C45338799   0.936   5.059   6.658  0.8430  0.1618 -0.2114
   84MOL   H45438800   0.601   5.064   6.980  2.2024 -0.3895 -1.3126
   84MOL   H45538801   0.526   5.199   7.050  0.1215 -0.3898  1.1879
   84MOL   H45638802   0.688   5.360   6.945  0.3540  0.1222 -0.2855
   84MOL   H45738803   0.569   5.289   6.836 -1.0860 -1.7392  1.8512
   84MOL   H45838804   1.063   5.373   6.667 -0.1182 -0.3011  2.9655
   84MOL   H45938805   1.251   5.264   6.543 -0.2618  1.5683  0.8741
   84MOL   H46038806   1.028   4.883   6.559  4.2598 -0.4320 -0.9164
   84MOL   H46138807   0.847   5.012   6.698  1.1868 -1.7806 -1.6644
   84MOL   H46238808   1.427   5.011   6.390  1.4358  0.9004  0.6779
   85MOL     O138809   6.838   1.209   0.223  0.1363  0.1247 -0.0485
   85MOL     C238810   6.840   1.320   0.137  0.1512 -0.1769  0.3919
   85MOL     C338811   6.696   1.388   0.137  0.0230  0.6193  0.2865
   85MOL     O438812   6.711   1.527   0.151  0.6650  0.1753 -0.9040
   85MOL     C538813   6.745   1.606   0.048 -0.8114  0.1613 -0.0601
   85MOL     O638814   6.749   1.567   8.206  0.3045 -0.1194 -0.0611
   85MOL     C738815   6.778   1.743   0.088  0.0421  0.2266 -0.6179
   85MOL     C838816   6.776   1.783   0.222  0.8905 -0.0509  0.1109
   85MOL     C938817   6.809   1.912   0.270 -0.1645 -0.2341 -0.0240
   85MOL    C1038818   6.851   2.012   0.180 -0.0599 -0.2842  0.7430
   85MOL    C1138819   6.899   2.143   0.231 -0.0803 -0.4580 -0.4585
   85MOL    O1238820   6.957   2.221   0.160  0.0907  0.3691 -0.2865
   85MOL    O1338821   6.863   2.166   0.364  0.1444  0.1698 -0.1132
   85MOL    C1438822   6.858   1.971   0.044  0.7416  0.3492 -0.4890
   85MOL    C1538823   6.814   1.845   8.273 -0.3772  0.0101 -0.3677
   85MOL    H1638824   6.912   1.396   0.166 -2.6334  2.2938  1.0112
   85MOL    H1738825   6.867   1.294   0.034 -3.2979 -2.4123 -0.0469
   85MOL    H1838826   6.638   1.341   0.216 -0.8628 -0.9221 -1.2359
   85MOL    H1938827   6.651   1.359   0.041  0.7667  2.2289 -0.5703
   85MOL    H2038828   6.732   1.710   0.289 -0.0670  0.2164 -0.2097
   85MOL    H2138829   6.805   1.935   0.375  1.1366 -0.7364  0.1440
   85MOL    H2238830   6.890   2.053   8.257  0.9344  0.7903  0.1957
   85MOL    H2338831   6.810   1.824   8.167 -1.3830  0.4398 -0.4243
   85MOL    H2438832   6.829   1.252   0.306 -2.4010 -0.5108  0.0319
   85MOL    O2538833   6.911   2.291   0.429 -0.3267 -0.2338 -0.4522
   85MOL    C2638834   7.025   2.260   0.508 -0.0838  0.7308  0.0987
   85MOL    C2738835   7.001   2.203   0.641 -0.0643  0.0871 -0.2748
   85MOL    O2838836   6.962   2.065   0.631 -0.4144 -0.3288 -0.5924
   85MOL    C2938837   7.042   1.969   0.593 -0.5755 -0.0316  0.5764
   85MOL    O3038838   7.162   1.984   0.576 -0.7417 -0.1841  0.0780
   85MOL    C3138839   6.973   1.840   0.565  0.4167 -0.4585 -0.6412
   85MOL    C3238840   6.852   1.805   0.619  0.8175  0.4314 -0.2328
   85MOL    C3338841   6.806   1.668   0.601  0.7252 -0.5199  0.7365
   85MOL    C3438842   6.881   1.578   0.526 -0.2580  0.4548 -0.1799
   85MOL    C3538843   6.833   1.435   0.521  1.0626 -0.6525 -0.2184
   85MOL    O3638844   6.901   1.346   0.474 -0.0150  0.0165  0.3337
   85MOL    O3738845   6.697   1.424   0.534 -0.3636 -0.0867 -0.1702
   85MOL    C3838846   6.998   1.616   0.461 -0.1114 -0.5597  0.1517
   85MOL    C3938847   7.046   1.750   0.486  0.2099 -0.2855  0.2623
   85MOL    H4038848   7.092   2.190   0.457 -1.8711 -1.8566  1.2239
   85MOL    H4138849   7.081   2.352   0.529 -0.7850  1.0144  0.7217
   85MOL    H4238850   6.911   2.244   0.685 -0.2933  1.8838 -2.3080
   85MOL    H4338851   7.089   2.207   0.706 -0.6607  1.1734  0.4677
   85MOL    H4438852   6.800   1.863   0.693  0.9370  1.0061 -0.5962
   85MOL    H4538853   6.716   1.637   0.652 -0.4979  1.8116  0.0961
   85MOL    H4638854   7.049   1.551   0.392 -0.5516 -0.9867  0.2208
   85MOL    H4738855   7.141   1.790   0.452  0.4589 -0.3223  0.9043
   85MOL    O4838856   6.640   1.282   0.500 -0.2863  0.1449  0.2104
   85MOL    C4938857   6.572   1.229   0.607  0.9218 -0.2763  0.1960
   85MOL    C5038858   6.444   1.314   0.646  0.0146  0.2979 -0.5014
   85MOL    O5138859   6.469   1.431   0.718  0.2778  0.2433 -0.2367
   85MOL    C5238860   6.476   1.433   0.855  0.3411  0.2644  0.0460
   85MOL    O5338861   6.496   1.328   0.920  0.0294  0.2878  0.2348
   85MOL    C5438862   6.477   1.573   0.915 -0.0418  1.2525  0.8251
   85MOL    C5538863   6.474   1.586   1.058 -0.3965 -0.3210 -0.2654
   85MOL    C5638864   6.480   1.718   1.113  0.1172 -0.9962  0.1710
   85MOL    C5738865   6.503   1.838   1.033 -0.0483  0.5018  0.1777
   85MOL    C5838866   6.508   1.969   1.093  0.0705  0.4889 -0.3575
   85MOL    O5938867   6.496   1.991   1.209 -0.2433 -0.3456  0.5250
   85MOL    O6038868   6.559   2.060   1.007  0.1003 -0.2532  0.5776
   85MOL    C6138869   6.520   1.821   0.893  1.0898 -0.3759  0.4608
   85MOL    C6238870   6.497   1.690   0.836  0.1520 -0.6399  0.6177
   85MOL    H6338871   6.540   1.128   0.584  0.5609 -0.6908  2.4310
   85MOL    H6438872   6.641   1.224   0.691  0.1249 -1.4407  0.7967
   85MOL    H6538873   6.374   1.253   0.704  0.2795  0.5514  0.0874
   85MOL    H6638874   6.384   1.333   0.558  1.4636  2.2745 -1.0879
   85MOL    H6738875   6.471   1.499   1.123  1.4966 -0.2329 -0.0214
   85MOL    H6838876   6.492   1.734   1.219 -1.1541  2.5492 -0.1377
   85MOL    H6938877   6.548   1.909   0.837 -1.6289 -0.0724 -0.4853
   85MOL    H7038878   6.505   1.678   0.729  0.8400 -4.7151  1.0394
   85MOL    O7138879   6.571   2.198   1.057 -0.4741  0.3085  0.2227
   85MOL    C7238880   6.699   2.225   1.114  0.5460  0.4983 -0.3915
   85MOL    C7338881   6.806   2.221   1.011 -0.3208 -0.7857  0.2820
   85MOL    O7438882   6.835   2.084   0.996 -0.1102 -0.3151 -0.1785
   85MOL    C7538883   6.960   2.037   1.001  0.2861  0.1001 -0.3401
   85MOL    O7638884   7.056   2.111   1.019  0.5184  0.2356  0.3995
   85MOL    C7738885   6.973   1.891   0.981 -0.5346 -0.1019 -0.7150
   85MOL    C7838886   6.859   1.807   0.992  0.1676  0.4957  0.2947
   85MOL    C7938887   6.870   1.669   0.973  0.1447 -0.2380 -0.5432
   85MOL    C8038888   6.992   1.609   0.927 -0.2245 -0.7698 -0.0973
   85MOL    C8138889   7.001   1.466   0.878  0.4621  0.1032 -0.1466
   85MOL    O8238890   7.096   1.423   0.816  0.0084 -0.3811  0.3507
   85MOL    O8338891   6.894   1.393   0.904 -0.2446 -0.0350  0.2918
   85MOL    C8438892   7.101   1.696   0.912 -0.5131 -0.0971 -0.0363
   85MOL    C8538893   7.098   1.837   0.942  0.5052  0.6283 -0.6705
   85MOL    H8638894   6.692   2.325   1.157 -3.4275  0.8349 -1.6809
   85MOL    H8738895   6.725   2.151   1.190  0.0103 -1.4929 -2.1026
   85MOL    H8838896   6.893   2.280   1.040 -0.8172  0.6064 -1.0282
   85MOL    H8938897   6.773   2.270   0.920  1.9625 -0.8047 -0.5844
   85MOL    H9038898   6.772   1.845   1.043 -0.2683 -1.5244  1.0934
   85MOL    H9138899   6.784   1.605   0.983  0.7662 -0.7780  1.5336
   85MOL    H9238900   7.189   1.645   0.876  0.5801 -0.0389  2.4482
   85MOL    H9338901   7.181   1.902   0.922  0.1030  0.5991 -2.5794
   85MOL    O9438902   6.862   1.298   0.792  0.6672 -0.3377  0.0223
   85MOL    C9538903   6.915   1.168   0.826  0.5782 -0.3606  0.2850
   85MOL    C9638904   6.842   1.110   0.943 -0.0175  0.1067  0.4606
   85MOL    O9738905   6.724   1.041   0.899  0.2032 -0.2861 -0.1850
   85MOL    C9838906   6.620   1.024   0.980 -0.3277  0.3433  0.7636
   85MOL    O9938907   6.621   1.057   1.095 -0.5731 -0.0371  0.0733
   85MOL   C10038908   6.508   0.950   0.921 -0.7084 -0.6370  0.5363
   85MOL   C10138909   6.402   0.910   1.004 -0.6155 -0.5155  0.3021
   85MOL   C10238910   6.300   0.826   0.952  0.0598 -0.1991 -0.6633
   85MOL   C10338911   6.315   0.770   0.826 -0.4897 -0.4912 -0.1637
   85MOL   C10438912   6.219   0.663   0.777  0.4029 -0.5404 -0.4741
   85MOL   O10538913   6.113   0.631   0.830 -0.1223  0.0712  0.0163
   85MOL   O10638914   6.269   0.594   0.674  0.5712  0.0511 -0.6722
   85MOL   C10738915   6.417   0.808   0.739  0.1373 -0.1735 -0.4011
   85MOL   C10838916   6.507   0.905   0.784  0.1174 -0.8242 -0.6908
   85MOL   H10938917   6.909   1.099   0.742 -0.3705  0.9999 -0.7774
   85MOL   H11038918   7.018   1.179   0.861  0.6156  2.0780 -0.5010
   85MOL   H11138919   6.830   1.196   1.009 -0.3579  2.7068 -2.8043
   85MOL   H11238920   6.903   1.034   0.990 -0.4615 -2.1489 -2.4448
   85MOL   H11338921   6.387   0.948   1.103 -1.4782  1.4068 -0.5483
   85MOL   H11438922   6.220   0.794   1.017 -0.1675 -1.3024 -1.4807
   85MOL   H11538923   6.411   0.790   0.632  0.9807 -0.4208 -0.4108
   85MOL   H11638924   6.579   0.935   0.710 -2.9627  0.9767 -3.0745
   85MOL   O11738925   6.170   0.504   0.611 -0.0605  0.2618  0.1180
   85MOL   C11838926   6.118   0.557   0.494  0.3246  0.0295 -0.2491
   85MOL   C11938927   5.983   0.494   0.485 -0.0265  0.6568  0.2837
   85MOL   O12038928   5.892   0.582   0.540  0.0427  0.4588  0.1162
   85MOL   C12138929   5.815   0.540   0.651  0.2809 -0.2114 -0.7220
   85MOL   O12238930   5.819   0.430   0.702  0.5856 -0.1823  0.4433
   85MOL   C12338931   5.715   0.646   0.684  0.3306 -0.2298  0.7212
   85MOL   C12438932   5.631   0.636   0.795 -0.8303  1.2590  0.0153
   85MOL   C12538933   5.538   0.728   0.829 -0.0213 -0.2538  0.3877
   85MOL   C12638934   5.519   0.846   0.746 -0.0910  0.5122 -0.2345
   85MOL   C12738935   5.412   0.943   0.779 -0.3535 -0.2613  0.4828
   85MOL   O12838936   5.412   1.061   0.734 -0.0503  0.2694 -0.7424
   85MOL   O12938937   5.320   0.897   0.874  0.0428 -0.1990 -0.3064
   85MOL   C13038938   5.603   0.865   0.637  0.6214 -0.5568  0.7002
   85MOL   C13138939   5.701   0.767   0.608  0.4335 -0.0990 -0.1037
   85MOL   H13238940   6.113   0.666   0.498  1.3223  0.0276  2.2040
   85MOL   H13338941   6.183   0.533   0.410 -0.7053  0.8312 -1.2788
   85MOL   H13438942   5.985   0.395   0.531 -1.5625  0.7628  0.6085
   85MOL   H13538943   5.960   0.472   0.381 -1.3171 -0.6797  0.8341
   85MOL   H13638944   5.637   0.548   0.857 -1.7781  1.3740  0.2782
   85MOL   H13738945   5.484   0.707   0.920 -1.1237 -0.2696 -0.2671
   85MOL   H13838946   5.599   0.946   0.567  1.4362 -1.4299 -0.3672
   85MOL   H13938947   5.765   0.770   0.520  1.6546  0.9449  0.7905
   85MOL   O14038948   5.209   1.002   0.906  0.7652  0.7458  0.4255
   85MOL   C14138949   5.220   1.035   1.047  0.5586  0.5680  0.1109
   85MOL   C14238950   5.355   1.105   1.078 -0.4413  1.0152  0.4759
   85MOL   O14338951   5.453   1.000   1.101  0.8288 -0.2896  0.2190
   85MOL   C14438952   5.475   0.957   1.225  0.1640  0.0509 -0.6902
   85MOL   O14538953   5.445   1.015   1.327 -0.2918 -0.3934  0.1533
   85MOL   C14638954   5.552   0.828   1.230 -0.8980  0.2350  0.0706
   85MOL   C14738955   5.653   0.784   1.138 -0.0824  0.0356  0.4257
   85MOL   C14838956   5.720   0.659   1.153 -0.1626  0.5386 -0.8556
   85MOL   C14938957   5.691   0.574   1.263  0.6572 -0.2365 -0.6670
   85MOL   C15038958   5.759   0.444   1.276 -0.3382 -0.0022  0.5942
   85MOL   O15138959   5.811   0.392   1.177  0.8893 -0.5224  0.4619
   85MOL   O15238960   5.761   0.398   1.407 -0.8427  0.5506  0.0418
   85MOL   C15338961   5.586   0.614   1.343  0.4924 -0.7389  0.4217
   85MOL   C15438962   5.524   0.737   1.332 -0.1750 -0.8050  0.1796
   85MOL   H15538963   5.144   1.104   1.082 -1.4322 -0.9518 -1.1166
   85MOL   H15638964   5.212   0.940   1.100 -1.0480 -0.0965 -1.2541
   85MOL   H15738965   5.364   1.179   1.158 -1.2594 -0.1925  1.7163
   85MOL   H15838966   5.398   1.164   0.997 -0.1773  0.3923  0.1546
   85MOL   H15938967   5.691   0.851   1.062 -1.5389  1.1898  0.7049
   85MOL   H16038968   5.784   0.630   1.071 -0.3775  1.4328 -1.3506
   85MOL   H16138969   5.557   0.554   1.428 -0.1713 -1.7360 -0.4895
   85MOL   H16238970   5.450   0.755   1.409  0.9131 -1.8321  1.5047
   85MOL   O16338971   5.849   0.284   1.431 -0.0433 -0.4313  0.4949
   85MOL   C16438972   5.982   0.333   1.470  0.0614  0.4750 -0.2690
   85MOL   C16538973   5.958   0.382   1.614  0.0442 -0.2505  0.7839
   85MOL   O16638974   5.905   0.513   1.612 -0.1599  0.4695 -0.1539
   85MOL   C16738975   5.971   0.610   1.669  0.1122  0.4162  0.1766
   85MOL   O16838976   6.073   0.596   1.735  0.3130 -0.1524 -0.4269
   85MOL   C16938977   5.913   0.746   1.650 -0.1404 -0.0193  0.2600
   85MOL   C17038978   5.844   0.775   1.527 -0.8852  0.8653 -0.2691
   85MOL   C17138979   5.794   0.901   1.506 -0.0708 -0.0623  0.4981
   85MOL   C17238980   5.819   1.005   1.602  0.1459  0.3115 -0.2070
   85MOL   C17338981   5.774   1.140   1.564  0.1165  0.0281  0.4033
   85MOL   O17438982   5.738   1.176   1.453 -0.3143  0.0978 -0.2117
   85MOL   O17538983   5.772   1.226   1.671 -0.4280 -0.2550 -0.6040
   85MOL   C17638984   5.885   0.981   1.726 -0.1643  0.3044 -0.2706
   85MOL   C17738985   5.927   0.845   1.747 -0.3674  0.2579  0.2472
   85MOL   H17838986   6.048   0.246   1.471 -0.7947 -0.1965  1.3482
   85MOL   H17938987   6.016   0.402   1.393  0.3139  0.6276 -0.0227
   85MOL   H18038988   6.050   0.380   1.673  0.5469 -0.0756  0.0160
   85MOL   H18138989   5.882   0.320   1.661 -0.5193  1.3195  1.9354
   85MOL   H18238990   5.818   0.698   1.455 -1.4723 -0.0624  0.9049
   85MOL   H18338991   5.739   0.924   1.417  0.9661 -0.4460 -0.2496
   85MOL   H18438992   5.914   1.053   1.801 -2.4690  0.5855  0.3784
   85MOL   H18538993   5.985   0.826   1.836  0.1238 -0.7134 -0.2765
   85MOL   O18638994   5.758   1.372   1.648  0.2204  0.7612  0.6199
   85MOL   C18738995   5.889   1.426   1.648 -0.5961 -0.2423 -0.1392
   85MOL   C18838996   5.933   1.433   1.801  1.0329  0.1047 -0.0736
   85MOL   O18938997   6.075   1.458   1.808  0.3814  0.1850  0.1091
   85MOL   C19038998   6.161   1.352   1.790  0.1027 -0.5326 -0.5583
   85MOL   O19138999   6.138   1.234   1.782  0.2717  0.4208 -0.1076
   85MOL   C19239000   6.300   1.401   1.806 -0.1172 -0.0004 -0.1030
   85MOL   C19339001   6.336   1.542   1.816  0.3712 -0.1665 -0.0535
   85MOL   C19439002   6.469   1.583   1.823  0.6391 -0.5776 -0.1079
   85MOL   C19539003   6.573   1.482   1.820  0.0616  0.6219 -0.0055
   85MOL   C19639004   6.718   1.521   1.839  0.3417 -0.1161  0.2169
   85MOL   O19739005   6.812   1.443   1.814 -0.4277  0.1714  0.1057
   85MOL   O19839006   6.742   1.653   1.871 -0.6020  0.0510 -0.4954
   85MOL   C19939007   6.538   1.347   1.811 -0.0156  0.3842  0.4684
   85MOL   C20039008   6.401   1.306   1.797  0.4443  0.0838 -0.6334
   85MOL   H20139009   5.961   1.369   1.589 -2.9961 -1.1150 -2.2824
   85MOL   H20239010   5.888   1.523   1.598 -0.9900  0.1830  0.6789
   85MOL   H20339011   5.919   1.345   1.864  1.6350  1.8825  2.6392
   85MOL   H20439012   5.881   1.519   1.843  0.6386  0.4777 -1.3056
   85MOL   H20539013   6.255   1.614   1.816 -1.2840 -1.9541 -2.1313
   85MOL   H20639014   6.492   1.688   1.831 -0.0186 -0.5350  1.3684
   85MOL   H20739015   6.612   1.268   1.816 -0.2731  0.1387  0.4027
   85MOL   H20839016   6.372   1.203   1.785  0.1611  0.1922 -0.8585
   85MOL   O20939017   6.889   1.686   1.874 -0.3477  0.4240 -0.6843
   85MOL   C21039018   6.939   1.664   2.004 -0.7175  0.5429  0.2582
   85MOL   C21139019   7.091   1.697   2.017 -0.0933  0.7836 -0.4403
   85MOL   O21239020   7.158   1.607   1.929 -0.1809 -0.3384 -0.7137
   85MOL   C21339021   7.262   1.657   1.868  0.1410 -0.3208  0.6347
   85MOL   O21439022   7.307   1.769   1.890 -0.6345  0.5157  0.1563
   85MOL   C21539023   7.311   1.562   1.762 -0.1678  0.3562 -0.4447
   85MOL   C21639024   7.441   1.575   1.699 -0.1227 -0.2689 -0.8098
   85MOL   C21739025   7.478   1.488   1.600 -0.8484 -0.6663  0.2852
   85MOL   C21839026   7.402   1.381   1.559 -0.0482  0.2248 -0.3901
   85MOL   C21939027   7.448   1.277   1.471 -0.1130 -0.3935 -0.1267
   85MOL   O22039028   7.390   1.172   1.456 -0.6947 -0.3538 -0.0258
   85MOL   O22139029   7.564   1.300   1.409  0.1583 -0.1238  0.4142
   85MOL   C22239030   7.278   1.365   1.620  0.1453  0.7190 -0.2168
   85MOL   C22339031   7.234   1.456   1.720 -0.1073 -0.2946 -0.0155
   85MOL   H22439032   6.879   1.712   2.081  0.3828  0.9354  0.8863
   85MOL   H22539033   6.928   1.558   2.025  2.4874  0.7691  3.4036
   85MOL   H22639034   7.134   1.683   2.116 -0.6589  2.4733  0.0723
   85MOL   H22739035   7.116   1.801   1.993  0.2111  1.1206  1.2875
   85MOL   H22839036   7.499   1.663   1.719 -0.5521 -0.0450 -0.5397
   85MOL   H22939037   7.575   1.513   1.560 -0.4714  1.5743  2.4743
   85MOL   H23039038   7.214   1.283   1.592  0.8024 -0.2812  1.1694
   85MOL   H23139039   7.141   1.424   1.764 -0.1251 -1.2617 -0.7270
   85MOL   O23239040   7.629   1.184   1.344 -0.1416 -0.5629 -0.2102
   85MOL   C23339041   7.747   1.171   1.416 -0.4378  0.8145 -0.4929
   85MOL   C23439042   7.818   1.042   1.373 -0.5088 -0.1976 -0.1354
   85MOL   O23539043   7.719   0.945   1.374 -0.2435 -0.2092  0.0654
   85MOL   C23639044   7.700   0.861   1.473 -0.0216 -0.3111 -0.0254
   85MOL   O23739045   7.769   0.850   1.571  0.1151  0.0666  0.2378
   85MOL   C23839046   7.602   0.758   1.441 -0.7320  0.1832 -0.3017
   85MOL   C23939047   7.581   0.653   1.532 -0.5432 -0.3475 -0.6441
   85MOL   C24039048   7.481   0.555   1.505 -0.3890  0.4564  0.3906
   85MOL   C24139049   7.403   0.562   1.391  0.1058 -0.3952 -0.3696
   85MOL   C24239050   7.307   0.450   1.366 -0.1118  0.1780  0.3058
   85MOL   O24339051   7.294   0.351   1.439 -0.6731 -0.1558 -0.2054
   85MOL   O24439052   7.227   0.473   1.250 -0.3598 -0.1623 -0.7429
   85MOL   C24539053   7.414   0.674   1.303  0.3629  0.3603 -0.1064
   85MOL   C24639054   7.520   0.768   1.328 -0.0467 -1.0651  0.4724
   85MOL   H24739055   7.822   1.247   1.396 -1.8594  2.0716 -1.1149
   85MOL   H24839056   7.727   1.160   1.523  0.1918 -0.2399 -0.4811
   85MOL   H24939057   7.910   1.016   1.425 -0.8869  0.4440  0.8643
   85MOL   H25039058   7.848   1.052   1.268  1.7335  1.3588  0.5929
   85MOL   H25139059   7.642   0.651   1.621 -1.0791  2.4391 -0.1753
   85MOL   H25239060   7.487   0.472   1.574  1.8960  1.0892  0.9907
   85MOL   H25339061   7.361   0.682   1.210  1.8154  0.7270 -0.9235
   85MOL   H25439062   7.537   0.845   1.255 -0.1143 -0.2381  1.3133
   85MOL   O25539063   7.117   0.378   1.220  0.3014 -0.0955 -0.7123
   85MOL   C25639064   6.995   0.429   1.269  0.1846  0.1713 -0.6400
   85MOL   C25739065   6.957   0.566   1.200 -0.4207  0.5045 -0.2080
   85MOL   O25839066   6.890   0.548   1.074 -0.0295  0.0502 -0.3344
   85MOL   C25939067   6.856   0.647   1.002 -0.1999 -0.0360 -0.1509
   85MOL   O26039068   6.867   0.766   1.031 -0.4237 -0.0775  0.2620
   85MOL   C26139069   6.812   0.602   0.868  0.1034 -0.3247  0.2146
   85MOL   C26239070   6.766   0.694   0.772 -0.1937 -0.2439 -0.3167
   85MOL   C26339071   6.727   0.653   0.645  0.2048  0.2912  0.0401
   85MOL   C26439072   6.730   0.512   0.618  0.9952  0.0568  0.3964
   85MOL   C26539073   6.661   0.454   0.499 -0.0738  0.1207  0.7470
   85MOL   O26639074   6.572   0.518   0.447  0.5452  0.0238 -0.5646
   85MOL   O26739075   6.706   0.327   0.466 -0.2436  0.0925  0.2943
   85MOL   C26839076   6.784   0.417   0.704 -0.2845 -0.7468 -0.3552
   85MOL   C26939077   6.824   0.462   0.834  0.0525 -0.5229 -0.2224
   85MOL   H27039078   6.910   0.364   1.251 -2.2451  2.1664  2.9734
   85MOL   H27139079   7.002   0.443   1.377  1.1624 -0.2396 -0.6492
   85MOL   H27239080   7.047   0.628   1.199  1.6830 -2.3775  0.5073
   85MOL   H27339081   6.890   0.616   1.270 -1.5836 -1.9000  0.4748
   85MOL   H27439082   6.762   0.800   0.793 -0.2356 -0.6991  2.0507
   85MOL   H27539083   6.667   0.716   0.581 -0.0146  1.4361  1.3670
   85MOL   H27639084   6.788   0.313   0.677  0.0180 -0.0115 -3.2739
   85MOL   H27739085   6.872   0.391   0.900  1.4456  0.7864  0.1874
   85MOL   O27839086   6.632   0.259   0.356  0.6558  0.0195  0.6233
   85MOL   C27939087   6.584   0.142   0.415  0.7606 -0.4222 -0.4848
   85MOL   C28039088   6.450   0.169   0.489  0.1787 -0.5476 -0.1034
   85MOL   O28139089   6.481   0.232   0.617 -0.0661 -0.4315  0.3399
   85MOL   C28239090   6.529   0.168   0.731  0.6735  0.1072  0.1788
   85MOL   O28339091   6.558   0.051   0.735  0.1469  0.1225 -0.0532
   85MOL   C28439092   6.524   0.251   0.852 -0.2303 -0.2503 -1.4892
   85MOL   C28539093   6.466   0.380   0.853  0.4798 -0.2697 -0.1206
   85MOL   C28639094   6.486   0.470   0.958 -0.4256 -0.5087  0.3309
   85MOL   C28739095   6.542   0.423   1.080 -0.5367  0.6045 -0.8418
   85MOL   C28839096   6.544   0.506   1.200  0.3150  0.1809 -0.4138
   85MOL   O28939097   6.585   0.477   1.314 -0.0167  0.0096 -0.1709
   85MOL   O29039098   6.510   0.626   1.165  0.3780 -0.2655  0.3134
   85MOL   C29139099   6.598   0.295   1.085 -0.4758 -0.3007  0.4791
   85MOL   C29239100   6.591   0.206   0.969  0.0966  0.1449 -0.7057
   85MOL   H29339101   6.546   0.089   0.328 -2.6047  0.1130  0.5805
   85MOL   H29439102   6.660   0.081   0.463 -0.3601  0.5184  2.6505
   85MOL   H29539103   6.397   0.076   0.509  0.8069 -0.9989 -0.5202
   85MOL   H29639104   6.388   0.242   0.438  1.0828  0.0658 -0.3368
   85MOL   H29739105   6.400   0.418   0.776  0.0690 -0.3176  0.2013
   85MOL   H29839106   6.445   0.569   0.945 -0.9415 -0.5464  1.5815
   85MOL   H29939107   6.628   0.255   1.180 -3.8495  1.6430  2.4545
   85MOL   H30039108   6.638   0.108   0.977 -0.4865 -0.0653  0.2023
   85MOL   O30139109   6.494   0.725   1.280 -0.6059  0.0224 -0.2522
   85MOL   C30239110   6.618   0.789   1.293  0.0737  0.0661  0.2919
   85MOL   C30339111   6.599   0.903   1.389  0.1358  0.0596  0.4379
   85MOL   O30439112   6.715   0.987   1.381 -0.1938  0.4149  0.4816
   85MOL   C30539113   6.713   1.097   1.460 -0.3192 -0.1851  0.1502
   85MOL   O30639114   6.621   1.135   1.539 -0.6872  0.2508  0.6534
   85MOL   C30739115   6.832   1.184   1.436  0.2124  0.1730  0.0136
   85MOL   C30839116   6.910   1.183   1.319  0.7687  0.0325  1.2372
   85MOL   C30939117   6.999   1.283   1.301 -0.1722  0.1788 -0.3093
   85MOL   C31039118   7.025   1.387   1.396 -0.3755  0.2782 -0.0281
   85MOL   C31139119   7.124   1.497   1.355 -0.4240 -0.1958 -0.0590
   85MOL   O31239120   7.195   1.497   1.255 -0.6941 -0.3244  0.3914
   85MOL   O31339121   7.126   1.609   1.432 -0.3788 -0.0162  0.7801
   85MOL   C31439122   6.949   1.385   1.512  0.3261 -0.4262  0.0152
   85MOL   C31539123   6.847   1.288   1.532 -0.3523 -0.4408  0.3788
   85MOL   H31639124   6.688   0.711   1.322 -1.7084 -1.3422  0.9201
   85MOL   H31739125   6.650   0.825   1.195 -2.4026 -0.7050 -0.8443
   85MOL   H31839126   6.583   0.876   1.494 -0.5121 -0.6657  0.1639
   85MOL   H31939127   6.512   0.962   1.360  0.3644 -0.7171 -1.9557
   85MOL   H32039128   6.908   1.102   1.247  0.2052  0.3300  0.9159
   85MOL   H32139129   7.043   1.291   1.203  0.0881 -0.6390 -0.2578
   85MOL   H32239130   6.963   1.456   1.593  1.0391  0.7597 -1.1279
   85MOL   H32339131   6.792   1.288   1.625  2.5213 -1.3803  2.1326
   85MOL   O32439132   7.172   1.738   1.372 -0.4123  0.0308 -0.0059
   85MOL   C32539133   7.063   1.814   1.315 -0.2174 -0.0092 -0.3088
   85MOL   C32639134   6.960   1.861   1.419 -0.0715  0.2316  0.4200
   85MOL   O32739135   6.854   1.769   1.427 -0.4120 -0.2432  0.2462
   85MOL   C32839136   6.746   1.801   1.505  0.1585 -0.0863 -0.4844
   85MOL   O32939137   6.741   1.899   1.580  0.0537 -0.6086  0.1976
   85MOL   C33039138   6.633   1.709   1.482 -0.2522 -1.0416  0.2342
   85MOL   C33139139   6.657   1.578   1.429  0.8205 -0.5233 -0.6227
   85MOL   C33239140   6.550   1.489   1.417  0.6686 -0.0460 -0.0298
   85MOL   C33339141   6.419   1.523   1.455  0.2899 -0.1735  0.5325
   85MOL   C33439142   6.309   1.424   1.441  0.1465  0.4744 -0.2443
   85MOL   O33539143   6.191   1.448   1.474  0.0045  0.3793  0.4046
   85MOL   O33639144   6.347   1.308   1.389 -0.0569  0.4728  0.0098
   85MOL   C33739145   6.395   1.654   1.511  0.2891  0.4091 -0.1462
   85MOL   C33839146   6.500   1.748   1.525  0.1722 -0.2287  0.4319
   85MOL   H33939147   7.110   1.898   1.264  2.0015 -1.6002 -0.9744
   85MOL   H34039148   7.008   1.747   1.248  0.2716 -0.4304 -0.2975
   85MOL   H34139149   6.923   1.957   1.382 -2.1641 -0.5234  0.5189
   85MOL   H34239150   7.001   1.879   1.519 -1.1945  0.6129  0.8115
   85MOL   H34339151   6.758   1.553   1.400  1.0677  1.0778 -1.2083
   85MOL   H34439152   6.580   1.390   1.385 -1.2990 -0.7035  0.0227
   85MOL   H34539153   6.296   1.676   1.546 -0.0655 -1.3641  0.0282
   85MOL   H34639154   6.467   1.842   1.567 -0.3396 -0.1644 -0.0932
   85MOL   O34739155   6.236   1.215   1.383 -0.3434  0.1116 -0.4376
   85MOL   C34839156   6.253   1.115   1.481  0.0562  1.0861 -0.1244
   85MOL   C34939157   6.129   1.029   1.484 -0.0699 -0.0384  0.3685
   85MOL   O35039158   6.134   0.915   1.397  0.0545  0.1924 -0.4558
   85MOL   C35139159   6.201   0.795   1.445  0.6568 -0.0741  0.1523
   85MOL   O35239160   6.283   0.800   1.541  0.1422  0.0166  0.6913
   85MOL   C35339161   6.184   0.673   1.350  0.1604 -0.6828 -0.8207
   85MOL   C35439162   6.102   0.686   1.235  0.0299 -1.0157 -0.4631
   85MOL   C35539163   6.089   0.580   1.145 -0.0094  0.4678  0.2903
   85MOL   C35639164   6.145   0.453   1.181 -0.3175 -0.6676 -0.1762
   85MOL   C35739165   6.106   0.337   1.098  0.6027 -0.3129 -0.9764
   85MOL   O35839166   6.112   0.220   1.138  0.2161 -0.0980 -0.0907
   85MOL   O35939167   6.060   0.376   0.973 -0.6656  0.2637  0.7410
   85MOL   C36039168   6.226   0.438   1.299 -0.4321 -0.5471  0.3317
   85MOL   C36139169   6.242   0.551   1.381  0.0149  0.5148 -0.0071
   85MOL   H36239170   6.345   1.072   1.442 -0.8230 -0.2040 -0.8194
   85MOL   H36339171   6.275   1.163   1.576  0.6730 -0.1130  0.3459
   85MOL   H36439172   6.045   1.091   1.452 -0.7893  0.1605  2.5471
   85MOL   H36539173   6.105   1.009   1.589 -2.3679  2.3091  0.3452
   85MOL   H36639174   6.054   0.779   1.208 -3.0259 -2.0578  1.1102
   85MOL   H36739175   6.016   0.600   1.068  2.0509 -0.2604 -1.9047
   85MOL   H36839176   6.273   0.343   1.322 -0.0932 -0.6413 -0.6788
   85MOL   H36939177   6.317   0.545   1.458 -0.1571 -0.8323  0.0692
   85MOL   O37039178   6.016   0.255   0.889 -0.0429  0.1296  0.0704
   85MOL   C37139179   6.083   0.242   0.770  0.0506 -0.1316  0.6078
   85MOL   C37239180   6.070   0.097   0.718  0.2890 -0.1489  0.0304
   85MOL   O37339181   5.934   0.085   0.677  0.1395 -0.1474 -0.2615
   85MOL   C37439182   5.895   0.120   0.554 -0.4639  0.3407 -0.1121
   85MOL   O37539183   5.972   0.157   0.460 -0.2184 -0.0494 -0.1242
   85MOL   C37639184   5.748   0.116   0.535 -0.6077  0.5745 -0.7335
   85MOL   C37739185   5.665   0.144   0.646  0.4450 -0.3607  0.4288
   85MOL   C37839186   5.529   0.149   0.641  0.4458 -0.8164 -0.4504
   85MOL   C37939187   5.470   0.129   0.513 -0.2081  0.1449  0.2615
   85MOL   C38039188   5.326   0.131   0.499  0.7215  0.0713  0.5518
   85MOL   O38139189   5.262   0.068   0.416 -0.5654 -0.2025 -0.3172
   85MOL   O38239190   5.271   0.198   0.602 -0.0730 -0.0323  0.6832
   85MOL   C38339191   5.547   0.100   0.398 -0.1896 -0.1355 -0.7135
   85MOL   C38439192   5.682   0.102   0.413 -0.5021 -0.2981 -1.1649
   85MOL   H38539193   6.046   0.316   0.699  0.9008  0.9797  1.3078
   85MOL   H38639194   6.189   0.264   0.783 -0.0062  0.3339  0.3126
   85MOL   H38739195   6.094   0.029   0.800  0.3176 -0.1097  0.0545
   85MOL   H38839196   6.142   0.072   0.640  0.6269  0.1506  0.2423
   85MOL   H38939197   5.706   0.168   0.743  0.8402 -1.3480  0.5127
   85MOL   H39039198   5.470   0.159   0.731 -1.0914  1.5426 -1.6864
   85MOL   H39139199   5.503   0.085   0.300  2.1879  0.0881 -1.8590
   85MOL   H39239200   5.734   0.077   0.321 -1.3116 -1.1713 -1.3957
   85MOL   O39339201   5.127   0.158   0.627  0.3302 -0.0486  0.2438
   85MOL   C39439202   5.035   0.238   0.554 -0.2427  0.2981 -0.8059
   85MOL   C39539203   4.896   0.171   0.563  0.5637 -0.1732 -0.8406
   85MOL   O39639204   4.916   0.037   0.505 -0.7473  0.4042 -0.4762
   85MOL   C39739205   4.829   8.216   0.512  0.0941  0.1008  0.2409
   85MOL   O39839206   4.714   8.229   0.551 -0.5437 -0.0561  0.4385
   85MOL   C39939207   4.886   8.083   0.470  0.0264  0.3813  0.5889
   85MOL   C40039208   5.020   8.067   0.435  0.3450  0.4257  0.6932
   85MOL   C40139209   5.066   7.944   0.388 -0.3946 -0.4046  0.1997
   85MOL   C40239210   4.980   7.843   0.352 -0.3302 -0.4951  0.6369
   85MOL   C40339211   5.033   7.714   0.303 -0.4567  0.0197  0.1255
   85MOL   O40439212   4.959   7.615   0.294  0.0060 -0.2230 -0.0620
   85MOL   O40539213   5.170   7.719   0.290 -0.0100  0.1648 -0.3809
   85MOL   C40639214   4.843   7.859   0.384 -0.4152 -0.6461 -0.3923
   85MOL   C40739215   4.801   7.979   0.447 -0.3452  0.0757  0.4749
   85MOL   H40839216   5.036   0.333   0.607  1.0680  0.4923 -1.1482
   85MOL   H40939217   5.057   0.255   0.448 -0.2686  0.1117 -0.8418
   85MOL   H41039218   4.826   0.220   0.496  2.1506 -0.6054 -2.8894
   85MOL   H41139219   4.855   0.157   0.662 -0.2091  0.1489 -1.1141
   85MOL   H41239220   5.095   8.144   0.440 -0.3610  0.9767  4.2072
   85MOL   H41339221   5.173   7.939   0.376 -0.4406  0.2948 -0.6455
   85MOL   H41439222   4.766   7.787   0.365 -0.4112 -0.5303 -0.8325
   85MOL   H41539223   4.699   8.002   0.475 -0.5743 -0.0324 -0.2759
   85MOL   O41639224   5.231   7.591   0.250 -0.2252  0.5639 -0.1008
   85MOL   C41739225   5.300   7.526   0.357 -0.4440  0.2099 -0.0011
   85MOL   C41839226   5.356   7.396   0.296  0.0454  0.3127  0.3803
   85MOL   O41939227   5.247   7.307   0.290  0.1805 -0.5290 -0.7552
   85MOL   C42039228   5.223   7.218   0.190 -0.4467 -0.0640  0.0212
   85MOL   O42139229   5.312   7.162   0.124 -0.3224 -0.2316  0.4854
   85MOL   C42239230   5.090   7.165   0.190  0.2893  0.2856  0.3117
   85MOL   C42339231   5.059   7.048   0.115  0.0593 -0.2437  0.0330
   85MOL   C42439232   4.931   6.994   0.116  0.9585 -0.3361  0.6033
   85MOL   C42539233   4.825   7.063   0.184  0.4814 -0.8881  0.1736
   85MOL   C42639234   4.686   7.011   0.183 -0.2706  0.0560 -0.1329
   85MOL   O42739235   4.599   7.043   0.265 -0.0775  0.4106 -0.5308
   85MOL   O42839236   4.657   6.941   0.071  0.0293  0.2460  0.1417
   85MOL   C42939237   4.859   7.176   0.262  0.3338 -0.5316  0.1364
   85MOL   C43039238   4.984   7.229   0.255 -0.1256 -0.1616 -0.2816
   85MOL   H43139239   5.385   7.591   0.376 -0.8455  0.4017  1.1438
   85MOL   H43239240   5.252   7.502   0.452  0.1983  1.1252  0.5593
   85MOL   H43339241   5.429   7.361   0.369  0.5591 -0.8496 -0.6723
   85MOL   H43439242   5.412   7.402   0.203  0.6902  2.4784  0.8844
   85MOL   H43539243   5.138   7.005   0.055 -0.3325 -0.1772 -0.5433
   85MOL   H43639244   4.905   6.904   0.063 -2.6782  1.3421 -0.6735
   85MOL   H43739245   4.779   7.223   0.318  0.3558  1.9964 -1.8892
   85MOL   H43839246   5.007   7.316   0.315  0.1071  0.4274 -1.2235
   85MOL   O43939247   4.511   6.899   0.050 -0.2804  0.0407  0.2188
   85MOL   C44039248   4.504   6.758   0.081 -0.5563 -0.1373 -0.3079
   85MOL   C44139249   4.381   6.708   0.006 -0.0324 -0.2142 -0.8083
   85MOL   O44239250   4.265   6.723   0.086 -0.3741  0.0658 -0.5481
   85MOL   C44339251   4.146   6.708   0.034 -0.9383 -0.0044  0.1090
   85MOL   O44439252   4.130   6.665   8.196  0.4116 -0.7185  0.0699
   85MOL   C44539253   4.039   6.749   0.126  0.1073 -0.2367 -0.1228
   85MOL   C44639254   4.065   6.818   0.247 -0.2403 -0.3884  0.5403
   85MOL   C44739255   3.960   6.860   0.329 -0.1016 -0.0117  1.1722
   85MOL   C44839256   3.824   6.828   0.302 -0.8389 -0.1076  0.5423
   85MOL   C44939257   3.714   6.870   0.399 -0.0059 -0.1790  0.4138
   85MOL   O45039258   3.734   6.925   0.509 -0.3575 -0.3033  0.0467
   85MOL   O45139259   3.587   6.832   0.366 -0.1527 -0.0757 -0.0879
   85MOL   C45239260   3.801   6.755   0.181 -0.5588  0.4014 -0.1079
   85MOL   C45339261   3.905   6.716   0.094 -0.6941 -0.1095 -0.0880
   85MOL   H45439262   4.584   6.700   0.036 -1.2025 -0.8364 -0.5753
   85MOL   H45539263   4.496   6.745   0.189 -0.4880  2.6817  0.0876
   85MOL   H45639264   4.389   6.599   0.004  0.7329 -0.1562 -0.7787
   85MOL   H45739265   4.373   6.745   8.179 -0.4042 -1.4460 -1.2371
   85MOL   H45839266   4.168   6.838   0.273 -0.1552 -0.8059  0.5300
   85MOL   H45939267   3.984   6.913   0.421 -0.5363  1.6060  0.3768
   85MOL   H46039268   3.700   6.729   0.154 -0.7860  0.5070  0.6090
   85MOL   H46139269   3.890   6.652   0.008  1.9937  0.8752 -1.3359
   85MOL   H46239270   3.541   6.824   0.448  3.6433  0.0145  2.1777
   86MOL     O139271   3.591   6.022   3.035 -0.4680  0.0277  0.0031
   86MOL     C239272   3.711   6.047   2.962 -0.3465 -0.2899  0.6602
   86MOL     C339273   3.837   6.018   3.047 -0.1421  0.0821 -0.2900
   86MOL     O439274   3.896   6.137   3.099 -0.4160  0.8963 -0.7028
   86MOL     C539275   4.025   6.149   3.129 -0.4660  0.2880  0.0150
   86MOL     O639276   4.107   6.065   3.091 -0.1214  0.0168 -0.3740
   86MOL     C739277   4.063   6.264   3.207 -0.7510  0.8331  0.4099
   86MOL     C839278   4.194   6.294   3.242  0.0753  0.5023 -0.3215
   86MOL     C939279   4.223   6.402   3.334 -0.3119  0.1699  0.5904
   86MOL    C1039280   4.118   6.481   3.394  0.1576 -0.2531  0.3839
   86MOL    C1139281   4.144   6.585   3.493 -0.7265 -0.2952  0.1478
   86MOL    O1239282   4.101   6.580   3.606  0.0506  0.1360 -0.2412
   86MOL    O1339283   4.222   6.682   3.437 -0.4336 -0.1574  0.1060
   86MOL    C1439284   3.987   6.454   3.348  0.6456 -0.1090  0.1873
   86MOL    C1539285   3.967   6.343   3.258  1.1823 -0.0938 -0.0830
   86MOL    H1639286   3.718   5.980   2.876 -3.2194  1.5010 -1.0378
   86MOL    H1739287   3.707   6.146   2.918  0.4671 -0.4110  0.3062
   86MOL    H1839288   3.911   5.971   2.982 -0.2696 -0.5527  0.0128
   86MOL    H1939289   3.822   5.938   3.119 -0.8874  0.2554 -0.2522
   86MOL    H2039290   4.277   6.237   3.204 -0.2711 -1.4789  1.7565
   86MOL    H2139291   4.327   6.413   3.361  0.0851 -0.2510 -0.7456
   86MOL    H2239292   3.897   6.507   3.375  1.2820  1.5235 -0.7458
   86MOL    H2339293   3.863   6.324   3.235  1.0244 -1.0839  1.3931
   86MOL    H2439294   3.598   6.059   3.122  0.4913 -2.4671  1.0418
   86MOL    O2539295   4.287   6.767   3.540  0.7570  0.1133  0.1870
   86MOL    C2639296   4.407   6.693   3.578 -0.2421  0.6455 -0.4582
   86MOL    C2739297   4.482   6.776   3.695 -0.8529  0.8113 -0.0554
   86MOL    O2839298   4.625   6.744   3.678 -0.7748  0.3621 -0.2058
   86MOL    C2939299   4.680   6.643   3.740 -0.1734  0.5110  0.0642
   86MOL    O3039300   4.615   6.570   3.816 -0.0182  0.5712  0.6881
   86MOL    C3139301   4.819   6.608   3.703  0.1757  0.3379 -0.2064
   86MOL    C3239302   4.888   6.508   3.775  0.6904 -0.0305 -0.2638
   86MOL    C3339303   5.019   6.474   3.741  0.3130  0.0347 -0.2814
   86MOL    C3439304   5.082   6.536   3.633  0.0544  0.3117 -0.2029
   86MOL    C3539305   5.218   6.497   3.599  0.3345  0.4239  0.2746
   86MOL    O3639306   5.306   6.455   3.674 -0.3525 -0.5689 -0.4280
   86MOL    O3739307   5.232   6.514   3.459 -0.3551  0.1632  0.5795
   86MOL    C3839308   5.018   6.639   3.566  1.0877  0.7233 -0.1516
   86MOL    C3939309   4.891   6.679   3.607 -0.0192 -0.4377 -0.5653
   86MOL    H4039310   4.392   6.589   3.604  1.3736  0.6696  0.6241
   86MOL    H4139311   4.468   6.683   3.488 -1.6732  0.7884 -1.4515
   86MOL    H4239312   4.434   6.764   3.792 -0.9252  0.1596 -0.1717
   86MOL    H4339313   4.472   6.882   3.669 -0.6394  0.3936 -1.8735
   86MOL    H4439314   4.848   6.447   3.854 -2.5301  1.1605 -0.9195
   86MOL    H4539315   5.072   6.395   3.791  3.4501 -0.2419 -3.8450
   86MOL    H4639316   5.060   6.696   3.484 -1.3421  1.8226 -0.6688
   86MOL    H4739317   4.843   6.762   3.558  1.3017  0.7152  0.0703
   86MOL    O4839318   5.367   6.493   3.398  0.1909  0.2138 -0.1174
   86MOL    C4939319   5.408   6.621   3.347 -0.7235  0.3656 -0.3631
   86MOL    C5039320   5.455   6.706   3.467 -0.5782  0.5484 -1.3151
   86MOL    O5139321   5.564   6.648   3.532 -0.7233 -0.2585  0.4505
   86MOL    C5239322   5.600   6.694   3.651 -0.6837 -0.7992  0.2414
   86MOL    O5339323   5.547   6.794   3.704 -1.0526 -0.0095 -0.6546
   86MOL    C5439324   5.724   6.639   3.703 -0.1932 -0.3641  0.0312
   86MOL    C5539325   5.785   6.512   3.667  0.5048 -0.0731  0.0016
   86MOL    C5639326   5.897   6.468   3.734 -0.5580 -0.5235  0.3254
   86MOL    C5739327   5.960   6.544   3.833  0.0376  0.1156 -0.1593
   86MOL    C5839328   6.093   6.507   3.886 -0.1686  1.5575 -0.0252
   86MOL    O5939329   6.162   6.411   3.843 -0.2958 -0.1316 -0.3037
   86MOL    O6039330   6.132   6.589   3.986  0.8228 -0.3232  0.0917
   86MOL    C6139331   5.893   6.661   3.876 -0.3961  0.4982  0.2074
   86MOL    C6239332   5.780   6.711   3.814 -0.8030  0.6964  0.0279
   86MOL    H6339333   5.502   6.612   3.293 -1.7610 -0.4633 -2.0557
   86MOL    H6439334   5.332   6.678   3.293  0.1485  1.4006 -0.5230
   86MOL    H6539335   5.369   6.730   3.529  0.7999  0.6429  0.5775
   86MOL    H6639336   5.482   6.801   3.421  1.7558 -0.5189 -2.2408
   86MOL    H6739337   5.748   6.457   3.582  0.0299 -0.5123  0.4902
   86MOL    H6839338   5.931   6.369   3.707  0.2573  0.0059 -0.6133
   86MOL    H6939339   5.934   6.728   3.950 -0.0624  1.2517 -0.6596
   86MOL    H7039340   5.737   6.800   3.859 -0.2862  1.5706 -1.1819
   86MOL    O7139341   6.277   6.574   4.021  0.3843  0.0514 -0.3420
   86MOL    C7239342   6.283   6.487   4.137 -0.0088 -0.5286 -0.1912
   86MOL    C7339343   6.422   6.475   4.191  0.1152 -0.3891 -0.3983
   86MOL    O7439344   6.491   6.366   4.130  0.4225  0.3300  0.7646
   86MOL    C7539345   6.533   6.376   4.004  0.6160 -0.4138 -0.1084
   86MOL    O7639346   6.521   6.476   3.939  0.2320  0.1551  0.8739
   86MOL    C7739347   6.612   6.258   3.966  0.5808  0.3102 -0.1326
   86MOL    C7839348   6.638   6.153   4.057 -0.4350 -0.0955  0.1723
   86MOL    C7939349   6.707   6.038   4.023  0.6265 -0.4152 -0.0764
   86MOL    C8039350   6.767   6.030   3.891  0.3409  0.9358 -0.5001
   86MOL    C8139351   6.847   5.907   3.852  0.4705  0.2293  0.3340
   86MOL    O8239352   6.868   5.807   3.926  0.7631  0.0984 -0.0954
   86MOL    O8339353   6.889   5.921   3.731 -0.2815 -0.6706 -0.1633
   86MOL    C8439354   6.743   6.142   3.801 -0.1394  0.5371  0.2207
   86MOL    C8539355   6.662   6.250   3.835  0.4022  0.1462 -0.3042
   86MOL    H8639356   6.224   6.533   4.216  2.2481  2.3915 -0.1091
   86MOL    H8739357   6.239   6.391   4.110 -2.4467  0.6279 -0.4678
   86MOL    H8839358   6.415   6.466   4.299 -0.9891  2.4679 -0.1876
   86MOL    H8939359   6.478   6.568   4.187  2.6799 -1.8950 -0.4111
   86MOL    H9039360   6.602   6.159   4.158 -0.1763  1.7970  0.1653
   86MOL    H9139361   6.714   5.966   4.103  2.7615 -0.3438 -0.1643
   86MOL    H9239362   6.772   6.137   3.697 -0.2498 -1.0216  0.2617
   86MOL    H9339363   6.641   6.332   3.768 -0.7448 -1.9006 -2.5373
   86MOL    O9439364   6.974   5.809   3.693  0.0149  0.2932 -0.0691
   86MOL    C9539365   7.109   5.853   3.681 -0.2235  0.2948  0.1792
   86MOL    C9639366   7.211   5.753   3.635 -0.6269  0.3569  0.0881
   86MOL    O9739367   7.174   5.635   3.703  0.5129 -0.5342  0.1604
   86MOL    C9839368   7.259   5.536   3.734  0.5597  0.1796  0.3335
   86MOL    O9939369   7.377   5.534   3.700 -0.3881  0.8042 -0.0781
   86MOL   C10039370   7.201   5.424   3.822 -0.3518 -0.0003  0.0374
   86MOL   C10139371   7.074   5.441   3.889  0.3330  0.1708 -0.5496
   86MOL   C10239372   7.020   5.343   3.976  0.1047 -0.7056 -0.3614
   86MOL   C10339373   7.099   5.233   4.001 -0.4445  0.1660 -0.1794
   86MOL   C10439374   7.054   5.128   4.093 -0.6617  0.8844 -0.7993
   86MOL   O10539375   6.933   5.098   4.112  0.6153  0.4860 -0.1410
   86MOL   O10639376   7.155   5.056   4.141  0.3567  0.8141 -0.1027
   86MOL   C10739377   7.226   5.219   3.938 -0.7138 -0.0497 -0.1451
   86MOL   C10839378   7.274   5.306   3.846 -0.4544 -0.7592 -0.2896
   86MOL   H10939379   7.112   5.945   3.622 -0.5793 -0.2811 -0.7564
   86MOL   H11039380   7.132   5.882   3.783  0.7416  2.0582 -0.5101
   86MOL   H11139381   7.313   5.779   3.665 -1.0019  2.2634 -0.2436
   86MOL   H11239382   7.213   5.729   3.529 -2.2389 -2.4835  0.6196
   86MOL   H11339383   7.025   5.537   3.878  0.8092  0.7022  1.5831
   86MOL   H11439384   6.925   5.348   4.027  0.0590 -2.7565 -0.2141
   86MOL   H11539385   7.287   5.132   3.956 -0.2635  0.0385 -1.2000
   86MOL   H11639386   7.366   5.297   3.790  1.2492  1.9130  1.9234
   86MOL   O11739387   7.116   4.921   4.211 -0.8190 -0.0473  0.2206
   86MOL   C11839388   7.128   4.942   4.349 -0.4908 -0.4706  0.1303
   86MOL   C11939389   7.060   4.814   4.407  0.1445 -0.0085 -0.1846
   86MOL   O12039390   6.929   4.804   4.342 -0.0110 -0.0706  0.0616
   86MOL   C12139391   6.818   4.777   4.417  0.4249  0.0452  0.2716
   86MOL   O12239392   6.819   4.747   4.534  0.2797  0.1411 -0.2152
   86MOL   C12339393   6.693   4.773   4.339 -0.0197  0.0472 -0.0404
   86MOL   C12439394   6.574   4.766   4.415 -0.1939  0.5584  0.7899
   86MOL   C12539395   6.445   4.770   4.356  0.6341  0.2565  0.2039
   86MOL   C12639396   6.436   4.776   4.212  0.4299  0.2663 -0.9014
   86MOL   C12739397   6.306   4.806   4.148 -0.1849  0.1176 -0.5348
   86MOL   O12839398   6.209   4.849   4.214  0.2263  0.2494 -0.1128
   86MOL   O12939399   6.301   4.796   4.008  0.0188 -0.2636 -0.0770
   86MOL   C13039400   6.558   4.768   4.138  0.5066  0.0966  0.1646
   86MOL   C13139401   6.688   4.774   4.201 -0.1373  0.1203  0.5441
   86MOL   H13239402   7.226   4.953   4.396  0.0950 -2.3404 -0.6122
   86MOL   H13339403   7.064   5.027   4.370  1.3960  1.3434 -1.3221
   86MOL   H13439404   7.060   4.821   4.516  1.1283 -2.1511  0.0012
   86MOL   H13539405   7.125   4.731   4.376 -0.5201 -0.3848 -0.5711
   86MOL   H13639406   6.577   4.756   4.523  0.9089 -0.8372  0.6449
   86MOL   H13739407   6.353   4.768   4.413  0.1811 -1.2424 -0.5416
   86MOL   H13839408   6.554   4.785   4.032 -0.9423 -0.7950  0.0675
   86MOL   H13939409   6.779   4.767   4.144 -0.2949  0.3561  0.2602
   86MOL   O14039410   6.177   4.860   3.948  0.2217 -0.2549  0.2511
   86MOL   C14139411   6.078   4.757   3.931 -0.2898 -0.0312 -0.9295
   86MOL   C14239412   6.088   4.698   3.789 -0.5576 -0.3943  0.4179
   86MOL   O14339413   6.040   4.778   3.679 -0.0511 -0.3416 -0.4520
   86MOL   C14439414   5.911   4.762   3.628  0.6309 -0.5498 -0.1867
   86MOL   O14539415   5.818   4.688   3.675  0.5575 -0.2456  0.2282
   86MOL   C14639416   5.889   4.867   3.524 -0.0343  0.0719 -0.5214
   86MOL   C14739417   5.757   4.911   3.499  0.1363  0.5615  0.5284
   86MOL   C14839418   5.736   5.011   3.400  0.0956 -0.3127  0.9677
   86MOL   C14939419   5.847   5.075   3.333  0.0937 -0.0815  0.2431
   86MOL   C15039420   5.826   5.170   3.223 -0.0059  1.2939 -0.5323
   86MOL   O15139421   5.907   5.248   3.183 -0.7132 -0.0829 -0.1886
   86MOL   O15239422   5.695   5.176   3.182  0.5275 -0.0129 -0.2568
   86MOL   C15339423   5.977   5.031   3.365  0.3894 -0.8103 -0.2034
   86MOL   C15439424   5.998   4.930   3.458  0.0433  0.0277  0.3901
   86MOL   H15539425   6.089   4.677   4.005  1.4374  2.0311  1.1240
   86MOL   H15639426   5.981   4.796   3.962 -1.5213 -2.4909 -1.5484
   86MOL   H15739427   6.030   4.606   3.784 -0.8577 -0.1330 -0.9752
   86MOL   H15839428   6.194   4.680   3.772 -1.2573 -1.8984 -2.6640
   86MOL   H15939429   5.674   4.859   3.546  0.4826  1.1373  1.7968
   86MOL   H16039430   5.635   5.020   3.362  0.7767  2.5730 -0.3354
   86MOL   H16139431   6.062   5.058   3.304 -0.0436 -0.8620 -0.8356
   86MOL   H16239432   6.100   4.899   3.474  1.1658  2.9101 -0.7351
   86MOL   O16339433   5.654   5.271   3.071  0.1863 -0.0282  0.8898
   86MOL   C16439434   5.605   5.387   3.129 -0.1773  0.0035  0.2319
   86MOL   C16539435   5.545   5.493   3.034 -0.4768 -0.7580  0.0749
   86MOL   O16639436   5.434   5.453   2.956 -0.2283  0.0150  0.0168
   86MOL   C16739437   5.306   5.453   3.005 -0.4253  0.0956  0.3562
   86MOL   O16839438   5.274   5.511   3.110 -0.3325 -0.0417 -0.0079
   86MOL   C16939439   5.210   5.383   2.920  0.4517 -1.0107 -0.3987
   86MOL   C17039440   5.075   5.430   2.938 -0.0886 -0.2111  0.0048
   86MOL   C17139441   4.971   5.361   2.870  0.7438 -0.6563  0.4431
   86MOL   C17239442   4.992   5.238   2.804 -0.3051 -0.1125 -0.1192
   86MOL   C17339443   4.888   5.150   2.736  0.3776  0.0094 -0.3437
   86MOL   O17439444   4.911   5.058   2.652 -0.5904 -0.4350 -0.0730
   86MOL   O17539445   4.760   5.190   2.774 -0.0350 -0.1982 -0.2931
   86MOL   C17639446   5.130   5.208   2.782 -0.4525  0.3912  0.5831
   86MOL   C17739447   5.242   5.284   2.825  1.1630 -0.0776  0.0948
   86MOL   H17839448   5.523   5.358   3.194 -1.8839  2.3820 -0.7980
   86MOL   H17939449   5.681   5.432   3.192  0.9060 -1.9642  0.3828
   86MOL   H18039450   5.625   5.522   2.965 -0.5041  0.8151  0.6878
   86MOL   H18139451   5.522   5.580   3.095  0.0797 -0.0976 -0.6462
   86MOL   H18239452   5.059   5.512   3.006  1.0226 -1.0073  1.2659
   86MOL   H18339453   4.869   5.397   2.877  0.3652 -1.7637  0.7433
   86MOL   H18439454   5.152   5.120   2.724  1.7340 -0.7058  2.9830
   86MOL   H18539455   5.345   5.253   2.818  0.4409 -3.0360  1.6957
   86MOL   O18639456   4.657   5.128   2.695 -0.7061 -1.1470 -0.2676
   86MOL   C18739457   4.560   5.084   2.783 -0.9231 -0.5630  0.4503
   86MOL   C18839458   4.456   4.997   2.708  0.4506 -0.0972  0.2485
   86MOL   O18939459   4.390   5.077   2.614 -0.3582 -0.4582 -0.1440
   86MOL   C19039460   4.288   5.152   2.648  0.4001  0.2820 -0.0439
   86MOL   O19139461   4.224   5.129   2.749  0.1099  0.1752 -0.9885
   86MOL   C19239462   4.254   5.257   2.547  0.3031 -0.4068 -0.3469
   86MOL   C19339463   4.356   5.311   2.465  0.4733 -0.7540  0.5765
   86MOL   C19439464   4.324   5.410   2.371 -0.0213  0.3090 -0.0101
   86MOL   C19539465   4.191   5.454   2.360 -0.0378  0.0128  0.1220
   86MOL   C19639466   4.156   5.549   2.238 -0.5066  0.3245 -0.1241
   86MOL   O19739467   4.240   5.559   2.149  0.2341 -0.6123 -0.0395
   86MOL   O19839468   4.032   5.590   2.232 -0.3824  0.2318 -0.0523
   86MOL   C19939469   4.090   5.407   2.449 -0.3054  0.8545 -0.5283
   86MOL   C20039470   4.125   5.309   2.542 -0.1975  0.3250  0.2808
   86MOL   H20139471   4.610   5.034   2.865 -1.1579  0.1994  1.0678
   86MOL   H20239472   4.502   5.169   2.818 -1.5768 -0.7955 -0.0514
   86MOL   H20339473   4.375   4.954   2.766 -0.5187  0.8475 -0.3913
   86MOL   H20439474   4.502   4.914   2.654  0.0567 -0.1174 -0.0548
   86MOL   H20539475   4.458   5.277   2.472  1.5852  2.5963  1.5874
   86MOL   H20639476   4.402   5.440   2.302 -0.5031 -0.7255 -1.0310
   86MOL   H20739477   3.989   5.445   2.438 -1.0915 -1.1548 -0.4659
   86MOL   H20839478   4.053   5.267   2.610  0.0735 -0.2196  0.2384
   86MOL   O20939479   3.994   5.669   2.112  0.5314 -0.2428  0.1452
   86MOL   C21039480   3.924   5.579   2.027  0.8238  0.1969 -0.8224
   86MOL   C21139481   3.992   5.584   1.893 -0.3252  0.3206 -0.2026
   86MOL   O21239482   3.908   5.531   1.796  0.0338  0.8772 -0.0776
   86MOL   C21339483   3.963   5.480   1.680 -0.2917  0.8965  0.1084
   86MOL   O21439484   4.084   5.463   1.675 -0.4371  0.2059  0.7621
   86MOL   C21539485   3.863   5.459   1.565  0.0719  0.4047 -0.2385
   86MOL   C21639486   3.731   5.498   1.577  0.1872 -0.1536  0.4374
   86MOL   C21739487   3.643   5.477   1.467  0.1963  0.0216  0.0284
   86MOL   C21839488   3.692   5.426   1.348 -0.1028 -0.3275 -0.3200
   86MOL   C21939489   3.599   5.398   1.235  0.3155 -0.5696 -0.1062
   86MOL   O22039490   3.478   5.389   1.248  0.3804 -0.2103 -0.3695
   86MOL   O22139491   3.664   5.382   1.115 -0.1676  0.1643  0.3656
   86MOL   C22239492   3.832   5.404   1.340 -0.1750  0.3520 -0.2863
   86MOL   C22339493   3.918   5.422   1.443 -0.3364 -0.2225 -0.7249
   86MOL   H22439494   3.924   5.476   2.064  2.6236  0.4209 -0.1390
   86MOL   H22539495   3.819   5.604   2.019  0.7531  0.3368  0.4325
   86MOL   H22639496   4.086   5.530   1.909 -1.2234 -1.4482 -0.7959
   86MOL   H22739497   4.010   5.689   1.872  0.8474 -0.1524 -1.6427
   86MOL   H22839498   3.702   5.546   1.669 -1.1740  2.6214 -1.3550
   86MOL   H22939499   3.537   5.498   1.480  0.2976 -0.5434  2.0297
   86MOL   H23039500   3.869   5.371   1.244  0.5421 -0.8955  0.3960
   86MOL   H23139501   4.022   5.401   1.429  0.1675 -0.7107  3.1702
   86MOL   O23239502   3.573   5.330   1.005 -0.3548  0.6573  0.4305
   86MOL   C23339503   3.594   5.189   0.981 -0.0629  0.6542 -0.0761
   86MOL   C23439504   3.484   5.131   0.903  0.0102  0.1960  0.0339
   86MOL   O23539505   3.369   5.115   0.990 -0.7989  0.2619 -0.5116
   86MOL   C23639506   3.337   4.997   1.042 -0.2905  0.0546 -0.3688
   86MOL   O23739507   3.382   4.893   0.993  0.2072 -0.3522 -0.2955
   86MOL   C23839508   3.244   5.003   1.163 -0.5159  0.6163 -0.3644
   86MOL   C23939509   3.199   5.122   1.213  0.6816  0.1994 -0.4159
   86MOL   C24039510   3.111   5.132   1.329  0.2865 -0.2254  0.1095
   86MOL   C24139511   3.077   5.014   1.400  0.7984  0.6511  0.1186
   86MOL   C24239512   2.990   5.028   1.520  0.3122  0.2247  0.4628
   86MOL   O24339513   3.007   4.960   1.623 -0.2881  0.8201 -1.0429
   86MOL   O24439514   2.903   5.122   1.497  0.4037 -0.2347  0.0819
   86MOL   C24539515   3.129   4.888   1.349  0.3014  0.0292  0.1041
   86MOL   C24639516   3.203   4.883   1.225  0.6327  0.1212 -0.1596
   86MOL   H24739517   3.691   5.161   0.939  1.3108  2.4251  1.7601
   86MOL   H24839518   3.592   5.130   1.072  2.0832  1.8538  0.8049
   86MOL   H24939519   3.524   5.039   0.859  0.9082  0.2178  0.7863
   86MOL   H25039520   3.466   5.206   0.826 -1.9317  0.3635  0.6318
   86MOL   H25139521   3.226   5.217   1.170  0.6701  0.3938 -0.0004
   86MOL   H25239522   3.078   5.229   1.363  0.1512  0.5981 -2.3242
   86MOL   H25339523   3.101   4.801   1.406  0.0819 -0.4984 -0.8058
   86MOL   H25439524   3.224   4.783   1.190 -0.1663 -0.4616  0.9941
   86MOL   O25539525   2.823   5.166   1.615 -0.5068 -0.6945 -0.4320
   86MOL   C25639526   2.692   5.115   1.605  0.1437  0.6467  0.6818
   86MOL   C25739527   2.596   5.162   1.706 -0.4055 -0.0039  0.3873
   86MOL   O25839528   2.479   5.091   1.723 -0.2845  0.1117  0.1576
   86MOL   C25939529   2.490   4.991   1.809  0.0596  0.4748  0.6972
   86MOL   O26039530   2.587   4.938   1.857  0.4123 -0.4983  0.1079
   86MOL   C26139531   2.355   4.927   1.827  0.4725 -0.1442 -0.4285
   86MOL   C26239532   2.345   4.798   1.877  0.3139  0.9097 -0.2325
   86MOL   C26339533   2.222   4.748   1.915 -0.0091  0.3952 -0.2156
   86MOL   C26439534   2.102   4.816   1.882  0.4937  0.2332 -0.1440
   86MOL   C26539535   1.965   4.755   1.910  0.2230  0.3138  0.6306
   86MOL   O26639536   1.869   4.794   1.845  0.3140 -0.1574  0.4898
   86MOL   O26739537   1.956   4.645   1.984 -0.1940  0.6851 -0.1131
   86MOL   C26839538   2.115   4.944   1.823 -0.7613 -0.5165 -0.1455
   86MOL   C26939539   2.241   5.000   1.791 -0.1022 -0.6292  0.7508
   86MOL   H27039540   2.654   5.144   1.507 -0.7168  1.1782  1.1690
   86MOL   H27139541   2.689   5.007   1.589  1.3696  0.7100 -0.0349
   86MOL   H27239542   2.573   5.266   1.682  0.4912  0.0645 -0.2211
   86MOL   H27339543   2.656   5.161   1.797  0.7487 -0.1917 -0.3659
   86MOL   H27439544   2.428   4.733   1.900 -0.7458 -0.4975 -0.2784
   86MOL   H27539545   2.212   4.648   1.955  0.8611 -0.2005 -1.4725
   86MOL   H27639546   2.027   4.991   1.782 -1.1930 -1.2563 -0.0815
   86MOL   H27739547   2.249   5.097   1.744  1.8545  0.1264  2.5785
   86MOL   O27839548   1.817   4.595   2.015  0.4965  0.2433 -0.0208
   86MOL   C27939549   1.784   4.620   2.146 -0.0917 -0.2393 -0.5777
   86MOL   C28039550   1.642   4.577   2.173  0.2468 -0.0611 -0.4346
   86MOL   O28139551   1.626   4.449   2.237  0.3461 -0.6917  0.2462
   86MOL   C28239552   1.622   4.430   2.370  0.4601  0.0828 -0.4844
   86MOL   O28339553   1.633   4.524   2.449 -0.1616  0.2462 -0.2718
   86MOL   C28439554   1.620   4.283   2.413  0.2829  0.0856  0.1636
   86MOL   C28539555   1.665   4.230   2.531  0.4049 -0.1006 -0.1602
   86MOL   C28639556   1.647   4.093   2.564 -0.5493 -0.0581  0.2666
   86MOL   C28739557   1.597   4.006   2.468  0.2411 -0.2123  0.0646
   86MOL   C28839558   1.588   3.852   2.501  0.2734  0.0788 -0.8237
   86MOL   O28939559   1.572   3.821   2.619 -0.5010 -0.2066 -0.0022
   86MOL   O29039560   1.584   3.763   2.393  0.0445  0.0523 -0.0855
   86MOL   C29139561   1.564   4.057   2.337  0.0704 -0.5873  0.5667
   86MOL   C29239562   1.573   4.192   2.317 -0.6977  0.4772  0.2245
   86MOL   H29339563   1.855   4.570   2.213 -1.2483 -0.6114  0.3808
   86MOL   H29439564   1.781   4.729   2.157 -2.7326 -0.2620 -0.9074
   86MOL   H29539565   1.576   4.571   2.086 -3.2735  0.7673  2.0614
   86MOL   H29639566   1.589   4.644   2.241 -3.2994 -2.4526 -0.7403
   86MOL   H29739567   1.688   4.288   2.619 -1.3577  0.2705  0.0791
   86MOL   H29839568   1.670   4.053   2.661  1.4213 -1.8631 -0.9082
   86MOL   H29939569   1.516   3.993   2.265 -0.6161 -1.1277  1.4878
   86MOL   H30039570   1.554   4.229   2.218 -1.3305 -0.7753 -0.1360
   86MOL   O30139571   1.622   3.627   2.428  0.1667  0.0161  0.2583
   86MOL   C30239572   1.766   3.616   2.419  0.0777  0.0725 -0.6010
   86MOL   C30339573   1.826   3.477   2.422 -0.0592  0.6878  0.1769
   86MOL   O30439574   1.946   3.472   2.502 -0.0276  0.1892  0.4789
   86MOL   C30539575   2.041   3.381   2.464  0.2727 -0.2922 -0.6508
   86MOL   O30639576   2.025   3.291   2.379  0.1091  0.4880 -0.1132
   86MOL   C30739577   2.164   3.394   2.541  0.2064  0.2527  0.0510
   86MOL   C30839578   2.274   3.309   2.513  0.2704  0.1239  0.2740
   86MOL   C30939579   2.403   3.332   2.571 -0.4305 -0.5506  0.3804
   86MOL   C31039580   2.420   3.437   2.665  0.2840 -0.4211 -0.9148
   86MOL   C31139581   2.551   3.447   2.731  0.0167 -0.1077 -0.4521
   86MOL   O31239582   2.634   3.362   2.744  0.2874  0.1175  0.7593
   86MOL   O31339583   2.574   3.565   2.786  0.3372  0.0986  0.4243
   86MOL   C31439584   2.312   3.526   2.690  0.5302  0.2809 -0.3911
   86MOL   C31539585   2.186   3.502   2.631  0.1006  0.6086  0.5280
   86MOL   H31639586   1.801   3.667   2.328 -0.5504  0.0990 -0.8263
   86MOL   H31739587   1.808   3.675   2.501 -1.3514 -1.3704  1.1706
   86MOL   H31839588   1.860   3.447   2.323  0.5712  0.6315  0.4077
   86MOL   H31939589   1.752   3.406   2.458 -0.2738  0.8111 -0.0153
   86MOL   H32039590   2.266   3.225   2.445  0.7362  0.2794  0.0336
   86MOL   H32139591   2.485   3.269   2.541  0.9946  1.2520  0.4596
   86MOL   H32239592   2.312   3.598   2.771 -0.2382 -2.3239  1.9915
   86MOL   H32339593   2.114   3.580   2.648 -1.4927 -0.8487  0.6453
   86MOL   O32439594   2.718   3.602   2.799 -0.2768 -0.1734  0.3315
   86MOL   C32539595   2.772   3.564   2.928 -0.3079  0.3945 -0.2699
   86MOL   C32639596   2.923   3.579   2.922  0.5125  0.1498 -0.0510
   86MOL   O32739597   2.992   3.474   2.851  0.3557  0.4872 -0.3507
   86MOL   C32839598   2.984   3.340   2.886 -0.0393 -0.0606  0.3385
   86MOL   O32939599   2.931   3.296   2.985 -0.1339  0.1424 -0.3070
   86MOL   C33039600   3.054   3.243   2.803 -0.2358 -0.1885  0.3022
   86MOL   C33139601   3.133   3.281   2.698  0.6054 -0.4285 -0.1532
   86MOL   C33239602   3.197   3.188   2.617  0.5885  0.0359 -0.1582
   86MOL   C33339603   3.186   3.053   2.655 -0.2389  0.3642 -0.6507
   86MOL   C33439604   3.263   2.945   2.580 -0.1822 -0.0642 -0.0184
   86MOL   O33539605   3.233   2.826   2.578 -0.6888  0.1795 -0.2506
   86MOL   O33639606   3.367   2.995   2.510  0.4065  0.0442 -0.1613
   86MOL   C33739607   3.104   3.005   2.761  0.6015 -0.4430 -0.2878
   86MOL   C33839608   3.040   3.106   2.835  0.4833 -0.3348  0.2361
   86MOL   H33939609   2.732   3.639   2.996 -0.1713 -0.5870  0.8932
   86MOL   H34039610   2.729   3.468   2.957  0.0583  0.7704  1.5601
   86MOL   H34139611   2.963   3.595   3.022  1.3218  0.7620 -0.4731
   86MOL   H34239612   2.952   3.672   2.873  1.8306  1.5607  3.2956
   86MOL   H34339613   3.147   3.385   2.670 -0.0052 -0.5779 -1.0756
   86MOL   H34439614   3.256   3.218   2.531 -0.4184  0.3427 -0.7545
   86MOL   H34539615   3.103   2.902   2.792  4.3254 -0.3150  0.4893
   86MOL   H34639616   2.974   3.080   2.916 -1.5040  1.6432 -0.7094
   86MOL   O34739617   3.469   2.894   2.456  0.2753  0.1014  0.5327
   86MOL   C34839618   3.451   2.876   2.319 -0.2415  0.3040 -0.3838
   86MOL   C34939619   3.563   2.780   2.264 -0.4842 -0.1560  0.2226
   86MOL   O35039620   3.559   2.662   2.342  0.4391 -0.0364  0.1201
   86MOL   C35139621   3.455   2.580   2.342  0.0445  0.0761 -0.2752
   86MOL   O35239622   3.351   2.594   2.272  0.0031  0.4149  0.3007
   86MOL   C35339623   3.497   2.456   2.424  0.0086 -0.1015 -0.1061
   86MOL   C35439624   3.390   2.379   2.479  0.3505  0.4810 -0.0153
   86MOL   C35539625   3.417   2.266   2.560 -0.5376  1.1535 -0.2706
   86MOL   C35639626   3.555   2.233   2.574 -0.2244  1.0202  0.6548
   86MOL   C35739627   3.599   2.110   2.644  0.1252 -0.2964 -0.2677
   86MOL   O35839628   3.713   2.057   2.632 -0.8169  0.0951  0.3865
   86MOL   O35939629   3.499   2.058   2.717 -0.8185 -0.4122  0.3558
   86MOL   C36039630   3.662   2.307   2.523 -0.2642 -0.5947  0.1949
   86MOL   C36139631   3.632   2.420   2.450  0.5433 -1.3231  1.0625
   86MOL   H36239632   3.349   2.843   2.302 -0.1821  1.1081 -2.3762
   86MOL   H36339633   3.460   2.974   2.272 -4.9731  1.7395  1.4271
   86MOL   H36439634   3.662   2.825   2.255 -0.6264  0.2923  0.8397
   86MOL   H36539635   3.527   2.757   2.164 -1.8106  2.4986  0.0541
   86MOL   H36639636   3.290   2.398   2.445  0.4871 -0.8014 -1.1963
   86MOL   H36739637   3.342   2.197   2.594  0.5206  0.4106  0.5604
   86MOL   H36839638   3.766   2.279   2.532 -0.0038  0.5434  0.9089
   86MOL   H36939639   3.714   2.471   2.402 -0.2213 -1.9344 -0.9321
   86MOL   O37039640   3.554   1.953   2.808  0.4535 -0.0336  0.6145
   86MOL   C37139641   3.516   1.829   2.752 -1.2800 -0.1998 -0.5679
   86MOL   C37239642   3.572   1.713   2.835  0.6371  0.1864  0.2446
   86MOL   O37339643   3.706   1.687   2.800 -0.0189 -0.4413 -0.1165
   86MOL   C37439644   3.740   1.576   2.733 -0.1775 -0.5371  0.0745
   86MOL   O37539645   3.661   1.482   2.708  0.0196  0.7727  0.1404
   86MOL   C37639646   3.888   1.577   2.693 -0.2812  0.3338  0.1868
   86MOL   C37739647   3.968   1.690   2.695  0.0120 -0.4813  0.5683
   86MOL   C37839648   4.098   1.692   2.651  0.3855 -0.1472 -0.0102
   86MOL   C37939649   4.148   1.577   2.584 -0.5630  0.8416  0.2597
   86MOL   C38039650   4.297   1.568   2.544 -0.0716  0.3510  0.2464
   86MOL   O38139651   4.351   1.461   2.529 -0.6417  0.2028  0.1068
   86MOL   O38239652   4.354   1.688   2.533 -0.2679  0.5209  0.2072
   86MOL   C38339653   4.070   1.459   2.580  0.1693  0.2674  0.2336
   86MOL   C38439654   3.944   1.460   2.638 -0.5284  0.3225 -0.3578
   86MOL   H38539655   3.408   1.833   2.767 -0.9441  1.6445  1.6194
   86MOL   H38639656   3.522   1.820   2.644  2.3497  0.2883 -0.4557
   86MOL   H38739657   3.504   1.629   2.819 -0.0311  0.6405  0.6463
   86MOL   H38839658   3.569   1.725   2.944  1.7043 -3.6180  0.7687
   86MOL   H38939659   3.920   1.777   2.736 -2.3220 -0.4617 -2.0703
   86MOL   H39039660   4.160   1.779   2.666  2.3595 -1.5092 -0.0448
   86MOL   H39139661   4.092   1.367   2.528 -0.0109 -0.5426  1.5594
   86MOL   H39239662   3.878   1.375   2.632 -2.5565  1.8809 -0.5173
   86MOL   O39339663   4.499   1.685   2.546  0.0561  0.6547  0.2171
   86MOL   C39439664   4.523   1.713   2.682  0.1130 -0.3301  0.0844
   86MOL   C39539665   4.530   1.581   2.768  0.1464 -0.0030 -0.0007
   86MOL   O39639666   4.568   1.611   2.899  0.0622 -0.4612 -0.0129
   86MOL   C39739667   4.491   1.694   2.974 -0.0382 -0.0279 -0.6129
   86MOL   O39839668   4.386   1.739   2.938  0.4448 -0.0370 -0.0067
   86MOL   C39939669   4.547   1.735   3.102 -0.3319  0.0331 -0.6771
   86MOL   C40039670   4.483   1.841   3.173 -0.0659  0.1586  0.8391
   86MOL   C40139671   4.530   1.873   3.304  1.0344  0.3714  0.7862
   86MOL   C40239672   4.652   1.824   3.350 -0.1621  0.4156 -0.2304
   86MOL   C40339673   4.691   1.856   3.490  0.3119 -0.4047  0.4077
   86MOL   O40439674   4.618   1.924   3.566  0.6159 -0.7798  0.4216
   86MOL   O40539675   4.813   1.817   3.513 -0.4197 -0.4293  0.3453
   86MOL   C40639676   4.721   1.719   3.282  0.2111  0.8448  0.4297
   86MOL   C40739677   4.671   1.682   3.152 -0.5866  0.2833 -0.5656
   86MOL   H40839678   4.621   1.760   2.679 -0.5752  1.1009 -0.9121
   86MOL   H40939679   4.460   1.794   2.719  0.4235 -0.2307  0.3974
   86MOL   H41039680   4.589   1.502   2.721 -0.6207 -1.1257  0.8961
   86MOL   H41139681   4.435   1.527   2.779  0.6508 -1.2940 -1.7437
   86MOL   H41239682   4.394   1.887   3.134  1.2893  1.7765 -0.4159
   86MOL   H41339683   4.474   1.946   3.360 -2.9901 -1.3885 -0.8108
   86MOL   H41439684   4.807   1.672   3.327 -0.2338 -0.3506  0.0509
   86MOL   H41539685   4.714   1.597   3.103 -0.0949 -0.5471  1.2413
   86MOL   O41639686   4.884   1.871   3.642  0.0165  0.4209  0.1135
   86MOL   C41739687   4.867   1.772   3.739  0.2525 -0.4395 -0.3643
   86MOL   C41839688   4.959   1.768   3.859 -0.0801 -0.5956 -0.2190
   86MOL   O41939689   5.091   1.716   3.824  0.2726 -0.0306 -0.0538
   86MOL   C42039690   5.163   1.641   3.911  0.1897 -0.0565  0.0003
   86MOL   O42139691   5.119   1.569   3.994  0.2333  0.5314  0.3640
   86MOL   C42239692   5.311   1.639   3.880  0.9183  0.0784 -0.0180
   86MOL   C42339693   5.382   1.535   3.942  0.9720  0.7805 -0.1638
   86MOL   C42439694   5.521   1.523   3.921 -0.2245  0.2005 -0.1789
   86MOL   C42539695   5.588   1.610   3.834 -0.2297  0.5071  0.6151
   86MOL   C42639696   5.737   1.585   3.820 -0.0721 -0.0265  0.3540
   86MOL   O42739697   5.795   1.489   3.866  0.1007 -0.2133  0.3762
   86MOL   O42839698   5.796   1.676   3.747  0.1212  0.4385 -0.3352
   86MOL   C42939699   5.517   1.719   3.776  0.4572 -0.1557 -0.2762
   86MOL   C43039700   5.375   1.734   3.794 -0.0035 -0.2140  0.1140
   86MOL   H43139701   4.766   1.782   3.779  1.0219 -0.2177  1.5828
   86MOL   H43239702   4.861   1.671   3.700  0.6273 -0.8024  0.5008
   86MOL   H43339703   4.919   1.700   3.934  0.8553  0.3906  1.1935
   86MOL   H43439704   4.969   1.869   3.898 -0.9470 -0.1293 -1.1771
   86MOL   H43539705   5.343   1.463   4.012  1.1055 -0.0511 -0.9263
   86MOL   H43639706   5.562   1.444   3.983 -0.9830  2.2111  2.9956
   86MOL   H43739707   5.561   1.786   3.705  1.6484 -0.9598 -0.3092
   86MOL   H43839708   5.328   1.821   3.749  3.0558  1.4438 -0.0124
   86MOL   O43939709   5.933   1.642   3.704 -0.3673 -0.5709  1.0796
   86MOL   C44039710   5.925   1.627   3.561  0.4053  0.2411 -0.2964
   86MOL   C44139711   6.067   1.625   3.506  0.1514 -0.5539 -0.0183
   86MOL   O44239712   6.137   1.509   3.539  0.0571  0.1962 -0.0294
   86MOL   C44339713   6.120   1.396   3.468 -0.3005 -0.5379 -0.4023
   86MOL   O44439714   6.033   1.381   3.384  0.5761  0.6740 -0.6026
   86MOL   C44539715   6.209   1.292   3.515 -0.3023 -0.0408 -0.0946
   86MOL   C44639716   6.216   1.169   3.444 -0.0871  0.5627 -0.3764
   86MOL   C44739717   6.282   1.055   3.500 -0.5392  0.5037 -0.1417
   86MOL   C44839718   6.364   1.068   3.612 -0.9779 -0.4364  0.3842
   86MOL   C44939719   6.429   0.947   3.675  0.7586 -0.2983 -0.2861
   86MOL   O45039720   6.489   0.957   3.782  0.1697 -0.0410 -0.0366
   86MOL   O45139721   6.416   0.830   3.613 -0.2662  0.2630  0.2395
   86MOL   C45239722   6.368   1.195   3.679 -0.3260 -0.6679 -0.2864
   86MOL   C45339723   6.290   1.304   3.630  1.0128  0.2451  0.1334
   86MOL   H45439724   5.857   1.554   3.518  1.0138 -0.1397 -0.6154
   86MOL   H45539725   5.887   1.723   3.525 -0.8530 -0.3883 -0.6806
   86MOL   H45639726   6.118   1.710   3.550 -2.1664  0.2343  1.2286
   86MOL   H45739727   6.055   1.631   3.397 -1.0439 -2.8596 -0.0529
   86MOL   H45839728   6.171   1.161   3.347 -2.3560  2.0244  0.5040
   86MOL   H45939729   6.266   0.966   3.442  0.3053  0.3589 -0.1575
   86MOL   H46039730   6.420   1.205   3.773 -1.5866  1.2259  0.2449
   86MOL   H46139731   6.290   1.396   3.687 -0.1378  0.8503 -0.8292
   86MOL   H46239732   6.440   0.772   3.684  0.9608  2.1584  1.4320
   87MOL     O139733   1.796   7.655   3.149  0.0924  0.2100  0.2413
   87MOL     C239734   1.860   7.533   3.103  0.2731 -0.5161 -0.5089
   87MOL     C339735   1.768   7.446   3.035  0.0719  0.3623 -0.1735
   87MOL     O439736   1.662   7.416   3.118 -0.3696  0.1824 -0.2442
   87MOL     C539737   1.577   7.322   3.081 -0.6570  0.4081 -0.1739
   87MOL     O639738   1.573   7.263   2.978  0.3252 -0.0933 -0.7246
   87MOL     C739739   1.466   7.306   3.180  0.3734 -0.0912  0.3078
   87MOL     C839740   1.488   7.304   3.318 -0.0266 -0.3923  0.5993
   87MOL     C939741   1.389   7.287   3.411 -0.1238 -0.6596 -0.6186
   87MOL    C1039742   1.260   7.282   3.365 -0.1679 -0.2001  0.1051
   87MOL    C1139743   1.150   7.281   3.457 -0.0866  0.1787 -0.1579
   87MOL    O1239744   1.052   7.363   3.451 -0.1824  0.1540  0.5251
   87MOL    O1339745   1.162   7.185   3.545 -0.5433 -1.1511  0.2406
   87MOL    C1439746   1.230   7.287   3.232 -0.2659 -0.0874  0.5450
   87MOL    C1539747   1.327   7.295   3.133 -0.5984 -0.4331  0.4933
   87MOL    H1639748   1.934   7.560   3.028  1.0591  0.7897  0.7011
   87MOL    H1739749   1.908   7.483   3.187 -0.7195 -3.1053 -1.4543
   87MOL    H1839750   1.819   7.354   3.007 -0.1509 -0.3297  1.6431
   87MOL    H1939751   1.729   7.496   2.946 -2.3216 -1.8157 -0.4076
   87MOL    H2039752   1.588   7.318   3.356 -0.1322  1.5259  0.2635
   87MOL    H2139753   1.405   7.274   3.517  1.5272 -0.6760 -0.8671
   87MOL    H2239754   1.128   7.281   3.198  0.2375 -0.5165 -0.9053
   87MOL    H2339755   1.297   7.303   3.030  0.6497 -1.3236  0.0465
   87MOL    H2439756   1.714   7.627   3.187 -0.7904  0.9139 -1.1084
   87MOL    O2539757   1.044   7.170   3.629  0.4558 -0.4418  0.2696
   87MOL    C2639758   1.067   7.221   3.762 -0.0225  0.2962  0.6191
   87MOL    C2739759   1.145   7.123   3.849  0.5937  0.2323 -0.3795
   87MOL    O2839760   1.177   7.180   3.978 -0.3969  0.4844  0.2128
   87MOL    C2939761   1.301   7.221   3.996  0.2709  0.1545 -0.0946
   87MOL    O3039762   1.382   7.231   3.906 -0.2830  0.0415 -0.1194
   87MOL    C3139763   1.329   7.263   4.136 -0.4713  0.1889 -0.3884
   87MOL    C3239764   1.238   7.229   4.234  0.4464 -0.4920  0.6316
   87MOL    C3339765   1.259   7.269   4.367 -0.2877  0.3242 -0.4384
   87MOL    C3439766   1.376   7.345   4.406  0.0289  0.0697 -0.3061
   87MOL    C3539767   1.395   7.383   4.550  0.2215 -0.0283 -0.1555
   87MOL    O3639768   1.485   7.456   4.580  0.3370  0.2103 -0.2320
   87MOL    O3739769   1.308   7.331   4.641 -0.3768  0.2590  0.1672
   87MOL    C3839770   1.470   7.381   4.309  0.1194  0.4426  0.4700
   87MOL    C3939771   1.443   7.343   4.174  0.0117  0.2110 -0.2535
   87MOL    H4039772   1.124   7.313   3.749 -0.2222  0.3531  0.1407
   87MOL    H4139773   0.970   7.252   3.800 -1.0951 -1.4215 -0.6261
   87MOL    H4239774   1.237   7.086   3.804  0.2334 -0.3906 -0.6158
   87MOL    H4339775   1.076   7.040   3.869 -0.1679  0.5778 -1.5291
   87MOL    H4439776   1.156   7.162   4.215 -0.1493  0.7560 -1.2561
   87MOL    H4539777   1.193   7.236   4.445  0.0325  0.9291  0.0918
   87MOL    H4639778   1.562   7.430   4.339  2.5066 -1.7653 -2.8346
   87MOL    H4739779   1.511   7.384   4.101  0.7887  0.0511  0.3733
   87MOL    O4839780   1.336   7.379   4.781  0.0659 -0.1081 -0.2377
   87MOL    C4939781   1.263   7.503   4.800  0.0531 -0.1654 -0.0522
   87MOL    C5039782   1.191   7.495   4.933  0.3038  0.3569  0.5447
   87MOL    O5139783   1.147   7.625   4.956 -0.0177  0.0691 -0.1571
   87MOL    C5239784   1.094   7.656   5.072  0.0214  0.2355  0.4257
   87MOL    O5339785   1.083   7.573   5.162  0.2994  0.4006  0.3349
   87MOL    C5439786   1.068   7.799   5.088  0.2079 -0.2104  0.0476
   87MOL    C5539787   1.026   7.851   5.212  0.0509 -0.8840  0.2778
   87MOL    C5639788   0.997   7.988   5.224  0.2304 -0.8955  0.0075
   87MOL    C5739789   1.015   8.076   5.114  0.5261 -0.6054  0.3340
   87MOL    C5839790   0.980   8.223   5.134  0.2241  0.6696  0.6818
   87MOL    O5939791   0.941   8.269   5.240  0.4112 -0.2198 -0.3029
   87MOL    O6039792   0.993   0.021   5.026 -0.5473 -0.0712 -0.0875
   87MOL    C6139793   1.056   8.029   4.988  0.5832 -0.7220  0.0767
   87MOL    C6239794   1.079   7.890   4.976 -0.6294 -0.6629  0.3660
   87MOL    H6339795   1.331   7.588   4.802 -0.1031 -0.0579  1.7702
   87MOL    H6439796   1.198   7.513   4.713 -0.3724 -2.0748  0.0149
   87MOL    H6539797   1.254   7.456   5.014  0.4828 -2.2855 -0.8139
   87MOL    H6639798   1.104   7.431   4.916 -0.2599  0.8404  1.4894
   87MOL    H6739799   1.000   7.780   5.290 -0.1472 -0.1084  0.9264
   87MOL    H6839800   0.960   8.026   5.318 -2.1150  0.0105 -1.2579
   87MOL    H6939801   1.077   8.087   4.899  1.0952  1.5866  1.6477
   87MOL    H7039802   1.115   7.842   4.886 -0.4549  0.6165 -0.2662
   87MOL    O7139803   0.953   0.163   5.044  0.5141 -0.0234 -0.4146
   87MOL    C7239804   1.064   0.249   5.016 -0.5488 -0.1629 -0.6973
   87MOL    C7339805   0.990   0.384   5.041 -0.0198 -0.1308 -0.9148
   87MOL    O7439806   0.951   0.388   5.174  0.2041 -0.1937 -0.3205
   87MOL    C7539807   0.879   0.500   5.209 -0.2407 -0.3925  0.4983
   87MOL    O7639808   0.870   0.600   5.140  0.4712 -0.3277 -0.2193
   87MOL    C7739809   0.809   0.478   5.342 -0.8846  0.1512 -0.5249
   87MOL    C7839810   0.815   0.352   5.402  0.1062 -0.4333  0.7184
   87MOL    C7939811   0.748   0.334   5.525  0.1453  0.1625  0.6053
   87MOL    C8039812   0.679   0.435   5.592 -0.0806  0.0502 -0.5680
   87MOL    C8139813   0.607   0.398   5.724  0.2983  0.1332 -0.8570
   87MOL    O8239814   0.560   0.477   5.803 -0.0633  0.4092  0.4510
   87MOL    O8339815   0.596   0.262   5.744  0.3214 -0.1443  0.0128
   87MOL    C8439816   0.687   0.563   5.537 -0.3370  0.7752  0.2679
   87MOL    C8539817   0.742   0.583   5.410 -0.4688 -0.1775  0.0723
   87MOL    H8639818   1.146   0.230   5.085 -2.6962 -0.4669  1.8446
   87MOL    H8739819   1.097   0.246   4.912 -3.2710 -0.7794 -1.5852
   87MOL    H8839820   0.907   0.389   4.971 -0.6032  0.0776 -0.2190
   87MOL    H8939821   1.059   0.466   5.021  0.3604 -0.3537 -0.5159
   87MOL    H9039822   0.864   0.265   5.363  0.4908  0.0297  0.1685
   87MOL    H9139823   0.736   0.230   5.550 -1.8732 -0.4018 -2.3483
   87MOL    H9239824   0.641   0.642   5.595 -2.0532 -0.0876  0.1063
   87MOL    H9339825   0.751   0.679   5.360  1.6746 -0.2779  0.2321
   87MOL    O9439826   0.508   0.219   5.853 -0.3382 -0.1583 -0.2865
   87MOL    C9539827   0.581   0.204   5.976 -0.1904 -0.7450  0.2430
   87MOL    C9639828   0.650   0.068   5.968 -0.3159  0.3689 -0.1719
   87MOL    O9739829   0.560   8.237   5.986  0.0870 -0.4107 -0.4547
   87MOL    C9839830   0.548   8.189   6.110  0.1146 -0.5567 -0.0523
   87MOL    O9939831   0.624   8.235   6.198  0.0486  0.1697 -0.1081
   87MOL   C10039832   0.432   8.094   6.128  0.0773  0.1488  0.0656
   87MOL   C10139833   0.353   8.101   6.246  0.1684 -0.1798 -0.3296
   87MOL   C10239834   0.249   8.010   6.267 -0.3595  0.2895 -0.2853
   87MOL   C10339835   0.225   7.907   6.174 -0.2571  0.7595  0.5110
   87MOL   C10439836   0.130   7.794   6.208 -0.2586 -0.3212  0.9700
   87MOL   O10539837   0.136   7.688   6.144  0.2832 -0.4159 -0.0278
   87MOL   O10639838   0.044   7.814   6.317 -0.0336  1.1859  0.0351
   87MOL   C10739839   0.303   7.897   6.053  0.1562  0.3033  0.0209
   87MOL   C10839840   0.404   7.996   6.030 -0.3131 -0.3884  0.0426
   87MOL   H10939841   0.654   0.284   5.990 -1.9227  1.4666 -2.6522
   87MOL   H11039842   0.507   0.210   6.056 -0.8739 -0.7591 -0.3858
   87MOL   H11139843   0.727   0.081   6.044 -1.3046 -1.2533  1.1518
   87MOL   H11239844   0.706   0.067   5.874  0.1942  0.6031  0.1255
   87MOL   H11339845   0.370   8.176   6.321 -2.6314  0.8764 -0.6833
   87MOL   H11439846   0.190   8.019   6.356 -0.1615 -1.1843  0.0202
   87MOL   H11539847   0.291   7.820   5.979  3.4182 -1.6675  1.4205
   87MOL   H11639848   0.457   7.984   5.937  2.6520  1.1293  1.4521
   87MOL   O11739849   8.215   7.706   6.325  0.3686  0.1471  0.0005
   87MOL   C11839850   8.253   7.624   6.433 -0.8240 -0.3939 -0.0431
   87MOL   C11939851   8.188   7.485   6.426 -0.1141 -1.0354 -0.9736
   87MOL   O12039852   8.236   7.388   6.335  0.1205 -0.0909 -0.2075
   87MOL   C12139853   8.180   7.374   6.216 -0.1963 -0.0887  0.3081
   87MOL   O12239854   8.072   7.429   6.188 -0.3696  0.3169  0.7325
   87MOL   C12339855   8.265   7.302   6.119  0.8299 -0.2406  0.3228
   87MOL   C12439856   8.217   7.279   5.993  0.6928 -0.9128 -0.5623
   87MOL   C12539857   0.018   7.204   5.900  0.8462  0.3954 -0.3662
   87MOL   C12639858   0.149   7.160   5.933  0.2835 -0.5001 -0.0194
   87MOL   C12739859   0.237   7.083   5.838  0.5188  0.1214 -0.4517
   87MOL   O12839860   0.200   7.059   5.722  0.0939 -0.0639 -0.4299
   87MOL   O12939861   0.357   7.040   5.895  0.1142 -0.1244 -0.9203
   87MOL   C13039862   0.201   7.210   6.053  0.1264  0.3227 -0.1260
   87MOL   C13139863   0.126   7.283   6.143 -0.7575  0.0392 -0.2499
   87MOL   H13239864   0.085   7.618   6.446 -0.7397 -0.1197 -0.6110
   87MOL   H13339865   8.229   7.665   6.531 -0.5467 -0.6036  0.1116
   87MOL   H13439866   8.081   7.501   6.409  0.2144 -0.2957 -2.4667
   87MOL   H13539867   8.185   7.446   6.528  1.0115  0.5296 -0.3328
   87MOL   H13639868   8.118   7.311   5.965  0.8743  0.4417  0.3434
   87MOL   H13739869   8.253   7.186   5.801 -0.5986  2.1640 -0.1292
   87MOL   H13839870   0.306   7.201   6.080  0.1179 -0.1959 -0.2602
   87MOL   H13939871   0.176   7.309   6.235 -0.6001 -0.0761 -0.3018
   87MOL   O14039872   0.445   6.949   5.807 -0.0849 -0.3819  0.1131
   87MOL   C14139873   0.574   7.000   5.814  0.1441  0.1789  0.2670
   87MOL   C14239874   0.600   7.138   5.755 -0.1433 -0.6010  0.4438
   87MOL   O14339875   0.574   7.237   5.857  0.2031 -0.1035  0.1891
   87MOL   C14439876   0.675   7.273   5.941 -0.0264 -0.1060  0.1469
   87MOL   O14539877   0.790   7.223   5.926 -0.5233 -0.5411  0.4315
   87MOL   C14639878   0.636   7.376   6.043 -1.4019 -0.3238 -0.1472
   87MOL   C14739879   0.498   7.399   6.068  0.4425 -0.2401 -0.1206
   87MOL   C14839880   0.461   7.500   6.155 -0.2946  0.3179  0.1387
   87MOL   C14939881   0.560   7.574   6.229  1.0160  0.0102  0.2405
   87MOL   C15039882   0.522   7.673   6.330  0.0238 -0.3654  0.1404
   87MOL   O15139883   0.409   7.700   6.353 -0.0053  0.0179 -0.0226
   87MOL   O15239884   0.632   7.734   6.395  0.0651 -0.2355 -0.4940
   87MOL   C15339885   0.699   7.538   6.214 -0.4604  1.1568 -0.4610
   87MOL   C15439886   0.734   7.427   6.128  0.0688  0.1859 -0.7395
   87MOL   H15539887   0.624   6.990   5.911  2.2825  1.3494 -0.6592
   87MOL   H15639888   0.636   6.940   5.747  0.9144  0.3734  0.7907
   87MOL   H15739889   0.519   7.144   5.682  1.4497 -1.1339 -1.4146
   87MOL   H15839890   0.698   7.162   5.715 -1.1412 -1.5113 -2.7141
   87MOL   H15939891   0.420   7.356   6.007  1.2053 -4.1874  1.5108
   87MOL   H16039892   0.360   7.497   6.193  0.7777  0.3329  3.1785
   87MOL   H16139893   0.780   7.577   6.273  2.5179 -1.2487 -2.8379
   87MOL   H16239894   0.837   7.398   6.111 -0.2422 -1.7043  0.4133
   87MOL   O16339895   0.592   7.832   6.503 -0.3676  0.0718 -0.0517
   87MOL   C16439896   0.589   7.965   6.453 -0.0637  0.4570 -0.3388
   87MOL   C16539897   0.702   8.057   6.513  0.0904  0.1927 -0.4989
   87MOL   O16639898   0.666   8.090   6.640  0.1539  0.4708  0.6168
   87MOL   C16739899   0.758   8.140   6.720  0.0634  0.3173 -0.4691
   87MOL   O16839900   0.868   8.161   6.680  0.2791 -0.1578  0.4707
   87MOL   C16939901   0.712   8.173   6.852 -0.5973  0.1141 -0.8090
   87MOL   C17039902   0.587   8.136   6.898 -0.1394  0.9323 -0.0655
   87MOL   C17139903   0.536   8.181   7.024 -0.0994 -0.3768  0.2409
   87MOL   C17239904   0.612   8.267   7.099  0.1127 -0.7006 -0.4454
   87MOL   C17339905   0.553   0.032   7.232 -0.1879  0.0223  0.1461
   87MOL   O17439906   0.434   0.027   7.266  0.4442 -0.4891 -0.0711
   87MOL   O17539907   0.653   0.078   7.309  0.3279 -0.3590  0.2657
   87MOL   C17639908   0.745   0.031   7.059  0.0357 -0.4802  0.0917
   87MOL   C17739909   0.793   8.257   6.935 -0.1233 -0.4865  1.2814
   87MOL   H17839910   0.569   7.976   6.347  0.1143  1.8925 -0.2299
   87MOL   H17939911   0.493   7.999   6.493  0.1622 -0.3983  0.9553
   87MOL   H18039912   0.738   8.145   6.461  3.0234  1.4278  3.4430
   87MOL   H18139913   0.794   8.001   6.527 -0.7072 -0.8061  0.8899
   87MOL   H18239914   0.524   8.083   6.828  0.9804  0.3243 -0.6138
   87MOL   H18339915   0.436   8.156   7.057 -0.0975 -0.7538 -0.0387
   87MOL   H18439916   0.803   0.098   7.120 -1.6822 -0.0757  1.3296
   87MOL   H18539917   0.891   0.009   6.899  0.1635 -1.3764  1.3746
   87MOL   O18639918   0.598   0.153   7.432  0.1934 -0.6002  0.2055
   87MOL   C18739919   0.613   0.063   7.540 -0.7500  0.5923 -0.2731
   87MOL   C18839920   0.533   0.128   7.652 -0.4314  0.2814 -0.3895
   87MOL   O18939921   0.609   0.159   7.767 -0.2615  0.1795 -0.7114
   87MOL   C19039922   0.579   0.104   7.886  0.1417  0.0715 -0.5967
   87MOL   O19139923   0.490   0.018   7.905  0.0454 -0.3087 -0.0666
   87MOL   C19239924   0.669   0.154   7.989 -0.4845 -0.2555 -0.0324
   87MOL   C19339925   0.644   0.120   8.124 -0.8893 -0.6257  0.6081
   87MOL   C19439926   0.726   0.182   8.230 -0.3357  0.1672  0.5474
   87MOL   C19539927   0.833   0.268   8.198  1.0603 -0.0202 -0.5160
   87MOL   C19639928   0.918   0.309   0.043  0.2063 -0.1272 -0.7267
   87MOL   O19739929   0.907   0.257   0.156 -0.3508  0.0975 -0.1664
   87MOL   O19839930   0.991   0.424   0.021 -0.2652  0.0759 -0.1221
   87MOL   C19939931   0.855   0.292   8.062  0.5465 -0.1740  0.2188
   87MOL   C20039932   0.779   0.238   7.959  0.1724  0.5832  0.3273
   87MOL   H20139933   0.573   8.238   7.523 -1.1231  0.6711  0.1425
   87MOL   H20239934   0.717   0.062   7.574 -1.6834  0.7404  2.7369
   87MOL   H20339935   0.453   0.056   7.671 -0.6838  0.0562 -2.2101
   87MOL   H20439936   0.484   0.220   7.619  0.1627  0.6633 -0.2064
   87MOL   H20539937   0.557   0.062   8.151 -0.1894 -0.6286  3.0085
   87MOL   H20639938   0.705   0.161   0.058  2.5139  0.8929  1.3179
   87MOL   H20739939   0.945   0.347   8.036  0.9600 -1.0045 -0.1538
   87MOL   H20839940   0.794   0.284   7.863  1.6741  1.1130  0.7937
   87MOL   O20939941   1.006   0.510   0.150  0.5633  0.7814 -0.3600
   87MOL   C21039942   0.893   0.592   0.166  0.7876  0.2085 -0.5997
   87MOL   C21139943   0.914   0.720   0.075  0.1221  0.2485 -0.0234
   87MOL   O21239944   0.883   0.688   8.210 -0.0994 -0.6550 -0.3927
   87MOL   C21339945   0.762   0.649   8.165  0.0021  0.1297 -0.0581
   87MOL   O21439946   0.666   0.640   8.235  1.2113  0.8001  0.2410
   87MOL   C21539947   0.752   0.623   8.024 -0.2153  1.1381 -0.2791
   87MOL   C21639948   0.625   0.612   7.964 -0.2183 -1.0100 -0.3579
   87MOL   C21739949   0.610   0.593   7.825 -0.0707 -0.0383  0.3442
   87MOL   C21839950   0.723   0.572   7.742 -0.6083 -0.8169  0.2533
   87MOL   C21939951   0.704   0.547   7.595  0.9108  0.3861  0.1043
   87MOL   O22039952   0.592   0.538   7.545  0.2177  0.6342  0.6716
   87MOL   O22139953   0.817   0.538   7.526 -0.1983 -0.4393 -0.2349
   87MOL   C22239954   0.851   0.583   7.806  0.6557  0.1898 -0.1218
   87MOL   C22339955   0.868   0.598   7.943 -0.2996 -0.6042 -0.4929
   87MOL   H22439956   0.800   0.543   0.138 -0.6383  2.5440 -0.1282
   87MOL   H22539957   0.883   0.613   0.273 -1.2712  1.2755 -0.9683
   87MOL   H22639958   1.012   0.768   0.082 -0.6617  1.7463  0.9180
   87MOL   H22739959   0.843   0.794   0.111  1.2573  1.6721 -0.6719
   87MOL   H22839960   0.538   0.637   8.022  1.2469  2.4331  0.5178
   87MOL   H22939961   0.509   0.589   7.787  0.7400  0.2784 -1.9408
   87MOL   H23039962   0.936   0.571   7.741 -0.9712 -2.3324 -1.8924
   87MOL   H23139963   0.968   0.613   7.980  0.1366  0.3828 -2.0405
   87MOL   O23239964   0.797   0.531   7.377  0.6690 -0.8235 -0.1602
   87MOL   C23339965   0.805   0.663   7.327  0.7230 -0.6529  0.1591
   87MOL   C23439966   0.945   0.731   7.350 -0.1858  0.8284 -0.0899
   87MOL   O23539967   0.931   0.870   7.316  0.0889 -0.0927 -0.3012
   87MOL   C23639968   1.027   0.951   7.367 -1.2999  0.0913 -0.1336
   87MOL   O23739969   1.124   0.920   7.436 -0.1412  0.2668 -0.7504
   87MOL   C23839970   1.014   1.092   7.322  0.1451  0.1251  0.6177
   87MOL   C23939971   1.082   1.196   7.385  0.4903 -0.6743 -0.3843
   87MOL   C24039972   1.046   1.331   7.371 -0.2840 -0.5239  0.2461
   87MOL   C24139973   0.966   1.369   7.260  1.0121  0.3612 -0.5190
   87MOL   C24239974   0.955   1.518   7.230  0.8845  0.0367  0.1238
   87MOL   O24339975   1.026   1.598   7.286  0.0344  0.1601  0.1335
   87MOL   O24439976   0.871   1.550   7.134  0.0416  0.3689 -0.0225
   87MOL   C24539977   0.913   1.266   7.175  0.4191  0.2921 -0.5417
   87MOL   C24639978   0.931   1.128   7.211  0.2179  0.0073  0.0731
   87MOL   H24739979   0.776   0.667   7.222 -1.2829 -2.4675  0.6112
   87MOL   H24839980   0.731   0.725   7.376  0.6337  0.3146 -1.1586
   87MOL   H24939981   1.029   0.686   7.297 -1.2304 -0.8050 -0.3958
   87MOL   H25039982   0.976   0.728   7.454  0.1339  1.3658 -0.1673
   87MOL   H25139983   1.152   1.156   7.456  0.4560 -1.9338 -1.0394
   87MOL   H25239984   1.095   1.399   7.439  0.5805  1.3736 -2.1973
   87MOL   H25339985   0.848   1.298   7.095 -0.7034 -0.3789  0.0879
   87MOL   H25439986   0.884   1.054   7.147  1.1267 -0.8241  0.3644
   87MOL   O25539987   0.865   1.699   7.111 -0.2150  0.4758  0.1395
   87MOL   C25639988   0.746   1.752   7.175  0.1973 -0.1648  0.1917
   87MOL   C25739989   0.780   1.758   7.330  0.4948  0.0590 -0.7682
   87MOL   O25839990   0.882   1.854   7.360 -0.9041  0.7691  0.1538
   87MOL   C25939991   0.890   1.898   7.488  0.2780 -0.5113  0.1674
   87MOL   O26039992   0.818   1.853   7.580 -0.1558 -0.4494  0.0321
   87MOL   C26139993   0.983   2.014   7.508 -0.6052  0.2326 -0.5338
   87MOL   C26239994   0.979   2.082   7.634 -0.6269 -0.3729  0.2517
   87MOL   C26339995   1.054   2.198   7.642 -0.3209 -0.0691 -0.5053
   87MOL   C26439996   1.143   2.243   7.536  0.1634  0.3154  0.6811
   87MOL   C26539997   1.207   2.377   7.546  0.6912  0.0996  0.2790
   87MOL   O26639998   1.200   2.453   7.647  0.1986 -0.6065  0.4283
   87MOL   O26739999   1.269   2.408   7.432 -0.1081 -0.1618  0.2223
   87MOL   C26840000   1.157   2.162   7.423  0.5544 -0.6384 -0.1278
   87MOL   C26940001   1.074   2.055   7.408  0.1930 -0.2471  0.2591
   87MOL   H27040002   0.721   1.853   7.142 -0.4934 -0.3381  0.1914
   87MOL   H27140003   0.661   1.687   7.155 -0.3560  0.8585 -0.8758
   87MOL   H27240004   0.801   1.664   7.380  0.4581 -0.1745 -1.1910
   87MOL   H27340005   0.682   1.785   7.370 -0.0027 -2.9427  0.1099
   87MOL   H27440006   0.910   2.054   7.712  0.1643 -1.4069  0.6038
   87MOL   H27540007   1.043   2.255   7.733 -1.8437  1.8867 -1.8606
   87MOL   H27640008   1.225   2.193   7.345  1.1771  2.0802  1.4316
   87MOL   H27740009   1.088   2.007   7.312  1.6849 -0.0400  0.3533
   87MOL   O27840010   1.361   2.523   7.452 -0.6214  0.3685  0.4021
   87MOL   C27940011   1.315   2.631   7.368  0.3581  0.2375  0.1541
   87MOL   C28040012   1.308   2.593   7.224 -0.3945 -0.1828 -0.1094
   87MOL   O28140013   1.435   2.556   7.175 -0.1856  0.2880 -0.3662
   87MOL   C28240014   1.523   2.647   7.115 -0.1190  0.3746 -0.7837
   87MOL   O28340015   1.487   2.766   7.107  0.3674  0.3873  0.2895
   87MOL   C28440016   1.655   2.586   7.081  0.2343 -0.2938 -0.9856
   87MOL   C28540017   1.677   2.447   7.100 -0.4415 -0.2012  0.3630
   87MOL   C28640018   1.802   2.388   7.071 -0.3602 -0.2346 -1.0590
   87MOL   C28740019   1.907   2.461   7.011 -0.4104 -0.0066  0.5408
   87MOL   C28840020   2.034   2.383   6.974 -0.8061  0.1906 -0.8927
   87MOL   O28940021   2.044   2.266   6.999 -0.4711  0.4146 -0.1119
   87MOL   O29040022   2.127   2.454   6.917 -0.7601  0.3282  0.4274
   87MOL   C29140023   1.883   2.595   6.979  0.7361 -0.1783  0.5025
   87MOL   C29240024   1.760   2.662   7.017 -0.4467 -0.7295 -0.1987
   87MOL   H29340025   1.209   2.645   7.389  0.2815 -2.3511  1.6290
   87MOL   H29440026   1.372   2.723   7.386  0.2818  0.1292  0.9437
   87MOL   H29540027   1.268   2.680   7.171 -1.9630 -1.4001 -0.9687
   87MOL   H29640028   1.239   2.510   7.210 -2.7222  2.0610 -2.5997
   87MOL   H29740029   1.603   2.387   7.151  1.4265 -0.5667  2.7578
   87MOL   H29840030   1.824   2.284   7.090 -0.1848  0.5083  3.3001
   87MOL   H29940031   1.950   2.650   6.915 -0.9589  0.4838 -0.7460
   87MOL   H30040032   1.754   2.766   6.989  1.2977 -0.8667 -1.2001
   87MOL   O30140033   2.251   2.382   6.873  0.3080  0.0318 -0.5449
   87MOL   C30240034   2.361   2.409   6.965  0.5107 -0.1338  0.2812
   87MOL   C30340035   2.492   2.344   6.930  0.4385  0.3451 -0.2080
   87MOL   O30440036   2.498   2.204   6.956  0.8436 -0.0915 -0.7325
   87MOL   C30540037   2.615   2.142   6.948 -0.4644 -0.7220  0.0712
   87MOL   O30640038   2.724   2.202   6.968  0.1359 -0.2859 -0.0475
   87MOL   C30740039   2.604   1.992   6.929 -0.6407  0.1120 -0.3522
   87MOL   C30840040   2.720   1.910   6.935 -0.1536 -0.3856  0.5750
   87MOL   C30940041   2.717   1.771   6.907 -0.3853  1.0739 -0.1386
   87MOL   C31040042   2.596   1.715   6.868  0.0742  0.4210 -0.4174
   87MOL   C31140043   2.591   1.566   6.840  0.6924 -0.2552 -0.2314
   87MOL   O31240044   2.683   1.482   6.857  0.0042  0.0590  0.0535
   87MOL   O31340045   2.475   1.528   6.794  0.2870  0.4176 -0.5106
   87MOL   C31440046   2.479   1.798   6.865 -0.5957  0.0676 -0.2680
   87MOL   C31540047   2.477   1.934   6.909  0.6715  0.5191  0.1227
   87MOL   H31640048   2.366   2.517   6.953  0.5450 -0.1219  0.4061
   87MOL   H31740049   2.342   2.377   7.067 -1.2465  2.1826  0.7434
   87MOL   H31840050   2.564   2.390   6.998  0.5102 -0.5734  0.3347
   87MOL   H31940051   2.531   2.359   6.829  1.8043 -1.0455  0.1033
   87MOL   H32040052   2.808   1.963   6.966  0.1898 -0.6596  0.0762
   87MOL   H32140053   2.806   1.710   6.919 -0.5041  0.8247 -0.4968
   87MOL   H32240054   2.378   1.761   6.850 -1.4989  0.8395  3.3921
   87MOL   H32340055   2.381   1.985   6.907  1.4252  1.9138 -0.9344
   87MOL   O32440056   2.470   1.393   6.729 -0.5985 -0.0020  0.6417
   87MOL   C32540057   2.399   1.300   6.810 -0.3383  0.8011  0.5433
   87MOL   C32640058   2.407   1.167   6.742  0.2105  0.2337 -0.8727
   87MOL   O32740059   2.300   1.090   6.787  0.8763 -0.1468 -0.5156
   87MOL   C32840060   2.315   1.011   6.893 -0.0119  0.9606 -1.1050
   87MOL   O32940061   2.427   0.997   6.948 -0.6533 -0.4263 -0.6244
   87MOL   C33040062   2.194   0.931   6.926  0.1872  0.1190 -0.2886
   87MOL   C33140063   2.197   0.834   7.029 -0.4212  0.7082  0.0512
   87MOL   C33240064   2.092   0.742   7.054 -0.6711 -0.1272  0.7183
   87MOL   C33340065   1.971   0.753   6.979 -0.3596  0.2670  0.9434
   87MOL   C33440066   1.854   0.662   7.000 -0.2013  0.3602  0.5629
   87MOL   O33540067   1.810   0.622   7.114  0.5720  0.5591  0.6744
   87MOL   O33640068   1.805   0.619   6.883 -0.1696  0.3817  0.1506
   87MOL   C33740069   1.959   0.862   6.885  0.5830  0.2659  0.2927
   87MOL   C33840070   2.071   0.949   6.863 -1.0901 -0.2403 -1.0789
   87MOL   H33940071   2.442   1.288   6.910  1.4706 -1.6405 -0.4767
   87MOL   H34040072   2.295   1.330   6.824 -1.2293 -1.2036 -1.5142
   87MOL   H34140073   2.506   1.127   6.762  0.3340 -1.2077 -4.0006
   87MOL   H34240074   2.404   1.178   6.634  2.1132 -0.2747 -0.9838
   87MOL   H34340075   2.281   0.827   7.096 -1.3275  1.0644  1.2571
   87MOL   H34440076   2.106   0.669   7.132  0.6531  0.3189  0.9258
   87MOL   H34540077   1.878   0.875   6.815 -0.0697  0.2516  1.0411
   87MOL   H34640078   2.064   1.019   6.781  0.4128  0.4437 -0.6343
   87MOL   O34740079   1.690   0.528   6.893  0.1285 -0.4627 -0.3024
   87MOL   C34840080   1.744   0.402   6.902 -0.0135  0.2048 -0.0728
   87MOL   C34940081   1.636   0.305   6.963  0.0193  0.0096  0.6062
   87MOL   O35040082   1.647   0.277   7.099 -0.1844  0.1008  0.3282
   87MOL   C35140083   1.603   0.358   7.198  0.8804  0.3323 -0.2082
   87MOL   O35240084   1.532   0.454   7.177  0.4358 -0.5858 -0.3102
   87MOL   C35340085   1.643   0.308   7.332 -0.9718 -0.8602  0.1272
   87MOL   C35440086   1.725   0.195   7.345  0.5295 -0.1707  1.3311
   87MOL   C35540087   1.754   0.148   7.469  0.5931 -0.4086  0.2078
   87MOL   C35640088   1.694   0.197   7.588  0.3149  0.4108  0.1738
   87MOL   C35740089   1.720   0.137   7.720 -0.0466  0.0012  0.7938
   87MOL   O35840090   1.711   0.202   7.825 -0.0258 -0.1768  0.0948
   87MOL   O35940091   1.763   0.015   7.721  0.1111 -0.6710  0.4752
   87MOL   C36040092   1.618   0.312   7.578  0.3609  0.3615  0.4778
   87MOL   C36140093   1.584   0.372   7.451 -0.0518  0.1434  0.0333
   87MOL   H36240094   1.769   0.383   6.797 -1.3791  0.4065 -0.4479
   87MOL   H36340095   1.831   0.401   6.966 -1.4687 -1.4458  1.9340
   87MOL   H36440096   1.647   0.204   6.921 -0.0729  0.4358 -0.4561
   87MOL   H36540097   1.534   0.338   6.943 -0.0730  0.1992  1.3807
   87MOL   H36640098   1.767   0.151   7.256  0.0917 -1.5035  1.7741
   87MOL   H36740099   1.814   0.059   7.462  0.4069 -0.6947  2.0625
   87MOL   H36840100   1.569   0.353   7.665 -1.0186 -0.2308 -0.0209
   87MOL   H36940101   1.521   0.459   7.450  1.4711  1.3247  2.1117
   87MOL   O37040102   1.783   8.222   7.847 -0.4498  0.7525  0.1654
   87MOL   C37140103   1.690   8.113   7.850 -0.1621 -0.0276  0.0371
   87MOL   C37240104   1.561   8.179   7.914 -0.6147 -0.5281 -0.0967
   87MOL   O37340105   1.443   8.121   7.849 -0.2683  0.3796  0.3451
   87MOL   C37440106   1.396   8.170   7.732  0.0492 -0.2408 -0.2840
   87MOL   O37540107   1.468   8.242   7.659 -0.1970  0.1419  0.5635
   87MOL   C37640108   1.261   8.125   7.699  0.1997  0.5843  0.0271
   87MOL   C37740109   1.200   8.173   7.581 -0.1665  0.2483 -0.3393
   87MOL   C37840110   1.065   8.140   7.543  0.1452 -0.2369  0.4576
   87MOL   C37940111   0.989   8.057   7.633  0.4653  0.9206  0.6856
   87MOL   C38040112   0.848   8.027   7.596  0.9578 -0.6585 -0.3986
   87MOL   O38140113   0.782   8.100   7.522 -0.0776 -0.0919 -0.0009
   87MOL   O38240114   0.808   7.910   7.656 -0.2498  0.3122 -0.3735
   87MOL   C38340115   1.053   8.003   7.749  0.6375  0.6379 -0.0250
   87MOL   C38440116   1.181   8.040   7.782  0.4223  0.7722  0.3498
   87MOL   H38540117   1.682   8.067   7.751 -0.4839  0.2537 -0.0680
   87MOL   H38640118   1.731   8.044   7.923 -1.4358 -0.2161  0.5856
   87MOL   H38740119   1.564   0.013   7.907  1.1660 -0.4764  1.3118
   87MOL   H38840120   1.551   8.161   8.021 -0.4588  2.2170  0.4187
   87MOL   H38940121   1.261   8.233   7.515 -2.3532  0.5714 -2.1316
   87MOL   H39040122   1.024   8.174   7.449 -1.7284  0.7228  1.5864
   87MOL   H39140123   0.992   7.938   7.811  4.1348 -2.5504  0.2577
   87MOL   H39240124   1.231   8.006   7.872  0.5499  1.7832  0.6685
   87MOL   O39340125   0.665   7.880   7.631  0.0134 -0.2801 -0.1649
   87MOL   C39440126   0.590   7.937   7.741 -0.4836  0.2999 -0.3552
   87MOL   C39540127   0.443   7.897   7.722 -0.1716  0.6204 -1.2244
   87MOL   O39640128   0.430   7.761   7.773  0.5850 -0.3152 -0.5149
   87MOL   C39740129   0.314   7.696   7.761 -0.4803  0.3718  0.2521
   87MOL   O39840130   0.232   7.720   7.676 -0.2295 -0.6849  0.5340
   87MOL   C39940131   0.291   7.603   7.873  0.5204 -0.0808  0.3977
   87MOL   C40040132   0.192   7.503   7.866 -0.1769  0.3916  0.2320
   87MOL   C40140133   0.166   7.417   7.973  0.5177  0.3337  0.1478
   87MOL   C40240134   0.230   7.429   8.095  0.2979 -0.2979  0.1915
   87MOL   C40340135   0.189   7.343   8.205  0.1162 -0.5793  0.2363
   87MOL   O40440136   0.112   7.246   8.191 -0.0487 -0.0020 -0.4470
   87MOL   O40540137   0.244   7.386   0.043  0.0488 -0.2733 -0.0294
   87MOL   C40640138   0.335   7.519   8.103  0.2627  0.2717  0.3686
   87MOL   C40740139   0.358   7.615   7.999 -0.6778  0.4856  0.3634
   87MOL   H40840140   0.632   7.914   7.839  0.7302 -1.7589 -1.3225
   87MOL   H40940141   0.590   8.045   7.734 -0.4046  0.2180 -1.6293
   87MOL   H41040142   0.404   7.899   7.621 -0.6124  0.9514 -1.0498
   87MOL   H41140143   0.377   7.962   7.780  0.2367  0.5473 -0.6716
   87MOL   H41240144   0.130   7.484   7.780 -0.2196  0.2956  0.2836
   87MOL   H41340145   0.098   7.335   7.955  0.6002  0.5513 -1.2361
   87MOL   H41440146   0.391   7.522   8.195  1.9084 -1.1431 -0.5679
   87MOL   H41540147   0.427   7.694   8.026 -0.0516 -0.1315  0.5737
   87MOL   O41640148   0.201   7.301   0.162  0.1320  0.4749 -0.2081
   87MOL   C41740149   0.102   7.378   0.224 -0.1802  0.0829  0.2170
   87MOL   C41840150   0.055   7.311   0.354  0.7424 -0.2952 -0.0245
   87MOL   O41940151   0.155   7.286   0.451  0.0495 -0.0443  0.7658
   87MOL   C42040152   0.214   7.169   0.467 -0.1146 -0.8593  0.0852
   87MOL   O42140153   0.199   7.075   0.387 -0.0975 -0.2665 -0.0592
   87MOL   C42240154   0.308   7.166   0.579  0.1484  0.5192 -0.7747
   87MOL   C42340155   0.346   7.275   0.656 -0.6634 -0.2638 -0.7879
   87MOL   C42440156   0.430   7.258   0.767 -0.0517 -0.1502 -0.0636
   87MOL   C42540157   0.495   7.133   0.793 -0.1005 -0.1502 -0.3170
   87MOL   C42640158   0.591   7.121   0.901  0.6629  0.6154 -0.1631
   87MOL   O42740159   0.610   7.020   0.972  0.3696 -0.2597 -0.6305
   87MOL   O42840160   0.658   7.229   0.918  0.4751 -0.0980  0.0320
   87MOL   C42940161   0.456   7.024   0.714  0.8493 -0.4168 -0.3662
   87MOL   C43040162   0.354   7.037   0.617  0.6008  0.1400  1.1116
   87MOL   H43140163   0.140   7.479   0.236  1.3668 -0.3485 -0.8951
   87MOL   H43240164   0.016   7.369   0.157  1.0414  1.1587 -1.5343
   87MOL   H43340165   0.016   7.212   0.332  0.5863 -0.3475  0.4790
   87MOL   H43440166   8.245   7.369   0.389 -0.1265 -0.7274 -1.3877
   87MOL   H43540167   0.312   7.374   0.630 -0.6812 -0.3541 -1.1124
   87MOL   H43640168   0.479   7.340   0.817  1.3737 -1.0991  0.1346
   87MOL   H43740169   0.500   6.929   0.738 -1.3263 -0.4309  4.1119
   87MOL   H43840170   0.318   6.952   0.561  0.0124  1.2477 -0.2566
   87MOL   O43940171   0.689   7.260   1.064 -0.1641 -0.4337  0.3957
   87MOL   C44040172   0.628   7.378   1.105  0.8352 -0.1485  0.3841
   87MOL   C44140173   0.477   7.343   1.126 -0.5096 -0.6765  0.2540
   87MOL   O44240174   0.429   7.465   1.175  0.4243  0.2789 -0.4025
   87MOL   C44340175   0.419   7.484   1.311 -0.8783 -0.1352  0.7748
   87MOL   O44440176   0.473   7.409   1.396  0.1255  0.1804 -0.1186
   87MOL   C44540177   0.338   7.607   1.352  0.3245  0.3167  0.2386
   87MOL   C44640178   0.256   7.685   1.260 -0.5571  0.1578 -0.2648
   87MOL   C44740179   0.203   7.809   1.301  0.2317  0.0164 -0.2794
   87MOL   C44840180   0.211   7.857   1.433 -0.0082  0.4009  0.0554
   87MOL   C44940181   0.156   7.985   1.483 -1.3682  0.4741  0.2399
   87MOL   O45040182   0.073   8.056   1.431 -0.3731 -0.3186  0.6036
   87MOL   O45140183   0.217   8.031   1.595  0.5810 -0.0027  0.2044
   87MOL   C45240184   0.283   7.771   1.523 -0.1704  0.6657 -0.3176
   87MOL   C45340185   0.340   7.645   1.484 -0.2068 -0.1755 -0.6168
   87MOL   H45440186   0.673   7.394   1.203 -0.0730 -0.6437  0.8880
   87MOL   H45540187   0.647   7.464   1.040  1.6186 -0.4329  0.2248
   87MOL   H45640188   0.466   7.261   1.197  1.6125 -0.3637  0.9744
   87MOL   H45740189   0.434   7.316   1.029  0.6092 -0.0458 -0.4273
   87MOL   H45840190   0.248   7.646   1.159 -2.6247  0.3527 -0.2070
   87MOL   H45940191   0.160   7.875   1.228  0.8474  0.0911 -0.5827
   87MOL   H46040192   0.300   7.799   1.626  0.3797 -2.0240  0.3670
   87MOL   H46140193   0.404   7.590   1.551  0.9957  1.1418 -0.6558
   87MOL   H46240194   0.183   8.119   1.603  0.7515  0.2041 -1.3197
   88MOL     O140195   2.915   0.473   3.099  0.1836 -0.3150 -0.0148
   88MOL     C240196   3.048   0.431   3.087  0.0851  0.5747  0.1945
   88MOL     C340197   3.080   0.303   3.165 -0.4345 -0.2505  0.1318
   88MOL     O440198   3.070   0.187   3.078 -0.1134  0.1908 -0.3105
   88MOL     C540199   3.172   0.150   2.998  0.4838  0.4268  0.4623
   88MOL     O640200   3.278   0.205   2.998  0.4811  0.1048  0.9638
   88MOL     C740201   3.139   0.019   2.935 -0.5123 -0.4826  0.0907
   88MOL     C840202   3.248   8.229   2.877 -0.1005 -0.9268 -0.1762
   88MOL     C940203   3.238   8.107   2.815  0.2213 -0.3715  0.5056
   88MOL    C1040204   3.108   8.043   2.820  0.6136 -0.4728  0.0543
   88MOL    C1140205   3.083   7.908   2.762 -0.3811  0.8892 -0.2796
   88MOL    O1240206   2.975   7.846   2.774  0.8385  0.2126 -0.2443
   88MOL    O1340207   3.190   7.859   2.693 -0.4000  0.1011  0.3628
   88MOL    C1440208   2.998   8.108   2.877 -0.0927  0.4903  0.5307
   88MOL    C1540209   3.010   8.233   2.930 -0.4380  0.1602  0.6129
   88MOL    H1640210   3.078   0.431   2.982 -0.7218  1.7882 -0.0514
   88MOL    H1740211   3.105   0.511   3.134 -1.7812  2.2105 -0.2487
   88MOL    H1840212   3.018   0.283   3.252 -1.7908  1.3903 -0.4309
   88MOL    H1940213   3.173   0.320   3.221 -0.4559  1.7221 -0.3739
   88MOL    H2040214   3.346   8.275   2.872  0.6490 -2.6125 -1.4330
   88MOL    H2140215   3.327   8.066   2.770  1.2657 -0.3115  2.4485
   88MOL    H2240216   2.899   8.066   2.878  0.8248 -1.8836 -1.9059
   88MOL    H2340217   2.924   0.006   2.974  0.1891  2.1130 -0.2665
   88MOL    H2440218   2.897   0.529   3.026  0.8128 -0.9480 -0.6713
   88MOL    O2540219   3.152   7.732   2.628  0.0842  0.0398  0.2218
   88MOL    C2640220   3.178   7.741   2.495 -0.3614  0.0807 -0.4103
   88MOL    C2740221   3.139   7.599   2.449 -0.1105 -0.4581 -0.3235
   88MOL    O2840222   3.086   7.584   2.314 -0.3205  0.3738 -0.0286
   88MOL    C2940223   3.162   7.623   2.209  0.0854 -0.1751  0.4166
   88MOL    O3040224   3.245   7.714   2.215 -0.7597 -0.2021  1.0915
   88MOL    C3140225   3.139   7.539   2.086  0.5486 -0.6582  0.2771
   88MOL    C3240226   3.208   7.567   1.968 -0.4500 -0.2245 -0.0664
   88MOL    C3340227   3.203   7.480   1.859  0.1852  0.0367  0.3844
   88MOL    C3440228   3.111   7.371   1.854  0.7227 -0.4870  0.2256
   88MOL    C3540229   3.118   7.279   1.744  0.0641 -0.1057 -0.5296
   88MOL    O3640230   3.221   7.248   1.683  0.0429 -0.6880  0.2474
   88MOL    O3740231   3.000   7.219   1.715 -0.1401  0.0430 -0.5545
   88MOL    C3840232   3.030   7.348   1.967  0.2596  0.1506 -0.0426
   88MOL    C3940233   3.056   7.423   2.088  0.0410 -0.2930 -0.2206
   88MOL    H4040234   3.108   7.808   2.445 -4.1495 -1.8696  2.0559
   88MOL    H4140235   3.282   7.760   2.472 -0.6315  0.0639 -1.6946
   88MOL    H4240236   3.063   7.567   2.521 -0.7632  1.4678 -0.1279
   88MOL    H4340237   3.226   7.534   2.457  0.4021 -0.0182 -2.1302
   88MOL    H4440238   3.274   7.653   1.968  1.8589 -1.9640  1.3926
   88MOL    H4540239   3.277   7.488   1.781  1.5556 -0.3742  1.6173
   88MOL    H4640240   2.958   7.268   1.966 -0.6029  0.9172 -2.8006
   88MOL    H4740241   3.026   7.384   2.184 -0.4436 -0.5709 -0.4831
   88MOL    O4840242   3.005   7.119   1.599 -0.1437  0.2225  0.3847
   88MOL    C4940243   3.018   6.984   1.650  0.0443 -0.2776 -0.4656
   88MOL    C5040244   2.998   6.886   1.536  0.7558  0.6855 -0.3878
   88MOL    O5140245   3.115   6.897   1.465 -0.2141 -0.2980  0.7449
   88MOL    C5240246   3.166   6.785   1.401  0.3721 -0.7701 -0.1938
   88MOL    O5340247   3.113   6.668   1.396  0.5873 -0.1496 -0.2865
   88MOL    C5440248   3.298   6.812   1.345 -0.2946  0.0204  0.0261
   88MOL    C5540249   3.346   6.945   1.338  0.0353 -0.4206  0.1393
   88MOL    C5640250   3.481   6.972   1.299 -0.2322  1.2557  0.9187
   88MOL    C5740251   3.565   6.860   1.260 -0.5195 -0.1272  0.1488
   88MOL    C5840252   3.701   6.882   1.204 -0.1030  0.2377 -0.0767
   88MOL    O5940253   3.736   6.991   1.159  0.2639 -0.1683 -0.0490
   88MOL    O6040254   3.785   6.786   1.216 -0.5325  0.7005  0.1056
   88MOL    C6140255   3.507   6.737   1.253 -0.5417  0.3239  0.0245
   88MOL    C6240256   3.381   6.709   1.309  0.7517 -0.5115  0.5855
   88MOL    H6340257   3.112   6.962   1.701 -1.3748  1.5096  3.0926
   88MOL    H6440258   2.936   6.964   1.719  1.5281  0.9563  1.7232
   88MOL    H6540259   2.914   6.916   1.473 -0.7110  0.5793  1.4704
   88MOL    H6640260   2.971   6.793   1.585 -0.5020  1.4504  0.4043
   88MOL    H6740261   3.279   7.024   1.367 -1.4028 -1.8842  0.8736
   88MOL    H6840262   3.527   7.069   1.301  2.3566  0.0452  2.4068
   88MOL    H6940263   3.573   6.657   1.224  3.3748  3.3883 -0.1102
   88MOL    H7040264   3.337   6.615   1.338 -1.9751 -0.0375 -1.7325
   88MOL    O7140265   3.928   6.826   1.235 -0.2972  0.5629  0.9001
   88MOL    C7240266   3.953   6.826   1.379 -0.4071  0.4722 -0.1692
   88MOL    C7340267   3.950   6.689   1.444  0.5522 -0.7296 -0.1773
   88MOL    O7440268   3.839   6.676   1.528 -0.1046  0.9863 -0.0224
   88MOL    C7540269   3.740   6.576   1.503  0.1347  0.0136  0.6080
   88MOL    O7640270   3.757   6.488   1.419 -0.0604 -0.0737 -0.1277
   88MOL    C7740271   3.608   6.603   1.577 -0.1466 -0.2653  0.1960
   88MOL    C7840272   3.612   6.682   1.688 -0.0351  0.7432 -0.3751
   88MOL    C7940273   3.496   6.700   1.767  0.1215  0.4850 -0.4703
   88MOL    C8040274   3.373   6.636   1.730 -0.7993 -0.2324 -1.1612
   88MOL    C8140275   3.246   6.636   1.814  0.1626 -0.0601  0.4564
   88MOL    O8240276   3.131   6.600   1.770 -0.3275  0.0002  0.5366
   88MOL    O8340277   3.270   6.683   1.935  0.1262  0.0745  0.2968
   88MOL    C8440278   3.371   6.554   1.619 -0.1114 -0.5228  0.4686
   88MOL    C8540279   3.487   6.540   1.539 -0.0743 -0.3965  0.1847
   88MOL    H8640280   4.060   6.849   1.377 -0.3810  0.2117 -1.9809
   88MOL    H8740281   3.906   6.912   1.427 -1.9084 -1.0910  1.2136
   88MOL    H8840282   4.041   6.680   1.505  1.2709  1.2210 -0.9125
   88MOL    H8940283   3.949   6.616   1.363  0.9104 -1.0767  0.1264
   88MOL    H9040284   3.694   6.747   1.716 -0.5794  1.1886  0.1916
   88MOL    H9140285   3.499   6.759   1.857  0.8618 -0.1260 -0.0867
   88MOL    H9240286   3.281   6.502   1.593 -0.0545  0.0914 -1.0005
   88MOL    H9340287   3.480   6.481   1.448 -0.5251 -1.4389  0.8850
   88MOL    O9440288   3.145   6.688   2.024 -0.3863  0.3423  0.0135
   88MOL    C9540289   3.106   6.819   2.033  0.0425  0.5588  0.4211
   88MOL    C9640290   3.202   6.896   2.125 -0.4930  0.2487 -0.4897
   88MOL    O9740291   3.161   6.901   2.261 -0.3779 -0.2723  0.3261
   88MOL    C9840292   3.107   7.008   2.313 -0.1803  0.0901  0.4062
   88MOL    O9940293   3.076   7.117   2.256  0.0558  0.3866  0.3217
   88MOL   C10040294   3.074   6.984   2.462  0.1562 -0.4610  0.6927
   88MOL   C10140295   3.103   6.861   2.526  0.2075  0.5002  0.2442
   88MOL   C10240296   3.066   6.843   2.665  0.3097 -0.0680  0.6737
   88MOL   C10340297   2.997   6.943   2.742 -0.1787  0.5945  0.0638
   88MOL   C10440298   2.941   6.919   2.882 -0.4349  0.1027 -0.5328
   88MOL   O10540299   2.877   7.000   2.946 -0.1576 -0.1911  0.3065
   88MOL   O10640300   2.970   6.801   2.927 -0.1436 -0.3463  0.0087
   88MOL   C10740301   2.970   7.065   2.678 -0.5658  0.3655  0.8498
   88MOL   C10840302   3.012   7.082   2.546  0.9036 -0.6122 -0.9366
   88MOL   H10940303   3.100   6.864   1.934 -0.1272 -0.3303  0.0283
   88MOL   H11040304   3.005   6.825   2.073 -1.2571 -1.7105 -2.3740
   88MOL   H11140305   3.217   6.990   2.073 -0.5032 -1.1571 -3.1445
   88MOL   H11240306   3.301   6.851   2.118 -0.7879 -0.6241  0.7165
   88MOL   H11340307   3.163   6.788   2.474  0.0933 -0.2174  1.1240
   88MOL   H11440308   3.085   6.746   2.709  1.5329 -0.0105  0.2940
   88MOL   H11540309   2.923   7.141   2.739 -2.6506 -0.5380  0.3835
   88MOL   H11640310   2.994   7.178   2.501  0.2103 -0.7394 -0.9224
   88MOL   O11740311   2.936   6.771   3.071 -0.4917 -0.0781  0.3432
   88MOL   C11840312   2.898   6.633   3.090  0.4162  0.3577 -0.4851
   88MOL   C11940313   2.854   6.604   3.231  0.2903 -0.6103  0.0904
   88MOL   O12040314   2.958   6.565   3.314  0.4042 -0.1595 -0.1706
   88MOL   C12140315   3.005   6.643   3.402  0.3758  0.4556 -0.0392
   88MOL   O12240316   2.966   6.766   3.412  0.0060  0.0540  0.8711
   88MOL   C12340317   3.110   6.580   3.482 -0.0093  0.3667 -0.0673
   88MOL   C12440318   3.136   6.442   3.483  0.0548 -0.5511  0.2923
   88MOL   C12540319   3.253   6.392   3.544  0.0462 -0.5535 -1.0038
   88MOL   C12640320   3.345   6.480   3.610  0.1484 -0.2654  0.5058
   88MOL   C12740321   3.469   6.434   3.674  0.0485 -0.1414 -0.2583
   88MOL   O12840322   3.502   6.316   3.673 -0.5757 -0.4357  0.0270
   88MOL   O12940323   3.553   6.530   3.715 -0.5183 -0.1954 -0.6356
   88MOL   C13040324   3.312   6.615   3.619  0.4385  0.0071  0.0148
   88MOL   C13140325   3.197   6.666   3.555 -0.6919 -0.2985  0.3177
   88MOL   H13240326   2.812   6.614   3.025 -1.1936 -2.2077  2.2416
   88MOL   H13340327   2.982   6.571   3.062 -0.1409 -0.2593 -0.8029
   88MOL   H13440328   2.775   6.529   3.239  0.3359 -0.7306 -0.5422
   88MOL   H13540329   2.797   6.684   3.276 -0.4330 -1.1744  0.1859
   88MOL   H13640330   3.074   6.366   3.438  1.7607 -1.1251 -1.1416
   88MOL   H13740331   3.278   6.288   3.535  1.3171 -0.1810 -1.8763
   88MOL   H13840332   3.378   6.682   3.671 -0.3128 -0.4312  1.5727
   88MOL   H13940333   3.171   6.770   3.567 -0.4164  0.1155 -2.3357
   88MOL   O14040334   3.698   6.485   3.735 -0.7973  0.5314 -0.6220
   88MOL   C14140335   3.723   6.489   3.878 -0.0089  0.1074  0.0086
   88MOL   C14240336   3.871   6.494   3.914  0.6240  0.0719  0.3749
   88MOL   O14340337   3.891   6.554   4.043  0.2333 -0.1503  0.1105
   88MOL   C14440338   3.876   6.478   4.155  0.2915 -0.2675 -0.1009
   88MOL   O14540339   3.868   6.360   4.151  0.1898  0.4308 -0.1455
   88MOL   C14640340   3.861   6.562   4.277 -0.0359 -0.2974  0.2862
   88MOL   C14740341   3.870   6.705   4.269  0.3005 -0.2756  0.4442
   88MOL   C14840342   3.849   6.790   4.372 -0.2013 -0.2038  0.2855
   88MOL   C14940343   3.801   6.737   4.491 -0.3741  0.9107 -0.8614
   88MOL   C15040344   3.792   6.825   4.613 -0.3973 -0.7275  0.3319
   88MOL   O15140345   3.755   6.785   4.723 -0.0965 -0.0616 -0.1046
   88MOL   O15240346   3.825   6.950   4.592 -0.2037 -0.0583 -0.5765
   88MOL   C15340347   3.781   6.596   4.506 -0.2078  0.3167 -0.7734
   88MOL   C15440348   3.812   6.513   4.402 -0.4488 -0.1155 -0.3182
   88MOL   H15540349   3.667   6.564   3.934  1.0854  0.1767  1.0541
   88MOL   H15640350   3.682   6.392   3.903  0.1417 -0.3402 -1.4391
   88MOL   H15740351   3.931   6.549   3.841  1.1552  0.7565  1.3128
   88MOL   H15840352   3.913   6.393   3.913 -0.7846 -0.5241 -1.4498
   88MOL   H15940353   3.901   6.749   4.176 -1.8774  1.9705  0.7504
   88MOL   H16040354   3.871   6.895   4.361 -0.4370 -0.1232  0.5574
   88MOL   H16140355   3.743   6.554   4.597  1.7040  0.4991  0.1284
   88MOL   H16240356   3.804   6.406   4.398  2.3565 -0.3169 -1.6383
   88MOL   O16340357   3.808   7.037   4.720 -0.6996  0.0893  0.6353
   88MOL   C16440358   3.939   7.080   4.758 -0.5932 -0.3375 -0.1997
   88MOL   C16540359   3.920   7.134   4.897 -0.8094 -0.3898 -0.6839
   88MOL   O16640360   4.046   7.177   4.944  0.0769 -0.0618  0.0236
   88MOL   C16740361   4.082   7.303   4.967 -0.3472  0.4249 -0.1446
   88MOL   O16840362   4.001   7.397   4.977  0.0764  0.1939  0.3495
   88MOL   C16940363   4.231   7.318   4.990 -0.0558 -0.1434 -0.1180
   88MOL   C17040364   4.282   7.437   5.052  0.2957  0.0896 -0.3595
   88MOL   C17140365   4.415   7.453   5.083 -0.1683 -0.7469 -0.4557
   88MOL   C17240366   4.511   7.352   5.046 -0.1188 -0.6738 -0.1705
   88MOL   C17340367   4.650   7.374   5.073  0.3326  0.8194  0.1928
   88MOL   O17440368   4.691   7.489   5.090 -0.0833 -0.2050 -0.1671
   88MOL   O17540369   4.726   7.267   5.089 -0.5486 -0.6223 -0.4569
   88MOL   C17640370   4.462   7.233   4.976 -0.6236 -0.4588  0.1712
   88MOL   C17740371   4.324   7.216   4.956 -0.0066 -0.3611  0.0813
   88MOL   H17840372   4.004   6.994   4.741  0.1276  0.1910 -0.1878
   88MOL   H17940373   3.980   7.163   4.699 -1.5961  1.3297  1.3948
   88MOL   H18040374   3.891   7.051   4.961 -1.0658 -0.2015 -0.5580
   88MOL   H18140375   3.849   7.216   4.907 -1.5712 -1.3064  1.9324
   88MOL   H18240376   4.221   7.524   5.072  2.1420  1.0129  1.3618
   88MOL   H18340377   4.444   7.547   5.126 -1.7756 -0.3732 -0.1458
   88MOL   H18440378   4.537   7.161   4.946  1.6956  1.9744 -0.0251
   88MOL   H18540379   4.295   7.117   4.925 -2.0657  0.5062 -0.9172
   88MOL   O18640380   4.862   7.310   5.130  0.5029  0.3994  0.2038
   88MOL   C18740381   4.947   7.326   5.013 -0.0678 -0.0176  0.1413
   88MOL   C18840382   5.090   7.349   5.050  0.0178 -0.8660  0.0238
   88MOL   O18940383   5.156   7.232   5.095  0.5074  0.1610  0.2030
   88MOL   C19040384   5.278   7.235   5.151  0.2943 -0.0114 -0.1587
   88MOL   O19140385   5.338   7.339   5.172 -0.3501  0.4535  0.1207
   88MOL   C19240386   5.336   7.106   5.175 -0.4425  0.2707  0.3872
   88MOL   C19340387   5.260   6.990   5.194  0.0451  0.2617  0.0358
   88MOL   C19440388   5.322   6.865   5.210  0.0300  0.5513  0.7856
   88MOL   C19540389   5.459   6.858   5.217  0.1332  0.3179 -0.3681
   88MOL   C19640390   5.525   6.733   5.246  0.0491  0.1227 -0.8560
   88MOL   O19740391   5.469   6.642   5.305  0.7640 -0.2510 -0.0615
   88MOL   O19840392   5.648   6.729   5.207 -1.0015  0.2132  0.6206
   88MOL   C19940393   5.532   6.973   5.199  0.0109  0.1752 -0.7593
   88MOL   C20040394   5.476   7.100   5.181  0.6800 -0.9234 -0.4708
   88MOL   H20140395   4.929   7.236   4.954 -2.2131 -0.2856  1.1613
   88MOL   H20240396   4.908   7.409   4.955 -1.4511 -0.6535  0.1488
   88MOL   H20340397   5.110   7.437   5.110 -0.4202 -0.0835 -0.9732
   88MOL   H20440398   5.144   7.361   4.956  2.3761 -1.3423  1.2810
   88MOL   H20540399   5.152   6.995   5.195  0.0149 -0.2211 -0.4895
   88MOL   H20640400   5.262   6.779   5.235  0.6002  0.0339  0.4019
   88MOL   H20740401   5.640   6.972   5.206 -0.0044 -1.3519 -0.6181
   88MOL   H20840402   5.548   7.181   5.179 -0.6949  0.4045  1.5881
   88MOL   O20940403   5.732   6.629   5.288 -0.0523 -0.0697  0.0413
   88MOL   C21040404   5.738   6.502   5.232  0.8947  0.3051 -0.0455
   88MOL   C21140405   5.834   6.419   5.331  0.6992 -0.0877 -0.3903
   88MOL   O21240406   5.782   6.395   5.458  0.0095 -0.0995 -0.7905
   88MOL   C21340407   5.697   6.291   5.480 -0.2296  0.2191  0.0471
   88MOL   O21440408   5.681   6.199   5.397 -0.8458 -0.0158  0.3026
   88MOL   C21540409   5.629   6.296   5.605 -0.1342 -0.1846  0.1607
   88MOL   C21640410   5.527   6.199   5.627 -0.5939  0.0533  0.1683
   88MOL   C21740411   5.455   6.198   5.746 -0.2268 -0.2251  0.8023
   88MOL   C21840412   5.504   6.276   5.858  0.8756 -0.0439 -0.3526
   88MOL   C21940413   5.452   6.255   6.001 -0.4091 -0.1587 -0.3992
   88MOL   O22040414   5.471   6.342   6.090  0.1609 -0.7591  0.4717
   88MOL   O22140415   5.389   6.130   6.028  0.0782 -0.3561 -0.2070
   88MOL   C22240416   5.595   6.379   5.835 -0.1909 -0.7920 -0.1276
   88MOL   C22340417   5.656   6.388   5.703  0.1958  0.2244 -0.0746
   88MOL   H22440418   5.634   6.474   5.221  1.1761 -0.5618 -0.5598
   88MOL   H22540419   5.781   6.501   5.132 -1.7346  0.5227 -1.2229
   88MOL   H22640420   5.922   6.480   5.353  0.1392  1.2001 -1.6334
   88MOL   H22740421   5.873   6.331   5.280 -1.1897 -1.5415  0.6101
   88MOL   H22840422   5.509   6.124   5.553  1.2601 -0.7269  0.4729
   88MOL   H22940423   5.393   6.112   5.762  2.1927 -2.1676  0.0870
   88MOL   H23040424   5.619   6.455   5.909 -1.7798  2.0938 -2.4839
   88MOL   H23140425   5.734   6.463   5.692 -1.3985  1.9150 -0.1957
   88MOL   O23240426   5.347   6.106   6.172  0.1941 -0.2445 -0.4945
   88MOL   C23340427   5.439   6.032   6.246  0.2705 -0.5829 -0.0486
   88MOL   C23440428   5.570   6.093   6.278  0.2701  0.3966  0.9811
   88MOL   O23540429   5.652   6.092   6.162 -0.3174  0.1849 -0.0748
   88MOL   C23640430   5.769   6.160   6.163  0.0283  0.9394  0.1430
   88MOL   O23740431   5.804   6.201   6.274 -0.0525 -0.1264 -0.2780
   88MOL   C23840432   5.840   6.178   6.036 -0.1510 -0.1639 -0.5818
   88MOL   C23940433   5.954   6.257   6.035 -0.3177  0.0472  0.1416
   88MOL   C24040434   6.017   6.287   5.916 -0.2909  0.0863 -0.3032
   88MOL   C24140435   5.986   6.215   5.797 -0.0976 -0.4287 -1.0616
   88MOL   C24240436   6.069   6.247   5.679  0.1122 -0.3991 -0.4814
   88MOL   O24340437   6.038   6.195   5.567  0.1800  0.0165 -0.4598
   88MOL   O24440438   6.196   6.302   5.703  0.0185 -0.2527  0.1843
   88MOL   C24540439   5.873   6.130   5.795  0.1463 -0.2532 -0.6640
   88MOL   C24640440   5.796   6.112   5.915  0.2719  0.1339  0.4824
   88MOL   H24740441   5.389   6.012   6.341 -1.3601 -0.3163 -0.8431
   88MOL   H24840442   5.441   5.930   6.209 -2.7183 -0.4783 -0.5996
   88MOL   H24940443   5.615   6.025   6.350  0.1889 -1.5831 -0.7635
   88MOL   H25040444   5.572   6.185   6.336  0.4543 -0.9319  3.1191
   88MOL   H25140445   5.968   6.298   6.134 -0.3596 -0.1954  0.2475
   88MOL   H25240446   6.095   6.362   5.916  2.1053 -2.2873  1.0176
   88MOL   H25340447   5.830   6.098   5.702  1.4083 -0.1707 -1.2742
   88MOL   H25440448   5.709   6.049   5.911  1.3566 -1.4866  1.7002
   88MOL   O25540449   6.288   6.272   5.586 -0.0282  0.8759 -0.4921
   88MOL   C25640450   6.384   6.176   5.628 -0.3156  0.3472  0.3136
   88MOL   C25740451   6.494   6.185   5.524 -0.1206 -0.1630 -0.3372
   88MOL   O25840452   6.535   6.320   5.525  0.9805 -0.2564  0.6063
   88MOL   C25940453   6.587   6.364   5.411 -0.3224 -0.7131  0.0087
   88MOL   O26040454   6.622   6.294   5.317  0.3740  0.2591 -0.9311
   88MOL   C26140455   6.600   6.514   5.401 -0.0307 -0.4822 -0.1542
   88MOL   C26240456   6.632   6.575   5.276 -0.6626  0.2491  0.3779
   88MOL   C26340457   6.647   6.717   5.266 -0.4072 -0.1899  0.2584
   88MOL   C26440458   6.623   6.801   5.377 -0.5262 -0.2681  0.2871
   88MOL   C26540459   6.637   6.947   5.371  0.5127 -0.2351  0.1077
   88MOL   O26640460   6.642   7.017   5.475  0.6515 -0.0650  0.4740
   88MOL   O26740461   6.635   7.004   5.241  0.0798  0.1205  0.2381
   88MOL   C26840462   6.584   6.736   5.495  0.7146  0.6187 -0.6829
   88MOL   C26940463   6.576   6.596   5.510  0.4641 -0.0505 -0.3985
   88MOL   H27040464   6.424   6.187   5.729  1.3076  1.0901 -0.3835
   88MOL   H27140465   6.340   6.076   5.631 -0.5895  0.4429 -0.5380
   88MOL   H27240466   6.456   6.151   5.428  0.8421  0.3830 -0.9161
   88MOL   H27340467   6.582   6.127   5.552  2.8858  2.6488 -3.5021
   88MOL   H27440468   6.660   6.519   5.188  1.0278  2.5861 -0.6202
   88MOL   H27540469   6.682   6.754   5.170 -0.4956 -0.5859  0.0721
   88MOL   H27640470   6.575   6.807   5.576  1.8527  2.6838 -2.3282
   88MOL   H27740471   6.549   6.557   5.607  0.5585 -3.5594 -1.6778
   88MOL   O27840472   6.623   7.161   5.234 -0.2805  0.0397 -0.0373
   88MOL   C27940473   6.487   7.189   5.190 -0.2158 -0.6881  0.4172
   88MOL   C28040474   6.402   7.243   5.309  0.0970 -0.6319  0.3894
   88MOL   O28140475   6.354   7.132   5.395 -0.2378  0.5545 -0.1125
   88MOL   C28240476   6.231   7.148   5.458  0.0928  0.2685  0.2656
   88MOL   O28340477   6.159   7.240   5.436 -0.2038  0.1489 -0.2242
   88MOL   C28440478   6.215   7.031   5.549  0.3727  0.2766  0.0677
   88MOL   C28540479   6.323   6.949   5.585 -0.0526  0.7254 -0.1018
   88MOL   C28640480   6.303   6.841   5.677  0.0342 -0.2499  0.8727
   88MOL   C28740481   6.191   6.834   5.759  0.0957  0.2142 -0.0560
   88MOL   C28840482   6.175   6.727   5.860 -0.0971 -1.1844 -0.2498
   88MOL   O28940483   6.266   6.643   5.890 -0.5118  0.1772 -0.0042
   88MOL   O29040484   6.057   6.716   5.916  0.0730  0.3879 -0.2240
   88MOL   C29140485   6.087   6.928   5.741 -0.0842  0.3398  0.3089
   88MOL   C29240486   6.097   7.021   5.632 -1.0610 -0.6533 -0.2723
   88MOL   H29340487   6.503   7.266   5.114  1.2162 -0.1071  1.2869
   88MOL   H29440488   6.438   7.110   5.134  0.5677 -0.9621  0.1173
   88MOL   H29540489   6.317   7.300   5.270  1.1602 -0.7053 -2.1058
   88MOL   H29640490   6.463   7.315   5.362 -0.8340  0.1799  0.3701
   88MOL   H29740491   6.408   6.947   5.518  1.7195  0.3148  2.0940
   88MOL   H29840492   6.379   6.768   5.700 -0.7830 -1.7926 -1.1966
   88MOL   H29940493   5.991   6.913   5.789 -0.6308 -1.8802 -1.4094
   88MOL   H30040494   6.021   7.093   5.607 -1.4999 -1.2537 -0.6744
   88MOL   O30140495   6.049   6.604   6.018  0.2586 -0.0837  0.7380
   88MOL   C30240496   6.099   6.648   6.140 -0.2098  0.0560 -0.0091
   88MOL   C30340497   6.164   6.539   6.228  0.0235  0.4554 -0.8231
   88MOL   O30440498   6.272   6.476   6.165  0.0063  0.1979 -0.4170
   88MOL   C30540499   6.397   6.485   6.215 -0.7976 -0.1681  0.0322
   88MOL   O30640500   6.426   6.500   6.331  0.3189 -0.0873 -0.4358
   88MOL   C30740501   6.509   6.467   6.115 -0.4409 -0.3528 -0.9873
   88MOL   C30840502   6.471   6.430   5.985  0.2834 -0.9714 -0.4906
   88MOL   C30940503   6.567   6.435   5.880 -0.3124 -0.5426 -0.2075
   88MOL   C31040504   6.706   6.457   5.915  0.4890  0.0439  0.2935
   88MOL   C31140505   6.813   6.456   5.809 -0.0913 -0.6331  0.2676
   88MOL   O31240506   6.800   6.388   5.705 -0.2104 -0.6229 -0.1657
   88MOL   O31340507   6.923   6.536   5.838 -0.2387 -0.3262  0.5081
   88MOL   C31440508   6.741   6.492   6.044 -0.2960  0.1424  0.8843
   88MOL   C31540509   6.645   6.492   6.147  0.3675 -0.2420 -0.4731
   88MOL   H31640510   6.178   6.719   6.116 -0.9110  0.6322 -0.6453
   88MOL   H31740511   6.027   6.708   6.197  0.3869  0.0419  0.7790
   88MOL   H31840512   6.087   6.469   6.260 -0.9427  2.1597  0.6711
   88MOL   H31940513   6.191   6.579   6.326 -0.6219 -1.3203  0.1052
   88MOL   H32040514   6.368   6.411   5.959  0.0689 -1.2075  0.5297
   88MOL   H32140515   6.531   6.401   5.784 -0.7581  1.3385 -0.7298
   88MOL   H32240516   6.842   6.510   6.078 -0.1620  1.7384 -0.3130
   88MOL   H32340517   6.669   6.525   6.248 -0.7460  0.0450 -0.2954
   88MOL   O32440518   7.019   6.559   5.729  0.3593 -0.0490 -0.5924
   88MOL   C32540519   7.118   6.460   5.730  0.4794  0.7743 -0.1864
   88MOL   C32640520   7.224   6.498   5.839  0.3149 -0.2617 -0.2591
   88MOL   O32740521   7.341   6.556   5.784 -0.0921  0.0957 -0.7802
   88MOL   C32840522   7.338   6.686   5.758  0.5631  0.0047 -0.3945
   88MOL   O32940523   7.251   6.764   5.803  0.4041  0.1390 -0.2320
   88MOL   C33040524   7.458   6.725   5.694  0.4977  0.6166 -0.0276
   88MOL   C33140525   7.552   6.636   5.647  0.3679  0.3948 -0.4790
   88MOL   C33240526   7.679   6.669   5.599  0.4140 -0.6359 -0.0540
   88MOL   C33340527   7.707   6.804   5.570 -0.1119 -0.6809 -0.0344
   88MOL   C33440528   7.838   6.853   5.506 -0.4654 -0.1808  0.6159
   88MOL   O33540529   7.865   6.974   5.495  0.5765  0.0953 -0.1130
   88MOL   O33640530   7.923   6.759   5.469 -0.1931  0.6488  0.1319
   88MOL   C33740531   7.616   6.903   5.617  0.3356  0.3420  1.2845
   88MOL   C33840532   7.496   6.859   5.681  0.5409  0.1536 -0.2298
   88MOL   H33940533   7.074   6.362   5.746  0.0395  0.6975 -1.8074
   88MOL   H34040534   7.163   6.466   5.631 -0.7817  0.3047 -0.7958
   88MOL   H34140535   7.258   6.407   5.888 -1.0293 -1.0771 -0.8176
   88MOL   H34240536   7.188   6.564   5.918 -0.7176  0.8170 -1.6046
   88MOL   H34340537   7.540   6.530   5.662 -0.1652  0.6041  0.6455
   88MOL   H34440538   7.747   6.588   5.576 -0.1634 -1.0071 -0.4542
   88MOL   H34540539   7.626   7.010   5.603 -2.3588  0.8285  2.7441
   88MOL   H34640540   7.429   6.932   5.724  2.1854  1.8794 -0.5116
   88MOL   O34740541   8.052   6.823   5.438 -0.2477  0.9366 -0.2743
   88MOL   C34840542   8.140   6.785   5.545  0.0367  0.3590  0.3915
   88MOL   C34940543   8.139   6.882   5.671  0.5478  0.8095  0.7763
   88MOL   O35040544   8.025   6.857   5.751 -0.4705 -0.0980 -0.0023
   88MOL   C35140545   7.981   6.951   5.830 -0.7233  0.3793 -0.3827
   88MOL   O35240546   8.038   7.057   5.847  0.3479 -0.0203  0.2371
   88MOL   C35340547   7.855   6.915   5.899  0.4956 -0.1788  0.2813
   88MOL   C35440548   7.804   6.781   5.895  0.3778  0.7430  0.4375
   88MOL   C35540549   7.683   6.742   5.954  0.2915  0.6824  0.1165
   88MOL   C35640550   7.616   6.842   6.025  0.3906  0.3005  0.1590
   88MOL   C35740551   7.486   6.794   6.078 -0.0927  0.6027 -0.5935
   88MOL   O35840552   7.448   6.673   6.065 -0.6138 -0.6120 -0.0567
   88MOL   O35940553   7.415   6.893   6.129  0.5763  0.4843 -0.4817
   88MOL   C36040554   7.665   6.973   6.045  0.3347  0.1378  0.8968
   88MOL   C36140555   7.787   7.005   5.984  0.0091 -0.4103  0.1774
   88MOL   H36240556   8.127   6.680   5.570 -1.2019  0.9425  2.3050
   88MOL   H36340557   8.241   6.804   5.507 -0.3835  0.4952 -0.6761
   88MOL   H36440558   8.137   6.986   5.640 -0.4040  0.0449 -1.8352
   88MOL   H36540559   8.229   6.863   5.729  1.6089 -0.5858 -1.2634
   88MOL   H36640560   7.856   6.702   5.842 -1.7494 -0.3946  0.0186
   88MOL   H36740561   7.654   6.639   5.940  0.9027  0.1300  2.6411
   88MOL   H36840562   7.611   7.057   6.087  0.7826  0.3161  1.1208
   88MOL   H36940563   7.823   7.107   5.992  0.0596 -0.2678 -1.5802
   88MOL   O37040564   7.294   6.847   6.206 -0.1472  0.9317 -0.0445
   88MOL   C37140565   7.182   6.870   6.121 -0.1596  0.1545  0.6761
   88MOL   C37240566   7.048   6.836   6.194  0.2615 -0.2424 -0.0001
   88MOL   O37340567   7.060   6.706   6.232  0.5538  0.4810 -0.0380
   88MOL   C37440568   6.959   6.648   6.306  0.2575 -0.4761  0.1365
   88MOL   O37540569   6.852   6.702   6.336  0.6596 -0.3322  0.2734
   88MOL   C37640570   6.983   6.504   6.341 -0.1767  0.7436 -0.1868
   88MOL   C37740571   7.069   6.417   6.266  0.5960 -0.3080  0.1209
   88MOL   C37840572   7.077   6.283   6.299  0.5395 -1.0983  0.4616
   88MOL   C37940573   7.021   6.235   6.419  0.6652 -0.8295 -0.1728
   88MOL   C38040574   7.048   6.095   6.459 -0.2756 -0.4767  0.3012
   88MOL   O38140575   7.012   6.047   6.568  0.2844 -0.5046  0.3289
   88MOL   O38240576   7.111   6.032   6.364  0.1279  0.0357  0.1701
   88MOL   C38340577   6.942   6.321   6.495  0.2910  0.5456 -0.4551
   88MOL   C38440578   6.916   6.453   6.452  1.3132  0.9250 -0.8997
   88MOL   H38540579   7.187   6.970   6.077 -0.2895 -0.1321  0.0069
   88MOL   H38640580   7.199   6.800   6.040  1.0491  0.5832  0.5481
   88MOL   H38740581   6.953   6.841   6.140 -0.9758 -0.5066  2.1299
   88MOL   H38840582   7.026   6.906   6.274 -3.0208 -0.2572 -0.8092
   88MOL   H38940583   7.129   6.455   6.185  0.6501 -0.5423  0.0489
   88MOL   H39040584   7.134   6.218   6.234 -0.9664 -0.4513 -1.5336
   88MOL   H39140585   6.888   6.282   6.580  0.4201  0.3633 -0.4579
   88MOL   H39240586   6.848   6.516   6.509 -0.3868 -0.3224 -1.4898
   88MOL   O39340587   7.122   5.887   6.392 -0.1497  0.3731  0.0790
   88MOL   C39440588   7.264   5.860   6.413  0.6087 -0.3840 -0.0164
   88MOL   C39540589   7.335   5.863   6.273 -0.1016 -0.3081 -0.7715
   88MOL   O39640590   7.475   5.885   6.304 -0.2025  0.0475  0.4688
   88MOL   C39740591   7.561   5.787   6.279  0.1979  0.4775 -0.5705
   88MOL   O39840592   7.521   5.677   6.247  0.8800 -0.4799  0.3699
   88MOL   C39940593   7.707   5.828   6.292  0.0558 -0.1606 -0.2617
   88MOL   C40040594   7.734   5.957   6.331 -0.7513 -0.8280 -1.0225
   88MOL   C40140595   7.868   5.992   6.370  0.0895 -0.6131 -0.3664
   88MOL   C40240596   7.967   5.893   6.355 -1.1136 -0.8551  0.2317
   88MOL   C40340597   8.106   5.928   6.412  0.4442 -0.3655  1.0485
   88MOL   O40440598   8.126   6.013   6.502 -0.6040 -0.7025  0.1577
   88MOL   O40540599   8.208   5.858   6.362 -0.5504  0.4535  0.4362
   88MOL   C40640600   7.939   5.765   6.305 -0.4118  0.3548  0.2288
   88MOL   C40740601   7.807   5.730   6.276  0.4218  0.1500 -0.3014
   88MOL   H40840602   7.302   5.941   6.476  0.6045 -0.8039  0.5261
   88MOL   H40940603   7.280   5.762   6.458 -0.8145 -0.6411 -0.0639
   88MOL   H41040604   7.296   5.949   6.218  1.6624  0.2010 -1.2572
   88MOL   H41140605   7.308   5.774   6.216  1.9726 -1.0896 -0.5981
   88MOL   H41240606   7.654   6.027   6.352  0.7648  0.4269  0.7387
   88MOL   H41340607   7.903   6.083   6.417 -0.6310 -0.2676 -0.4977
   88MOL   H41440608   8.020   5.696   6.292  1.2853  2.2858  0.2176
   88MOL   H41540609   7.778   5.631   6.244  0.5860  0.0713 -0.2000
   88MOL   O41640610   0.061   5.881   6.431 -0.0282  0.1601  0.1659
   88MOL   C41740611   0.102   5.752   6.487  0.3931 -0.4260 -0.6726
   88MOL   C41840612   0.162   5.680   6.369  0.2903 -0.0592 -0.3180
   88MOL   O41940613   0.081   5.588   6.296 -0.2760 -0.4684  0.0910
   88MOL   C42040614   0.075   5.453   6.321 -1.4779 -0.1559 -0.4263
   88MOL   O42140615   0.152   5.394   6.391 -0.0563 -0.3315 -0.1078
   88MOL   C42240616   8.244   5.387   6.240 -0.0233  0.1984  0.3278
   88MOL   C42340617   8.214   5.249   6.255  0.1516  0.7339  0.5497
   88MOL   C42440618   8.116   5.185   6.166 -0.8562  0.7567 -0.5308
   88MOL   C42540619   8.039   5.265   6.081 -0.2653  0.1912 -0.3336
   88MOL   C42640620   7.948   5.198   5.979 -0.0117 -0.2844 -0.0906
   88MOL   O42740621   7.926   5.077   5.990 -0.4881  0.1163 -0.3731
   88MOL   O42840622   7.893   5.285   5.897  0.4261 -0.1471 -0.4250
   88MOL   C42940623   8.051   5.404   6.080 -0.0705 -0.0992  0.0776
   88MOL   C43040624   8.148   5.464   6.161 -0.1499  0.3069  0.0355
   88MOL   H43140625   0.172   5.770   6.568  2.3250  1.6049 -2.6898
   88MOL   H43240626   0.020   5.690   6.522  0.9606 -0.9538 -0.2875
   88MOL   H43340627   0.241   5.618   6.410  0.1551  0.7748  1.2227
   88MOL   H43440628   0.220   5.755   6.313  1.6291 -0.0304  1.0786
   88MOL   H43540629   0.002   5.194   6.324 -0.0417  0.4914  0.5350
   88MOL   H43640630   8.107   5.077   6.167 -1.1637  0.7825  1.3307
   88MOL   H43740631   7.988   5.465   6.017  0.5772  0.6802  0.1908
   88MOL   H43840632   8.161   5.569   6.142 -1.9357  0.8293  1.5294
   88MOL   O43940633   7.800   5.216   5.794  0.5194  0.0214 -0.1913
   88MOL   C44040634   7.871   5.193   5.668  0.5542  1.1553 -0.2394
   88MOL   C44140635   7.881   5.328   5.599 -0.7449  1.4535 -0.4320
   88MOL   O44240636   7.999   5.389   5.650  0.0019  0.3276  0.3836
   88MOL   C44340637   8.002   5.517   5.682 -0.6040  0.7456 -0.2880
   88MOL   O44440638   7.922   5.599   5.639 -0.1748  0.6063  0.7401
   88MOL   C44540639   8.128   5.553   5.759 -0.5308 -0.3000 -0.2126
   88MOL   C44640640   8.216   5.457   5.815  0.0443  0.1881 -0.3795
   88MOL   C44740641   0.054   5.505   5.890 -0.2379  0.3516  0.2358
   88MOL   C44840642   0.083   5.646   5.900  0.7446 -0.1267  0.3978
   88MOL   C44940643   0.215   5.689   5.961  0.3717  0.5910 -0.3723
   88MOL   O45040644   0.237   5.807   5.989 -0.0384  0.0830  0.3752
   88MOL   O45140645   0.306   5.588   5.962  0.6350 -0.1208 -0.1265
   88MOL   C45240646   8.269   5.735   5.845 -0.3365  0.3194  0.7648
   88MOL   C45340647   8.160   5.692   5.770  0.4729 -0.0734 -0.3022
   88MOL   H45440648   7.966   5.144   5.684  1.0591  0.6375 -4.3082
   88MOL   H45540649   7.826   5.114   5.609  2.2463 -0.0484  0.0670
   88MOL   H45640650   7.783   5.373   5.615 -1.4111 -0.1251  0.0669
   88MOL   H45740651   7.895   5.315   5.492  0.3930 -1.2534 -0.0130
   88MOL   H45840652   8.213   5.350   5.807 -1.2402  0.2920 -1.4290
   88MOL   H45940653   0.120   5.432   5.933  2.5772  3.1516  0.8531
   88MOL   H46040654   0.019   5.840   5.854  0.7960 -0.0557  2.1668
   88MOL   H46140655   8.089   5.760   5.725  1.3880  1.2749  0.2298
   88MOL   H46240656   0.397   5.602   5.983  0.8370  1.0349 -1.6946
   89MOL     O140657   2.428   6.636   1.046 -0.0132 -0.1861  0.1464
   89MOL     C240658   2.373   6.651   1.174 -0.1892 -0.1506 -0.2780
   89MOL     C340659   2.309   6.509   1.229 -0.1691  0.6852 -0.7744
   89MOL     O440660   2.409   6.426   1.284  0.4182  0.1642 -0.3785
   89MOL     C540661   2.472   6.328   1.208  0.3568 -0.3174  0.1618
   89MOL     O640662   2.455   6.315   1.085  0.1084 -0.2618 -0.2150
   89MOL     C740663   2.541   6.227   1.295 -0.1237  0.4113  1.1094
   89MOL     C840664   2.606   6.122   1.231  0.3138  0.9946 -0.0605
   89MOL     C940665   2.673   6.024   1.308  0.5215  0.1812  0.6220
   89MOL    C1040666   2.689   6.040   1.449  0.2150 -0.0543  0.6542
   89MOL    C1140667   2.760   5.935   1.523  0.0170  0.0357  0.0268
   89MOL    O1240668   2.826   5.845   1.474 -0.3385  0.2965 -0.5172
   89MOL    O1340669   2.743   5.942   1.656 -0.0778  0.2198 -0.1012
   89MOL    C1440670   2.633   6.150   1.514  0.2470 -0.0029  0.4023
   89MOL    C1540671   2.562   6.250   1.438  0.3733  0.5890 -0.2283
   89MOL    H1640672   2.447   6.687   1.245  0.1622  0.6570 -1.0481
   89MOL    H1740673   2.296   6.728   1.170 -1.0164 -0.9931 -0.7668
   89MOL    H1840674   2.250   6.457   1.153 -0.8939 -1.8312  1.4560
   89MOL    H1940675   2.245   6.537   1.312 -0.2964  0.9121 -0.9456
   89MOL    H2040676   2.601   6.110   1.124 -0.2104 -0.2937  0.0985
   89MOL    H2140677   2.731   5.949   1.256 -0.8759 -0.7710  0.4237
   89MOL    H2240678   2.651   6.161   1.620  3.3269 -2.1117  0.1524
   89MOL    H2340679   2.524   6.336   1.491 -2.4579 -1.5746  1.4111
   89MOL    H2440680   2.352   6.600   1.001 -0.0247  1.5110 -1.2492
   89MOL    O2540681   2.796   5.817   1.719 -0.5430 -0.1083  0.8571
   89MOL    C2640682   2.866   5.866   1.833 -0.1807 -0.1564  0.6328
   89MOL    C2740683   2.774   5.924   1.936 -0.2092  0.2470  0.6786
   89MOL    O2840684   2.728   5.826   2.019 -0.5757 -0.6124 -0.1290
   89MOL    C2940685   2.773   5.811   2.140  0.3961 -0.6985  0.5982
   89MOL    O3040686   2.874   5.871   2.182 -0.5009  0.0356  0.2231
   89MOL    C3140687   2.706   5.711   2.223 -0.7472  0.4215 -0.8361
   89MOL    C3240688   2.608   5.624   2.173 -0.2692 -0.8466 -0.3466
   89MOL    C3340689   2.552   5.527   2.255 -0.9333 -0.6882  0.2240
   89MOL    C3440690   2.590   5.514   2.389 -0.0781  0.3527 -0.2921
   89MOL    C3540691   2.525   5.413   2.478  0.1680  0.2455  0.5134
   89MOL    O3640692   2.557   5.397   2.597  0.2015  0.9404 -0.2463
   89MOL    O3740693   2.423   5.346   2.418  0.1665  0.3063  0.6625
   89MOL    C3840694   2.682   5.607   2.444 -0.4759 -0.0079  0.2799
   89MOL    C3940695   2.739   5.702   2.365  0.2370 -0.3929  0.0646
   89MOL    H4040696   2.940   5.800   1.879 -0.7173 -1.5180 -0.4024
   89MOL    H4140697   2.934   5.944   1.800 -0.7683  0.2178  0.2927
   89MOL    H4240698   2.689   5.974   1.890 -1.8513 -1.9280  1.2453
   89MOL    H4340699   2.834   5.995   1.993  1.1873 -0.6250  0.3019
   89MOL    H4440700   2.573   5.638   2.072 -1.7245  1.9628  0.4894
   89MOL    H4540701   2.476   5.469   2.206  0.6465 -2.2630 -0.4109
   89MOL    H4640702   2.722   5.596   2.544  0.7441 -1.6391 -0.3804
   89MOL    H4740703   2.803   5.778   2.408  0.8070 -1.8632  1.8317
   89MOL    O4840704   2.388   5.217   2.492 -0.0535  0.1182  0.2892
   89MOL    C4940705   2.273   5.251   2.581 -0.3990 -0.1969  0.7390
   89MOL    C5040706   2.234   5.131   2.665 -0.7693  0.1341 -0.3013
   89MOL    O5140707   2.114   5.152   2.728  0.1106 -0.4340 -0.4340
   89MOL    C5240708   2.000   5.084   2.701 -0.7417  0.7803 -0.1976
   89MOL    O5340709   2.003   4.984   2.630 -0.0226  0.4094  0.4887
   89MOL    C5440710   1.881   5.149   2.752 -0.4016  0.6242  1.1975
   89MOL    C5540711   1.758   5.093   2.712 -0.2602  0.6488 -0.5504
   89MOL    C5640712   1.633   5.147   2.752  0.3801 -0.0436 -0.3383
   89MOL    C5740713   1.637   5.262   2.842  0.3430  0.4685  0.2628
   89MOL    C5840714   1.512   5.319   2.900  0.5409 -1.4627 -0.1745
   89MOL    O5940715   1.513   5.423   2.964 -0.1286 -0.5004  0.5878
   89MOL    O6040716   1.406   5.248   2.870 -0.3309  0.4455 -0.4112
   89MOL    C6140717   1.763   5.315   2.879  0.2439 -0.8488 -0.2743
   89MOL    C6240718   1.884   5.262   2.831  0.1897  0.0636  0.2541
   89MOL    H6340719   2.300   5.330   2.650 -2.0693 -1.2079  2.5919
   89MOL    H6440720   2.185   5.289   2.529  0.2948  0.8672  0.3227
   89MOL    H6540721   2.297   5.121   2.754 -2.3974 -3.7218  0.5097
   89MOL    H6640722   2.249   5.040   2.608 -0.4389  0.1650 -0.2630
   89MOL    H6740723   1.746   5.011   2.644 -0.9410 -1.1384  1.6594
   89MOL    H6840724   1.541   5.105   2.713  0.0578 -0.9658  1.3676
   89MOL    H6940725   1.756   5.392   2.955 -0.5079 -1.1652 -0.0282
   89MOL    H7040726   1.975   5.298   2.877 -0.8686 -0.9950  3.3376
   89MOL    O7140727   1.275   5.321   2.884  0.1152  0.0622 -0.0286
   89MOL    C7240728   1.229   5.366   2.765 -0.5619 -1.0225 -0.1095
   89MOL    C7340729   1.110   5.290   2.713 -0.7915 -0.1310  0.1903
   89MOL    O7440730   1.095   5.298   2.571  0.4265  0.1004  0.3762
   89MOL    C7540731   1.051   5.412   2.507 -0.0295  0.4647  0.6325
   89MOL    O7640732   1.025   5.518   2.560  0.4253 -0.7305 -0.9115
   89MOL    C7740733   1.034   5.386   2.364 -0.1452 -0.1913 -0.0313
   89MOL    C7840734   1.062   5.259   2.308  0.5572 -0.4863 -0.3298
   89MOL    C7940735   1.040   5.230   2.174 -0.0808 -0.1131  0.0729
   89MOL    C8040736   0.987   5.329   2.089 -0.1262 -0.0741  0.1329
   89MOL    C8140737   0.960   5.294   1.945  0.8378  0.3393 -1.0160
   89MOL    O8240738   0.886   5.360   1.870 -0.1532  0.7095 -0.3354
   89MOL    O8340739   1.029   5.188   1.900  0.1370  0.2678  0.1187
   89MOL    C8440740   0.954   5.454   2.143  0.1022  0.5590 -0.2071
   89MOL    C8540741   0.973   5.480   2.276  0.7889  0.4245 -0.3643
   89MOL    H8640742   1.207   5.473   2.769  0.6848 -0.7183 -1.0298
   89MOL    H8740743   1.304   5.348   2.688  0.1734  2.5475 -0.3226
   89MOL    H8840744   1.017   5.313   2.765 -1.2288 -0.8279 -0.2714
   89MOL    H8940745   1.125   5.185   2.735 -0.6127 -0.3442 -0.9016
   89MOL    H9040746   1.106   5.185   2.373  0.3282  0.6045  1.0917
   89MOL    H9140747   1.074   5.137   2.130 -0.6344 -1.0537  1.5955
   89MOL    H9240748   0.896   5.530   2.093  0.7149  0.7504 -0.6259
   89MOL    H9340749   0.951   5.583   2.300 -0.6207 -0.2808  1.5991
   89MOL    O9440750   1.022   5.167   1.756  0.0927 -0.5565  0.2466
   89MOL    C9540751   0.935   5.058   1.733 -0.5810  0.1985 -0.7652
   89MOL    C9640752   0.949   5.020   1.584  0.4023 -0.7448 -1.0786
   89MOL    O9740753   0.926   4.886   1.564 -0.5349  0.1757  0.2814
   89MOL    C9840754   1.021   4.798   1.607 -0.9277  0.0542 -0.0012
   89MOL    O9940755   1.136   4.837   1.638 -0.0814  0.4222 -0.3450
   89MOL   C10040756   0.981   4.655   1.606 -0.1839 -0.3844 -0.9292
   89MOL   C10140757   1.078   4.557   1.622  0.1079  0.0025  0.6463
   89MOL   C10240758   1.030   4.426   1.649  0.1053  0.5066  0.3859
   89MOL   C10340759   0.893   4.391   1.650  0.3355 -0.2119 -0.7802
   89MOL   C10440760   0.835   4.259   1.689 -0.6321 -0.3425 -0.5775
   89MOL   O10540761   0.722   4.243   1.724 -0.0631  0.0184 -0.1151
   89MOL   O10640762   0.936   4.170   1.699 -0.2078  0.2594 -1.0302
   89MOL   C10740763   0.799   4.491   1.620  0.4987 -0.2673  0.0041
   89MOL   C10840764   0.841   4.625   1.599 -0.0122  0.9397  0.3234
   89MOL   H10940765   0.936   4.971   1.798 -5.2654  1.5486  1.3312
   89MOL   H11040766   0.829   5.083   1.735 -0.8136 -0.8469 -0.0786
   89MOL   H11140767   1.044   5.056   1.544 -0.8890  1.9107 -1.8238
   89MOL   H11240768   0.870   5.057   1.520 -2.6184 -1.3750  2.1581
   89MOL   H11340769   1.180   4.590   1.632  0.5596 -0.7046 -1.4927
   89MOL   H11440770   1.095   4.349   1.687  0.3466  0.7244  0.4143
   89MOL   H11540771   0.695   4.462   1.616  0.7233 -1.8167  3.6231
   89MOL   H11640772   0.765   4.698   1.575 -1.1901  0.4413  2.3585
   89MOL   O11740773   0.900   4.052   1.787  0.7306 -0.1538 -0.0434
   89MOL   C11840774   0.877   3.942   1.707  0.3263  0.6721  1.1356
   89MOL   C11940775   0.859   3.814   1.789 -0.2812 -0.2097  0.1977
   89MOL   O12040776   0.989   3.771   1.835 -0.1122 -0.7642 -0.1314
   89MOL   C12140777   1.037   3.655   1.787  0.5810  0.1226 -0.1081
   89MOL   O12240778   0.985   3.588   1.698  0.0904 -0.3521 -0.1866
   89MOL   C12340779   1.169   3.630   1.858  0.1517  0.5481 -0.5915
   89MOL   C12440780   1.240   3.734   1.917  0.5177 -0.9941  0.0618
   89MOL   C12540781   1.362   3.705   1.981  0.3913  0.2089  0.4720
   89MOL   C12640782   1.413   3.569   1.988  0.0074 -0.3788  0.2960
   89MOL   C12740783   1.530   3.542   2.067 -0.7453 -0.2821 -0.5929
   89MOL   O12840784   1.600   3.634   2.123  0.4172 -0.8023 -0.2498
   89MOL   O12940785   1.565   3.407   2.075  0.2385 -0.2149 -0.4263
   89MOL   C13040786   1.348   3.468   1.914  0.0436  0.4944 -0.3231
   89MOL   C13140787   1.221   3.495   1.857 -1.4833  0.4035 -0.0148
   89MOL   H13240788   0.787   3.965   1.650  1.4907  0.7510 -0.6946
   89MOL   H13340789   0.954   3.928   1.632 -1.1340  1.3740 -0.5468
   89MOL   H13440790   0.804   3.740   1.730 -0.2668 -0.5157  0.5640
   89MOL   H13540791   0.789   3.823   1.872  1.5277 -0.0115  1.7289
   89MOL   H13640792   1.201   3.834   1.926  2.5439 -0.0675 -1.2125
   89MOL   H13740793   1.403   3.778   2.049 -3.5880  0.7545  2.3930
   89MOL   H13840794   1.386   3.367   1.911  0.6146  0.6652  0.8612
   89MOL   H13940795   1.165   3.415   1.810  0.4851 -0.4120 -1.0354
   89MOL   O14040796   1.704   3.384   2.123 -0.0625  0.6435 -0.0227
   89MOL   C14140797   1.783   3.355   2.002  0.1854 -0.1839  0.1258
   89MOL   C14240798   1.929   3.346   2.034 -0.2519 -0.1345 -0.2240
   89MOL   O14340799   1.992   3.292   1.918 -0.2459 -0.3344 -0.6279
   89MOL   C14440800   2.022   3.377   1.821  0.2148  0.6401 -0.2291
   89MOL   O14540801   2.029   3.497   1.839 -0.3104  0.0428 -0.3402
   89MOL   C14640802   2.065   3.301   1.698 -0.1649  0.2272 -0.9977
   89MOL   C14740803   2.092   3.382   1.582  0.1005  0.3724 -0.2227
   89MOL   C14840804   2.126   3.330   1.466 -0.1327  0.0471  0.9898
   89MOL   C14940805   2.149   3.191   1.452  0.7468  1.0100  0.1613
   89MOL   C15040806   2.177   3.132   1.322 -0.0904  0.7447 -0.0280
   89MOL   O15140807   2.182   3.011   1.304 -0.3539  1.0228 -0.3013
   89MOL   O15240808   2.190   3.219   1.223  0.1875 -0.4195  0.0122
   89MOL   C15340809   2.130   3.106   1.563  0.6499  0.1304 -0.0063
   89MOL   C15440810   2.088   3.162   1.689  0.1164 -0.1709  0.5500
   89MOL   H15540811   1.743   3.261   1.966  1.8890 -0.8580 -0.0437
   89MOL   H15640812   1.760   3.429   1.925 -1.8072 -2.4067 -1.4931
   89MOL   H15740813   1.953   3.280   2.117 -1.5288  0.2263  0.4540
   89MOL   H15840814   1.965   3.443   2.067 -1.1483 -0.4771  1.8389
   89MOL   H15940815   2.081   3.488   1.598  3.6641  1.1225 -2.3114
   89MOL   H16040816   2.145   3.387   1.376  3.0234 -1.3180  0.7393
   89MOL   H16140817   2.136   2.998   1.559 -1.7044 -0.0865  1.4058
   89MOL   H16240818   2.072   3.090   1.768  1.6443 -0.1232  0.9052
   89MOL   O16340819   2.229   3.167   1.088 -0.1936 -0.2411  0.2020
   89MOL   C16440820   2.108   3.130   1.013 -0.6818  0.4001 -0.3431
   89MOL   C16540821   2.028   3.258   0.968 -0.1359 -0.7473  0.2852
   89MOL   O16640822   1.944   3.307   1.071 -0.3170  0.1016 -0.5780
   89MOL   C16740823   1.934   3.434   1.096 -0.6546 -0.5221  0.5268
   89MOL   O16840824   1.989   3.515   1.025 -0.0237  0.2611 -0.5678
   89MOL   C16940825   1.869   3.470   1.228 -0.1538  0.1863  0.3741
   89MOL   C17040826   1.863   3.606   1.263 -0.7708 -0.3944 -0.3268
   89MOL   C17140827   1.824   3.647   1.395  1.1778 -0.6198 -0.0530
   89MOL   C17240828   1.772   3.547   1.479 -0.2792 -0.0998  0.3401
   89MOL   C17340829   1.713   3.593   1.607  0.0690  0.5017 -0.5323
   89MOL   O17440830   1.694   3.529   1.711 -0.2956 -0.3709  0.1573
   89MOL   O17540831   1.688   3.725   1.605 -0.3127  0.1575 -0.8103
   89MOL   C17640832   1.770   3.411   1.448 -0.3185 -0.3493  0.2393
   89MOL   C17740833   1.824   3.374   1.322 -0.2627  0.2039  0.0663
   89MOL   H17840834   2.132   3.077   0.921 -1.0799 -0.4857  0.0460
   89MOL   H17940835   2.042   3.069   1.075 -2.7064  0.5429 -2.2741
   89MOL   H18040836   1.959   3.236   0.886  1.5223 -1.3197 -1.0059
   89MOL   H18140837   2.100   3.331   0.932  1.0018 -2.0185 -0.0793
   89MOL   H18240838   1.905   3.686   1.204 -3.2580  1.2952  0.1108
   89MOL   H18340839   1.843   3.749   1.426 -1.5338 -0.2583  0.5687
   89MOL   H18440840   1.741   3.330   1.513 -2.7485 -0.5770 -1.0884
   89MOL   H18540841   1.826   3.268   1.304  1.0444  0.4885 -1.5984
   89MOL   O18640842   1.646   3.785   1.739  0.1478 -0.1657  0.0819
   89MOL   C18740843   1.757   3.844   1.788  0.0328 -0.5232  0.4033
   89MOL   C18840844   1.739   3.882   1.937  0.1321 -0.1633 -0.1839
   89MOL   O18940845   1.856   3.824   2.000  0.6056 -0.5254 -0.3013
   89MOL   C19040846   1.872   3.832   2.127  0.0111 -0.6580  0.1384
   89MOL   O19140847   1.787   3.863   2.210 -0.6499 -0.4382  0.2011
   89MOL   C19240848   2.007   3.782   2.168  0.2933  0.2807  0.0146
   89MOL   C19340849   2.103   3.722   2.083 -0.2397  0.3278  0.3451
   89MOL   C19440850   2.220   3.674   2.137  0.4392 -0.5359  0.1451
   89MOL   C19540851   2.252   3.687   2.276 -0.7271  0.0329  0.2368
   89MOL   C19640852   2.387   3.634   2.327 -0.1477 -0.4476  0.4767
   89MOL   O19740853   2.457   3.556   2.264  0.3445  0.6894  0.1662
   89MOL   O19840854   2.430   3.698   2.443 -0.6075  0.7332 -0.2725
   89MOL   C19940855   2.158   3.758   2.362  0.1084  0.0567  0.5429
   89MOL   C20040856   2.039   3.796   2.305  0.1810  0.1771  0.0491
   89MOL   H20140857   1.846   3.783   1.772  1.1237  1.5035 -1.3544
   89MOL   H20240858   1.778   3.935   1.733 -3.9295  0.1205 -0.2383
   89MOL   H20340859   1.648   3.846   1.985  0.0958 -0.4321 -0.4552
   89MOL   H20440860   1.735   3.989   1.956  0.4307 -0.3374  0.8848
   89MOL   H20540861   2.093   3.698   1.979 -2.5914 -0.5359  0.7274
   89MOL   H20640862   2.294   3.624   2.077 -0.2656 -0.8416 -0.4683
   89MOL   H20740863   2.173   3.767   2.468  1.8454 -0.1867  0.3375
   89MOL   H20840864   1.974   3.844   2.376  1.6142  0.8462  0.9483
   89MOL   O20940865   2.563   3.662   2.491 -0.3437  0.3894  0.1600
   89MOL   C21040866   2.665   3.735   2.418  0.3088  0.1825 -0.0162
   89MOL   C21140867   2.792   3.723   2.509  0.3498  0.0950  0.2628
   89MOL   O21240868   2.820   3.580   2.501 -0.3017 -0.2120 -0.0832
   89MOL   C21340869   2.936   3.534   2.438 -0.5105  0.6493  0.6953
   89MOL   O21440870   3.029   3.607   2.397  0.0604 -0.1632 -0.3456
   89MOL   C21540871   2.943   3.387   2.429 -0.0209  0.4326  0.4161
   89MOL   C21640872   2.843   3.308   2.484  0.3113  0.2650 -0.5368
   89MOL   C21740873   2.841   3.168   2.458 -0.1362  0.3256 -0.0230
   89MOL   C21840874   2.948   3.105   2.389 -0.4828 -0.1489  0.1407
   89MOL   C21940875   2.945   2.956   2.369  0.1541 -0.5083 -0.7357
   89MOL   O22040876   3.038   2.900   2.307 -0.2795 -0.2467 -0.2977
   89MOL   O22140877   2.841   2.895   2.436  0.0807  0.3454  0.0157
   89MOL   C22240878   3.053   3.185   2.342 -0.7805 -0.3893 -0.5595
   89MOL   C22340879   3.051   3.326   2.365  0.2021  0.0914  0.0015
   89MOL   H22440880   2.677   3.704   2.314 -1.3600 -1.7768  0.3322
   89MOL   H22540881   2.636   3.840   2.421  0.8214  0.3504 -0.8085
   89MOL   H22640882   2.761   3.737   2.612  0.7082 -0.2575  0.4183
   89MOL   H22740883   2.875   3.786   2.478  0.6279  0.9311  2.6532
   89MOL   H22840884   2.761   3.351   2.540  1.6149  2.1630 -0.0312
   89MOL   H22940885   2.751   3.115   2.484 -0.2165  1.0595  1.2373
   89MOL   H23040886   3.131   3.141   2.281  0.5565  0.9778  0.1133
   89MOL   H23140887   3.127   3.390   2.322  0.5082 -0.2793 -0.0122
   89MOL   O23240888   2.846   2.746   2.427  0.1077 -0.0099 -0.5273
   89MOL   C23340889   2.751   2.698   2.332 -0.6869 -0.1464  0.4402
   89MOL   C23440890   2.615   2.654   2.387 -1.2180 -0.1729  0.6374
   89MOL   O23540891   2.551   2.754   2.464 -0.4304  0.1918 -0.4305
   89MOL   C23640892   2.440   2.724   2.520 -1.1911  0.3712  0.1448
   89MOL   O23740893   2.364   2.627   2.497  0.0607  0.1556 -0.1875
   89MOL   C23840894   2.399   2.833   2.621 -0.1334  0.1585  0.2800
   89MOL   C23940895   2.440   2.968   2.614  0.5870  0.4625 -0.1260
   89MOL   C24040896   2.414   3.052   2.729 -1.5740  0.4636  0.7764
   89MOL   C24140897   2.337   3.009   2.838  0.4101  0.2621 -0.5999
   89MOL   C24240898   2.321   3.103   2.957 -0.2955  0.7030 -0.5515
   89MOL   O24340899   2.275   3.077   3.072  0.5542 -0.5845  0.5479
   89MOL   O24440900   2.374   3.220   2.937  0.3965  0.2938  0.1924
   89MOL   C24540901   2.286   2.881   2.834  0.1423  0.2198  0.4439
   89MOL   C24640902   2.314   2.795   2.725 -0.6152  0.4123 -0.4804
   89MOL   H24740903   2.730   2.759   2.243  1.8193  2.1182  1.3218
   89MOL   H24840904   2.789   2.614   2.274 -0.1290  1.1774 -1.1589
   89MOL   H24940905   2.622   2.564   2.447 -0.7589  1.3331  2.9369
   89MOL   H25040906   2.547   2.626   2.307  0.5807  2.6420 -2.0212
   89MOL   H25140907   2.511   3.007   2.543  0.9794  1.2810  0.7032
   89MOL   H25240908   2.464   3.148   2.733  1.5588 -1.1247  1.0676
   89MOL   H25340909   2.224   2.855   2.919  1.5983  1.0223  1.7798
   89MOL   H25440910   2.266   2.699   2.714  0.0356  0.1765 -1.3391
   89MOL   O25540911   2.375   3.310   3.059  0.3469  0.3767 -0.2627
   89MOL   C25640912   2.273   3.400   3.051  0.2245 -0.0697 -0.3499
   89MOL   C25740913   2.270   3.492   3.174 -0.2863 -0.0726 -0.2998
   89MOL   O25840914   2.365   3.601   3.165 -0.5974  0.5455 -0.0139
   89MOL   C25940915   2.321   3.716   3.118 -0.0112  0.4367  0.3225
   89MOL   O26040916   2.211   3.729   3.062  0.0233 -0.0992 -0.3641
   89MOL   C26140917   2.415   3.828   3.145  0.0318 -0.2471 -0.0592
   89MOL   C26240918   2.553   3.803   3.176  0.0327  0.5060 -0.2029
   89MOL   C26340919   2.639   3.912   3.188  0.0308 -0.1280 -0.0410
   89MOL   C26440920   2.592   4.049   3.164  1.0541  0.5558  0.5570
   89MOL   C26540921   2.689   4.160   3.173 -0.3056 -0.3702 -0.2103
   89MOL   O26640922   2.811   4.140   3.193  0.1162  0.6301  0.0685
   89MOL   O26740923   2.640   4.277   3.134  0.3456  0.1337  0.0867
   89MOL   C26840924   2.454   4.070   3.148  0.1267  0.6277  0.6327
   89MOL   C26940925   2.367   3.963   3.140 -0.2785  0.3360  0.8753
   89MOL   H27040926   2.286   3.467   2.966 -2.5405  2.0439  0.8040
   89MOL   H27140927   2.184   3.341   3.030 -0.4819  1.4982 -1.9015
   89MOL   H27240928   2.300   3.448   3.269  1.9563  2.3652  0.1859
   89MOL   H27340929   2.165   3.517   3.186 -0.3388 -0.7777  0.8121
   89MOL   H27440930   2.603   3.707   3.171  1.3769  0.9921  2.8302
   89MOL   H27540931   2.742   3.885   3.208  0.9331  2.1442 -1.5194
   89MOL   H27640932   2.411   4.167   3.129  0.8128  1.2520  2.1562
   89MOL   H27740933   2.262   3.981   3.121 -0.0441 -0.4506 -1.2429
   89MOL   O27840934   2.756   4.368   3.087 -0.2136  0.3023 -0.0961
   89MOL   C27940935   2.702   4.425   2.975 -0.5757 -0.2267 -0.1232
   89MOL   C28040936   2.799   4.530   2.921 -0.9009  0.1311 -0.2149
   89MOL   O28140937   2.907   4.458   2.867  0.1999 -0.2230  1.0471
   89MOL   C28240938   3.001   4.528   2.802 -0.2373 -0.1704  0.6880
   89MOL   O28340939   2.987   4.648   2.776  0.3446  0.3070 -0.3720
   89MOL   C28440940   3.124   4.451   2.761  0.5299  0.4936  0.7031
   89MOL   C28540941   3.123   4.308   2.768 -0.1784 -0.6633  0.1887
   89MOL   C28640942   3.239   4.235   2.746  0.7432  0.3235 -0.8016
   89MOL   C28740943   3.355   4.301   2.705 -0.1146 -0.0554 -0.8639
   89MOL   C28840944   3.479   4.221   2.668 -0.0749 -0.6173 -0.7635
   89MOL   O28940945   3.551   4.251   2.577 -0.2705 -0.5598 -0.2506
   89MOL   O29040946   3.493   4.109   2.735 -0.4083 -0.3016  0.9485
   89MOL   C29140947   3.359   4.438   2.685 -0.3516 -0.0224  0.1373
   89MOL   C29240948   3.244   4.512   2.713 -0.2637  0.1846 -0.8629
   89MOL   H29340949   2.672   4.351   2.902  2.4454 -0.5567 -1.0870
   89MOL   H29440950   2.611   4.476   3.007 -0.0608 -0.7629  2.3217
   89MOL   H29540951   2.843   4.601   2.991  0.9170  1.5625 -2.7344
   89MOL   H29640952   2.751   4.592   2.846 -0.4084 -1.6112 -2.0177
   89MOL   H29740953   3.030   4.255   2.786 -0.2360 -0.9063 -0.7805
   89MOL   H29840954   3.243   4.127   2.741 -0.2439 -0.0227  3.7244
   89MOL   H29940955   3.442   4.485   2.634 -2.4094  1.6595 -1.7682
   89MOL   H30040956   3.235   4.620   2.707 -0.8486  0.1941  0.0355
   89MOL   O30140957   3.629   4.038   2.701  0.4255  0.4291  0.0020
   89MOL   C30240958   3.594   3.904   2.665 -0.4915  0.6382 -0.2143
   89MOL   C30340959   3.694   3.827   2.579  0.2947  0.3941 -0.0356
   89MOL   O30440960   3.823   3.825   2.643  0.1484  0.6228 -0.3500
   89MOL   C30540961   3.857   3.743   2.740 -0.1117  0.4227 -1.0270
   89MOL   O30640962   3.770   3.668   2.789 -0.1474  0.4972 -0.3974
   89MOL   C30740963   3.999   3.755   2.784  0.5220  0.3906 -0.1707
   89MOL   C30840964   4.051   3.649   2.853  0.1974  0.4283  0.2978
   89MOL   C30940965   4.182   3.649   2.901  0.4574  0.2140 -0.3415
   89MOL   C31040966   4.260   3.765   2.876 -0.3494  1.3595  0.5722
   89MOL   C31140967   4.403   3.775   2.935  0.2713 -0.0874 -0.7736
   89MOL   O31240968   4.471   3.677   2.961  0.6293 -0.2597  0.0442
   89MOL   O31340969   4.459   3.901   2.941 -0.3628 -0.1143 -0.3941
   89MOL   C31440970   4.207   3.873   2.812  0.5348 -0.4577 -0.2725
   89MOL   C31540971   4.077   3.870   2.763 -0.1991  0.5578  0.0360
   89MOL   H31640972   3.572   3.843   2.753  0.0243 -0.0744 -0.5712
   89MOL   H31740973   3.495   3.902   2.619 -0.7055 -0.7961  0.2925
   89MOL   H31840974   3.718   3.867   2.481  0.5410  1.7669  0.5741
   89MOL   H31940975   3.646   3.732   2.556  0.8502  0.4010 -1.2543
   89MOL   H32040976   3.990   3.560   2.864  0.0449  0.1555 -2.3851
   89MOL   H32140977   4.211   3.564   2.961 -0.5280  0.6459  0.7671
   89MOL   H32240978   4.274   3.955   2.791  2.3730 -1.4813  1.3125
   89MOL   H32340979   4.033   3.959   2.720  0.4696  0.0302 -1.8115
   89MOL   O32440980   4.607   3.889   2.973  0.1658 -0.4178 -0.1333
   89MOL   C32540981   4.681   3.925   2.858  0.4353 -0.2683 -0.7540
   89MOL   C32640982   4.827   3.963   2.894  0.0387 -0.1585 -0.2995
   89MOL   O32740983   4.829   4.098   2.953  0.2937  0.4989  0.3975
   89MOL   C32840984   4.795   4.126   3.074 -0.6454  0.0660  0.2523
   89MOL   O32940985   4.779   4.041   3.157  0.0716  0.3253  0.1572
   89MOL   C33040986   4.786   4.279   3.088 -0.3201 -0.8375  0.2876
   89MOL   C33140987   4.790   4.366   2.974  0.1141 -0.2158 -0.1595
   89MOL   C33240988   4.772   4.505   3.004  0.0022 -0.5189  0.0137
   89MOL   C33340989   4.755   4.557   3.135 -0.0061  0.1348 -0.2972
   89MOL   C33440990   4.748   4.705   3.157 -0.1859 -0.7182  0.6432
   89MOL   O33540991   4.724   4.791   3.071 -0.4626 -0.4025 -0.2101
   89MOL   O33640992   4.757   4.742   3.282  0.1416 -0.7253  0.3840
   89MOL   C33740993   4.760   4.472   3.242  0.1273  0.9474  0.1682
   89MOL   C33840994   4.765   4.332   3.214  0.5967  0.0828 -0.3473
   89MOL   H33940995   4.692   3.844   2.785 -0.3634  0.0605 -1.2489
   89MOL   H34040996   4.634   4.012   2.812  3.1864  3.0526  2.4352
   89MOL   H34140997   4.889   3.968   2.805 -0.9483  1.2565 -0.9239
   89MOL   H34240998   4.872   3.892   2.963  0.0129 -1.8228 -1.9276
   89MOL   H34340999   4.805   4.323   2.877 -0.9844 -0.5252 -0.2032
   89MOL   H34441000   4.780   4.570   2.918 -1.5600 -1.1902 -0.6599
   89MOL   H34541001   4.744   4.505   3.344 -2.7887  0.9676 -0.2514
   89MOL   H34641002   4.771   4.265   3.299  2.7283 -0.3175 -0.7930
   89MOL   O34741003   4.693   4.873   3.318 -0.0624  0.2428 -0.5537
   89MOL   C34841004   4.560   4.845   3.367  0.0041  0.5616  0.6307
   89MOL   C34941005   4.454   4.870   3.253  0.4765 -0.0859 -0.3238
   89MOL   O35041006   4.442   4.758   3.174 -0.1996 -0.2837 -0.1163
   89MOL   C35141007   4.387   4.762   3.054  0.2747  0.3510 -0.4946
   89MOL   O35241008   4.351   4.866   3.002 -0.0868 -0.2569 -0.0761
   89MOL   C35341009   4.397   4.632   2.982  0.2399  0.0240  0.0791
   89MOL   C35441010   4.375   4.633   2.842  0.8389 -0.6856  0.1848
   89MOL   C35541011   4.363   4.515   2.767 -0.2564 -0.2572 -0.6219
   89MOL   C35641012   4.389   4.390   2.829 -0.5057 -0.3073  0.4841
   89MOL   C35741013   4.349   4.265   2.761 -0.7603 -0.3420  0.2750
   89MOL   O35841014   4.408   4.161   2.779  0.0168  0.1080 -0.4182
   89MOL   O35941015   4.253   4.280   2.676 -0.6613  0.2272  0.3600
   89MOL   C36041016   4.437   4.392   2.959 -0.3760  0.2946 -0.0865
   89MOL   C36141017   4.437   4.516   3.036 -0.8937  0.5883 -0.6643
   89MOL   H36241018   4.550   4.745   3.408 -1.0437  0.0680 -0.7837
   89MOL   H36341019   4.534   4.909   3.452  0.6024  0.2804  1.0255
   89MOL   H36441020   4.494   4.953   3.194  1.4424 -0.3742 -0.0791
   89MOL   H36541021   4.358   4.902   3.292  2.4857  2.3260  2.8497
   89MOL   H36641022   4.346   4.730   2.805  1.2226  0.9405  3.8722
   89MOL   H36741023   4.350   4.520   2.660  0.8550  0.0854 -0.7483
   89MOL   H36841024   4.464   4.298   3.005  1.2954  0.3064 -1.0082
   89MOL   H36941025   4.468   4.508   3.139  1.1492  0.7848 -1.2436
   89MOL   O37041026   4.203   4.152   2.609 -0.3332  0.4244  0.2048
   89MOL   C37141027   4.250   4.152   2.477 -0.6973 -0.4261  0.2695
   89MOL   C37241028   4.224   4.011   2.414  0.7084  0.0509 -0.4711
   89MOL   O37341029   4.308   3.911   2.467  0.6858 -0.0607 -0.2486
   89MOL   C37441030   4.435   3.909   2.422 -0.4628  0.0813 -0.4920
   89MOL   O37541031   4.480   3.990   2.340  0.4628  0.8404  0.2795
   89MOL   C37641032   4.524   3.808   2.479 -0.1040  0.2553  0.6457
   89MOL   C37741033   4.661   3.798   2.443 -0.0948 -0.1145  0.7044
   89MOL   C37841034   4.734   3.701   2.503 -0.7856 -0.6793 -0.5194
   89MOL   C37941035   4.685   3.623   2.609 -0.5056  0.0231 -0.7442
   89MOL   C38041036   4.781   3.537   2.681  0.5671 -0.8947 -0.4865
   89MOL   O38141037   4.898   3.530   2.651  0.1782  1.0672  0.1893
   89MOL   O38241038   4.735   3.482   2.783  0.3276  0.2155 -0.1246
   89MOL   C38341039   4.550   3.627   2.633  0.6130  0.9066 -0.2168
   89MOL   C38441040   4.463   3.720   2.571  0.3388 -0.0436  0.4507
   89MOL   H38541041   4.186   4.226   2.427  0.0083 -2.4108 -3.8043
   89MOL   H38641042   4.353   4.180   2.459 -0.8485  0.3808  0.6056
   89MOL   H38741043   4.230   4.002   2.306  0.1833  1.2992 -0.6189
   89MOL   H38841044   4.122   3.980   2.437  0.2918 -1.1594 -3.7655
   89MOL   H38941045   4.698   3.864   2.365 -2.1592  1.0614  0.6598
   89MOL   H39041046   4.838   3.690   2.475 -0.0061  1.9726  1.1268
   89MOL   H39141047   4.495   3.573   2.709 -2.2245  2.1079 -1.3673
   89MOL   H39241048   4.367   3.727   2.620  0.6828  0.3573  1.0815
   89MOL   O39341049   4.836   3.450   2.888 -0.1826  0.7546 -0.0676
   89MOL   C39441050   4.807   3.531   3.001  0.0637  0.3057 -0.3872
   89MOL   C39541051   4.694   3.462   3.076  0.0146  0.1592  1.1328
   89MOL   O39641052   4.716   3.331   3.139  0.2293 -0.7136 -0.2400
   89MOL   C39741053   4.809   3.312   3.234 -0.4526  0.4833 -0.5282
   89MOL   O39841054   4.902   3.398   3.250  0.4649 -0.1959  0.9393
   89MOL   C39941055   4.802   3.185   3.313 -0.0171 -0.3462 -0.1547
   89MOL   C40041056   4.904   3.159   3.411 -0.0185  0.3449 -0.7895
   89MOL   C40141057   4.892   3.046   3.492  0.3204 -0.1393  0.2166
   89MOL   C40241058   4.784   2.956   3.479 -0.1269 -0.4149 -0.1793
   89MOL   C40341059   4.769   2.834   3.560  0.0253 -0.7925  0.6132
   89MOL   O40441060   4.661   2.776   3.580 -0.1455  0.0946 -0.4604
   89MOL   O40541061   4.889   2.796   3.616  0.6759  0.0177  0.0980
   89MOL   C40641062   4.679   2.984   3.382 -0.6037  0.2874  0.0205
   89MOL   C40741063   4.693   3.097   3.298 -0.2831  0.0702  0.1630
   89MOL   H40841064   4.898   3.540   3.060 -0.3305  2.2185 -0.0415
   89MOL   H40941065   4.774   3.626   2.958 -1.7380 -0.5472 -0.9561
   89MOL   H41041066   4.605   3.462   3.013 -1.9270 -4.0271  3.6791
   89MOL   H41141067   4.674   3.532   3.157 -0.1910  0.6396  0.6686
   89MOL   H41241068   4.986   3.228   3.430  0.1993 -0.6283  2.1545
   89MOL   H41341069   4.957   3.033   3.578 -0.9823 -1.6037  0.9951
   89MOL   H41441070   4.600   2.912   3.374 -2.8112  2.3865  2.1293
   89MOL   H41541071   4.624   3.106   3.216  0.7850 -2.1863 -1.0536
   89MOL   O41641072   4.879   2.689   3.721  0.8800 -0.1270 -0.3028
   89MOL   C41741073   4.934   2.746   3.835 -0.0190 -0.6508  0.1484
   89MOL   C41841074   4.898   2.667   3.963  0.3236 -0.4694 -0.1730
   89MOL   O41941075   4.780   2.725   4.028 -0.2761 -0.2722  0.0967
   89MOL   C42041076   4.655   2.698   3.994 -0.1931  0.8134  0.8842
   89MOL   O42141077   4.624   2.630   3.893 -0.2191  0.6845 -0.1348
   89MOL   C42241078   4.559   2.753   4.094 -0.2326 -0.4245  0.3728
   89MOL   C42341079   4.426   2.783   4.055  0.5631 -0.2337  0.6733
   89MOL   C42441080   4.341   2.857   4.143 -0.2880 -0.0353 -0.8198
   89MOL   C42541081   4.385   2.896   4.268  0.0489 -0.2760  0.1070
   89MOL   C42641082   4.290   2.962   4.360 -0.3681  0.7157 -0.3448
   89MOL   O42741083   4.169   2.970   4.338  0.5181  0.1010 -0.1525
   89MOL   O42841084   4.348   3.025   4.467 -0.4339  0.1408  0.0719
   89MOL   C42941085   4.519   2.866   4.306  0.0993  0.1052  0.4119
   89MOL   C43041086   4.603   2.787   4.222 -0.8293  0.0734 -0.1489
   89MOL   H43141087   5.042   2.739   3.824  0.2772  1.2090  1.5731
   89MOL   H43241088   4.912   2.853   3.840  0.1170 -0.4680 -2.2180
   89MOL   H43341089   4.984   2.670   4.030  1.0348  1.3541 -1.1281
   89MOL   H43441090   4.879   2.566   3.924 -0.4352 -0.2894 -0.2634
   89MOL   H43541091   4.390   2.756   3.957  0.4101  0.1154  0.6309
   89MOL   H43641092   4.241   2.872   4.105 -0.6109 -1.1797 -0.4597
   89MOL   H43741093   4.565   2.897   4.400  2.0013 -1.9802  0.2173
   89MOL   H43841094   4.702   2.773   4.265 -0.9704  0.5799  0.3507
   89MOL   O43941095   4.250   3.113   4.546  0.5033  0.0236  0.2342
   89MOL   C44041096   4.257   3.250   4.485 -0.3717 -0.2466  0.1531
   89MOL   C44141097   4.254   3.346   4.604 -0.7185  0.4324  0.7120
   89MOL   O44241098   4.377   3.333   4.686  0.2226 -0.6937 -0.1590
   89MOL   C44341099   4.410   3.440   4.761  0.5648  0.8159  0.7675
   89MOL   O44441100   4.358   3.548   4.740  0.9198  0.0525  0.1722
   89MOL   C44541101   4.507   3.406   4.862  0.3753  0.3370  0.0944
   89MOL   C44641102   4.567   3.281   4.870 -0.3886 -0.2041 -0.4378
   89MOL   C44741103   4.668   3.248   4.969 -0.4556 -0.0707 -0.1584
   89MOL   C44841104   4.701   3.340   5.072  0.4704  0.4571  0.0106
   89MOL   C44941105   4.813   3.314   5.168  0.0359 -0.5421  0.2649
   89MOL   O45041106   4.832   3.385   5.269  0.0183 -0.9708  0.2942
   89MOL   O45141107   4.891   3.209   5.133 -0.4965  0.1387 -0.0064
   89MOL   C45241108   4.636   3.467   5.066  0.1782  0.8039 -0.2777
   89MOL   C45341109   4.544   3.498   4.960 -0.1760 -1.0333 -0.1130
   89MOL   H45441110   4.350   3.260   4.428  0.5929 -1.4979  1.4389
   89MOL   H45541111   4.175   3.271   4.417 -1.2586 -1.6687  0.7503
   89MOL   H45641112   4.173   3.328   4.674 -0.5112 -1.9197  0.3884
   89MOL   H45741113   4.238   3.449   4.573  1.9658  0.1525 -1.8624
   89MOL   H45841114   4.545   3.193   4.811  0.2458 -0.8430  0.2714
   89MOL   H45941115   4.716   3.152   4.971 -0.1014  0.1193  0.3152
   89MOL   H46041116   4.665   3.545   5.135  0.1780  0.4110  0.1592
   89MOL   H46141117   4.495   3.594   4.952  0.3109 -0.8707 -1.0899
   89MOL   H46241118   4.964   3.215   5.193 -0.2147 -1.9709 -0.1200
   90MOL     O141119   5.513   4.528   4.735 -0.4861 -0.1167 -0.0375
   90MOL     C241120   5.572   4.406   4.694 -0.1236  0.5178  0.0709
   90MOL     C341121   5.718   4.430   4.656  0.5588  0.3800  0.1662
   90MOL     O441122   5.789   4.437   4.777 -0.3254  0.1513  0.1196
   90MOL     C541123   5.851   4.548   4.807  0.5160 -0.3467  0.1874
   90MOL     O641124   5.886   4.639   4.735 -0.0709  0.5291 -0.4191
   90MOL     C741125   5.878   4.547   4.955  0.0979  0.4326  0.0845
   90MOL     C841126   5.832   4.448   5.040 -0.3155  0.1092  0.9153
   90MOL     C941127   5.852   4.449   5.178  0.1295  0.0847  0.1160
   90MOL    C1041128   5.950   4.543   5.224 -0.2272 -0.3193  0.4814
   90MOL    C1141129   5.977   4.562   5.363  0.4844  0.4591  0.0550
   90MOL    O1241130   6.008   4.670   5.414 -0.1860 -0.1836 -0.2482
   90MOL    O1341131   5.939   4.448   5.429  0.1317  0.3871 -0.1011
   90MOL    C1441132   6.010   4.636   5.137  0.1834 -0.0753 -0.5179
   90MOL    C1541133   5.973   4.635   5.002  0.0078 -0.2893 -0.3109
   90MOL    H1641134   5.572   4.329   4.772  0.9207  1.1375  0.7123
   90MOL    H1741135   5.512   4.380   4.608  0.9118  0.1340 -0.5495
   90MOL    H1841136   5.720   4.518   4.592  1.7263  0.9533  0.9867
   90MOL    H1941137   5.759   4.346   4.599 -1.1308 -1.6011  1.7646
   90MOL    H2041138   5.758   4.380   4.999  1.0248 -0.2989 -0.9029
   90MOL    H2141139   5.802   4.381   5.246 -2.2017  0.8183 -0.8113
   90MOL    H2241140   6.089   4.703   5.170  1.0007 -2.0140  1.5389
   90MOL    H2341141   6.023   4.703   4.933  1.1019 -0.0873  0.6676
   90MOL    H2441142   5.571   4.596   4.705 -0.8722 -0.5800 -1.9309
   90MOL    O2541143   5.913   4.473   5.575 -0.3468  0.2718  0.8809
   90MOL    C2641144   5.770   4.465   5.595  0.3612  0.0759 -0.2640
   90MOL    C2741145   5.744   4.445   5.744  0.2136 -0.2765  0.1059
   90MOL    O2841146   5.782   4.317   5.794 -0.0762 -0.3328  0.2652
   90MOL    C2941147   5.732   4.256   5.905 -0.7977  0.4774  0.0763
   90MOL    O3041148   5.665   4.317   5.988  0.8081  0.4528 -0.0356
   90MOL    C3141149   5.767   4.109   5.907 -0.1260 -0.3969 -0.1740
   90MOL    C3241150   5.705   4.031   6.006 -0.1969 -0.2152 -0.5090
   90MOL    C3341151   5.737   3.899   6.021 -1.1727 -0.0185 -0.7312
   90MOL    C3441152   5.825   3.835   5.933 -0.5057  0.2254 -0.5955
   90MOL    C3541153   5.856   3.687   5.934 -0.0377  0.1961  1.1266
   90MOL    O3641154   5.891   3.628   5.834  0.2410  0.0866 -0.0541
   90MOL    O3741155   5.841   3.625   6.053 -0.2354 -0.3550  0.2983
   90MOL    C3841156   5.882   3.908   5.827 -0.1937  0.1074  0.3237
   90MOL    C3941157   5.855   4.050   5.814 -0.4995  0.3851 -0.5268
   90MOL    H4041158   5.722   4.552   5.550 -0.6146 -0.4401 -0.2460
   90MOL    H4141159   5.729   4.382   5.537  0.7051  0.1304 -0.5874
   90MOL    H4241160   5.636   4.455   5.749  0.2058 -0.0949 -0.3394
   90MOL    H4341161   5.790   4.525   5.801  0.1168 -0.5350  0.5507
   90MOL    H4441162   5.632   4.077   6.071 -0.6984 -0.0214 -1.2128
   90MOL    H4541163   5.695   3.841   6.102 -0.2302 -0.0765 -0.2837
   90MOL    H4641164   5.938   3.851   5.754 -1.7635 -0.6546 -0.3165
   90MOL    H4741165   5.908   4.113   5.744 -1.1321  1.8584  0.2855
   90MOL    O4841166   5.868   3.480   6.042 -0.0268 -0.7297 -0.3080
   90MOL    C4941167   5.954   3.436   6.145  0.3638 -0.1627 -0.3928
   90MOL    C5041168   5.963   3.287   6.140 -0.3102 -0.0683 -0.0004
   90MOL    O5141169   5.836   3.237   6.178 -0.2093  0.3381 -0.1641
   90MOL    C5241170   5.823   3.102   6.202  0.2333  0.0116 -0.3995
   90MOL    O5341171   5.917   3.027   6.192  0.2122  0.5286  0.3083
   90MOL    C5441172   5.693   3.058   6.246  0.3035 -0.8324 -0.4791
   90MOL    C5541173   5.668   2.921   6.273 -0.1352 -0.1598 -0.3039
   90MOL    C5641174   5.542   2.882   6.315 -0.3815 -0.6269 -0.3842
   90MOL    C5741175   5.437   2.979   6.335  0.3889 -0.6706  0.1319
   90MOL    C5841176   5.299   2.941   6.380 -0.2990 -0.0135 -0.7310
   90MOL    O5941177   5.210   3.013   6.410  0.3226  0.1553  1.0172
   90MOL    O6041178   5.292   2.811   6.384  0.4960 -0.1630 -0.1383
   90MOL    C6141179   5.461   3.114   6.302 -0.9281  0.2142  0.3472
   90MOL    C6241180   5.585   3.152   6.257 -0.7676 -0.7344  0.8220
   90MOL    H6341181   6.055   3.472   6.129 -0.0612  1.7440  0.9869
   90MOL    H6441182   5.930   3.479   6.243 -0.3983  0.0901 -0.6878
   90MOL    H6541183   6.032   3.256   6.219 -0.1626  1.9898  0.7061
   90MOL    H6641184   5.989   3.250   6.041  1.7443  2.5826 -0.5324
   90MOL    H6741185   5.740   2.845   6.246 -0.3940 -0.9908  1.2799
   90MOL    H6841186   5.536   2.777   6.341 -0.1163 -0.9692 -1.6909
   90MOL    H6941187   5.391   3.196   6.309 -0.4591  0.7340 -0.8339
   90MOL    H7041188   5.606   3.258   6.252  0.6047 -1.0462  0.1039
   90MOL    O7141189   5.155   2.764   6.370  0.0859  0.2942 -0.6175
   90MOL    C7241190   5.140   2.706   6.238  0.4029  0.1406 -0.1653
   90MOL    C7341191   4.992   2.690   6.197  0.0394 -0.7499  0.2117
   90MOL    O7441192   4.979   2.581   6.115  0.0132 -0.1074 -0.3448
   90MOL    C7541193   4.864   2.543   6.066 -0.2804 -0.0682  0.2845
   90MOL    O7641194   4.769   2.624   6.056 -0.3581  0.0091  0.6026
   90MOL    C7741195   4.853   2.394   6.035  0.8045  0.3410 -0.5160
   90MOL    C7841196   4.757   2.342   5.947  0.1507  0.3613 -0.2264
   90MOL    C7941197   4.755   2.200   5.930 -0.0669  0.1800  0.2527
   90MOL    C8041198   4.840   2.113   5.997 -0.0952  0.5172 -0.2099
   90MOL    C8141199   4.839   1.964   5.983 -0.2385 -0.0338 -0.4748
   90MOL    O8241200   4.891   1.885   6.059  0.0631  0.1127 -0.7861
   90MOL    O8341201   4.757   1.924   5.881 -0.6099  0.3122 -1.1433
   90MOL    C8441202   4.937   2.172   6.082 -0.2651  1.3228  0.0985
   90MOL    C8541203   4.942   2.307   6.105 -0.1163  0.3275 -0.3871
   90MOL    H8641204   5.180   2.770   6.160 -1.0292 -0.1305 -1.1390
   90MOL    H8741205   5.199   2.614   6.234 -1.4787 -1.1196  0.2594
   90MOL    H8841206   4.953   2.783   6.156 -2.0288 -0.7813  2.0248
   90MOL    H8941207   4.928   2.677   6.285  0.6057  0.1012  0.7552
   90MOL    H9041208   4.690   2.410   5.895  0.3791  0.7115 -0.0660
   90MOL    H9141209   4.684   2.157   5.860  1.3742  0.4731 -1.4140
   90MOL    H9241210   5.016   2.110   6.122  0.2536  1.6599 -0.3949
   90MOL    H9341211   5.016   2.348   6.172  0.9166  1.9254 -2.4601
   90MOL    O9441212   4.740   1.774   5.870 -0.7446  0.0927 -0.6801
   90MOL    C9541213   4.834   1.721   5.782 -0.0439 -0.1695 -0.1717
   90MOL    C9641214   4.819   1.568   5.772  0.3651 -0.4461 -0.1747
   90MOL    O9741215   4.896   1.514   5.881 -0.0154 -0.2053  0.0469
   90MOL    C9841216   5.008   1.450   5.866 -0.2327  0.2205  0.2677
   90MOL    O9941217   5.050   1.422   5.753 -0.6037  0.1512 -0.5432
   90MOL   C10041218   5.089   1.422   5.981  0.3281  0.3131 -0.0655
   90MOL   C10141219   5.053   1.477   6.110  0.0542  0.8494 -0.4088
   90MOL   C10241220   5.133   1.449   6.222  0.5780  0.2611  0.1838
   90MOL   C10341221   5.260   1.393   6.202 -0.0080  0.5377  0.1475
   90MOL   C10441222   5.351   1.391   6.319  0.0241  0.1160  1.1113
   90MOL   O10541223   5.475   1.390   6.315  0.6586 -0.1510  0.5149
   90MOL   O10641224   5.291   1.412   6.443 -0.5349  0.5739  0.3458
   90MOL   C10741225   5.294   1.343   6.073  0.7001 -0.9108 -0.2711
   90MOL   C10841226   5.212   1.358   5.964 -0.1207 -0.3317  0.0170
   90MOL   H10941227   4.830   1.769   5.684  1.9793  0.0751 -0.1640
   90MOL   H11041228   4.938   1.738   5.811 -0.5172  1.8231  0.4083
   90MOL   H11141229   4.858   1.531   5.677  0.0078 -2.9819  0.6509
   90MOL   H11241230   4.715   1.535   5.778  0.7736 -1.4343  1.5704
   90MOL   H11341231   4.963   1.536   6.119 -1.5864 -1.7117  0.5251
   90MOL   H11441232   5.116   1.495   6.318 -0.3154 -1.0568  0.6735
   90MOL   H11541233   5.382   1.286   6.050 -0.0355 -2.0993 -0.1583
   90MOL   H11641234   5.253   1.330   5.869  2.2287 -1.1376  1.2230
   90MOL   O11741235   5.382   1.410   6.565 -0.6952 -0.1871  0.9485
   90MOL   C11841236   5.410   1.541   6.599 -0.3914  0.0732 -0.6086
   90MOL   C11941237   5.467   1.566   6.736  0.1283 -0.3036 -0.3504
   90MOL   O12041238   5.468   1.703   6.756  0.1075  0.3488 -0.0337
   90MOL   C12141239   5.358   1.768   6.806 -1.0307 -0.7771 -0.2596
   90MOL   O12241240   5.251   1.713   6.828 -0.1471  0.4410 -0.2541
   90MOL   C12341241   5.381   1.909   6.821  0.4395  0.5245 -0.9346
   90MOL   C12441242   5.469   1.982   6.748 -0.3400 -0.8727 -0.1113
   90MOL   C12541243   5.474   2.122   6.761 -0.4836  0.2321 -0.1317
   90MOL   C12641244   5.390   2.190   6.855 -0.2173 -0.4146  0.2111
   90MOL   C12741245   5.397   2.332   6.866 -0.1893  0.0083 -0.4441
   90MOL   O12841246   5.341   2.401   6.951  0.7609  0.2439 -0.2077
   90MOL   O12941247   5.457   2.375   6.760  0.0508  0.2227 -0.0825
   90MOL   C13041248   5.304   2.114   6.937 -0.0088  0.0455 -0.2016
   90MOL   C13141249   5.300   1.973   6.916 -0.4503  0.5077 -0.7308
   90MOL   H13241250   5.481   1.583   6.527 -0.5888  1.4985  0.0237
   90MOL   H13341251   5.322   1.603   6.585 -0.4335  0.5116  1.4868
   90MOL   H13441252   5.558   1.506   6.742  0.7786  0.5842 -1.1589
   90MOL   H13541253   5.395   1.525   6.806  1.6233 -0.3121  1.2187
   90MOL   H13641254   5.529   1.935   6.672 -1.4317  1.3613 -2.4351
   90MOL   H13741255   5.544   2.164   6.691 -0.5210  1.5837  0.6231
   90MOL   H13841256   5.243   2.152   7.018  1.7716  0.4476  0.9813
   90MOL   H13941257   5.223   1.922   6.972 -1.6948 -0.3531 -3.1905
   90MOL   O14041258   5.462   2.525   6.739 -0.3166  0.2656  0.2835
   90MOL   C14141259   5.387   2.553   6.624  0.1078  0.1115 -0.4569
   90MOL   C14241260   5.238   2.521   6.641 -0.1246 -0.4139  0.8619
   90MOL   O14341261   5.191   2.391   6.609 -0.4756 -0.2911  0.1259
   90MOL   C14441262   5.210   2.323   6.488 -0.3678  0.3637 -0.8633
   90MOL   O14541263   5.247   2.381   6.387 -0.1991  0.1147 -0.1571
   90MOL   C14641264   5.161   2.182   6.495 -0.1703  0.9580  0.8318
   90MOL   C14741265   5.096   2.130   6.607  0.2713 -0.3871 -0.1630
   90MOL   C14841266   5.040   2.003   6.613 -0.4319  0.1491 -0.1479
   90MOL   C14941267   5.039   1.922   6.494  0.3517 -0.3229 -0.2141
   90MOL   C15041268   4.977   1.782   6.479 -0.1247 -0.3700 -0.0969
   90MOL   O15141269   4.986   1.713   6.377  0.3298 -0.2290  0.0230
   90MOL   O15241270   4.927   1.740   6.588  0.2573  0.5280  0.0613
   90MOL   C15341271   5.096   1.975   6.378  0.8227 -0.5495  0.4090
   90MOL   C15441272   5.164   2.096   6.378  0.2902 -0.6478 -0.4429
   90MOL   H15541273   5.389   2.660   6.605 -2.6037  0.8590  2.8478
   90MOL   H15641274   5.436   2.510   6.537  0.7829  1.4699 -0.7635
   90MOL   H15741275   5.177   2.588   6.582 -0.0081 -0.0024  1.2078
   90MOL   H15841276   5.206   2.550   6.741  0.9733 -2.1579  1.7513
   90MOL   H15941277   5.086   2.188   6.698  0.2779  1.4727 -1.3269
   90MOL   H16041278   5.002   1.960   6.705  2.1236 -0.3157  0.7385
   90MOL   H16141279   5.078   1.922   6.285  1.3464  2.4185 -1.4693
   90MOL   H16241280   5.194   2.125   6.278 -0.3639  1.8159  0.0308
   90MOL   O16341281   4.912   1.588   6.596 -0.1581  0.3203  0.1967
   90MOL   C16441282   4.998   1.541   6.695 -0.3848  0.7898 -0.8089
   90MOL   C16541283   4.973   1.395   6.710 -0.2971  0.2360 -0.0515
   90MOL   O16641284   4.999   1.319   6.593 -0.4099 -0.3372 -0.3235
   90MOL   C16741285   4.976   1.187   6.594  0.2402 -0.0336  0.8723
   90MOL   O16841286   4.967   1.123   6.695  0.1498 -0.0855 -0.4040
   90MOL   C16941287   4.984   1.130   6.454 -0.0815  0.2737  0.0316
   90MOL   C17041288   4.959   1.200   6.332 -0.2194  0.2472 -0.3654
   90MOL   C17141289   4.957   1.137   6.207 -0.0876 -0.2529 -0.2736
   90MOL   C17241290   4.991   1.003   6.193 -0.4003  0.1957 -0.8225
   90MOL   C17341291   5.019   0.945   6.062 -0.5626 -0.1260  0.2864
   90MOL   O17441292   5.106   0.864   6.044 -0.3483 -0.5260  0.4385
   90MOL   O17541293   4.943   0.997   5.970  0.0286  0.3861  0.2340
   90MOL   C17641294   5.019   0.934   6.313  0.2488 -0.6066 -0.1322
   90MOL   C17741295   5.014   0.995   6.442  0.5247 -0.3899 -0.0541
   90MOL   H17841296   5.104   1.559   6.678  0.3353 -1.5583  0.8981
   90MOL   H17941297   4.983   1.590   6.791  0.8597  0.0314 -0.2065
   90MOL   H18041298   4.866   1.388   6.733 -0.3774 -1.2537 -0.7699
   90MOL   H18141299   5.035   1.365   6.795 -1.3257  0.1406  0.6733
   90MOL   H18241300   4.930   1.303   6.348  0.0258 -0.1601  3.2075
   90MOL   H18341301   4.943   1.200   6.121  0.5667 -0.9566 -0.9024
   90MOL   H18441302   5.055   0.832   6.308 -0.0435 -0.6589 -1.2835
   90MOL   H18541303   5.056   0.952   6.532  0.1103  0.7330  0.6742
   90MOL   O18641304   4.986   0.953   5.828  0.3176 -0.1100 -0.5208
   90MOL   C18741305   5.038   1.062   5.762 -0.2732 -0.1027  0.3387
   90MOL   C18841306   5.141   1.004   5.661  0.0761 -0.3679  0.0714
   90MOL   O18941307   5.273   1.058   5.676  0.2254  0.4114 -0.0430
   90MOL   C19041308   5.353   1.029   5.782  0.4094 -0.6707 -0.0217
   90MOL   O19141309   5.325   0.939   5.863  0.5820  0.3628 -0.1280
   90MOL   C19241310   5.470   1.122   5.809  0.4000 -0.3402  0.3782
   90MOL   C19341311   5.484   1.252   5.751  0.1560 -1.1409 -0.3416
   90MOL   C19441312   5.585   1.340   5.788 -0.7246 -0.1609 -0.6332
   90MOL   C19541313   5.678   1.308   5.891  0.0309  1.2836 -0.6342
   90MOL   C19641314   5.779   1.409   5.944 -0.2261 -0.4401 -0.0617
   90MOL   O19741315   5.862   1.394   6.033  0.0406  0.1977  0.5932
   90MOL   O19841316   5.780   1.527   5.871 -0.2930 -0.0145  0.0065
   90MOL   C19941317   5.659   1.181   5.945 -0.7419 -0.1954  0.6397
   90MOL   C20041318   5.567   1.085   5.903  0.0863  0.3245  0.4167
   90MOL   H20141319   4.961   1.117   5.708 -0.0500  0.1601  0.2878
   90MOL   H20241320   5.084   1.139   5.823 -0.9246  1.1964 -0.7714
   90MOL   H20341321   5.106   1.020   5.559 -0.0906 -4.4068 -0.5660
   90MOL   H20441322   5.149   0.897   5.680  2.5821 -0.3954 -0.8743
   90MOL   H20541323   5.419   1.282   5.669 -0.1848  0.1175  0.3689
   90MOL   H20641324   5.593   1.439   5.748 -1.7586 -0.6241 -2.0042
   90MOL   H20741325   5.717   1.154   6.032  0.4152  1.1716  0.3067
   90MOL   H20841326   5.564   0.988   5.952 -0.9944  0.6514  1.0017
   90MOL   O20941327   5.838   1.648   5.940 -0.1142 -0.2077 -0.1177
   90MOL   C21041328   5.951   1.681   5.866 -0.1076 -0.1041  0.7647
   90MOL   C21141329   6.031   1.769   5.961 -0.6149 -0.1932  0.2391
   90MOL   O21241330   5.978   1.902   5.960  0.5109  0.3871 -0.0697
   90MOL   C21341331   6.024   1.986   6.056  0.9585 -0.3623 -0.3265
   90MOL   O21441332   6.104   1.953   6.147  0.3049  0.0833  0.6333
   90MOL   C21541333   5.978   2.129   6.045 -0.9082  1.2228 -0.1620
   90MOL   C21641334   6.054   2.235   6.111 -0.2583  0.3624 -0.2910
   90MOL   C21741335   6.009   2.365   6.110 -0.7318 -0.6662  0.0652
   90MOL   C21841336   5.884   2.407   6.055 -0.3384  0.4617  0.4524
   90MOL   C21941337   5.852   2.547   6.046  0.0387  0.7185 -0.0725
   90MOL   O22041338   5.741   2.585   6.012 -0.8317  0.2897  0.1135
   90MOL   O22141339   5.951   2.635   6.073 -0.2566 -0.0845 -0.5747
   90MOL   C22241340   5.809   2.302   6.000  0.9989  0.6028  0.4195
   90MOL   C22341341   5.857   2.167   5.999 -0.5772  0.2405  0.4151
   90MOL   H22441342   6.017   1.597   5.842  0.5906  0.3772  0.9846
   90MOL   H22541343   5.920   1.735   5.776 -1.4267 -1.4379  0.3941
   90MOL   H22641344   6.134   1.773   5.925 -0.3299  1.6505  1.1965
   90MOL   H22741345   6.053   1.723   6.058  0.5580 -1.4897 -0.6207
   90MOL   H22841346   6.142   2.202   6.165 -0.2075  1.0316  0.0433
   90MOL   H22941347   6.076   2.437   6.155 -0.7997  0.1243 -1.0588
   90MOL   H23041348   5.710   2.321   5.961  1.1796  0.7135  0.0111
   90MOL   H23141349   5.793   2.093   5.952 -0.9878  1.6390 -1.2654
   90MOL   O23241350   5.918   2.779   6.046 -0.3641  0.4093  0.4189
   90MOL   C23341351   5.945   2.809   5.909  0.3859  0.2899  0.1035
   90MOL   C23441352   5.904   2.951   5.874 -0.3230  0.1047 -0.0409
   90MOL   O23541353   5.771   2.971   5.910 -0.1337 -0.1739 -0.2126
   90MOL   C23641354   5.710   3.081   5.868 -0.2995 -0.0547 -0.3650
   90MOL   O23741355   5.775   3.178   5.822 -0.7491  0.1560  0.3991
   90MOL   C23841356   5.557   3.069   5.858 -0.4319 -0.1742 -0.6495
   90MOL   C23941357   5.490   3.156   5.781  0.3884  0.2536  0.6423
   90MOL   C24041358   5.352   3.160   5.769 -0.1935  0.1187 -0.0039
   90MOL   C24141359   5.277   3.085   5.864 -0.0769  0.3396  0.8801
   90MOL   C24241360   5.130   3.120   5.888 -0.0851 -0.1398  0.3218
   90MOL   O24341361   5.078   3.224   5.842 -0.2637  0.1887  0.0668
   90MOL   O24441362   5.058   3.034   5.969 -0.2295 -0.4230 -0.1444
   90MOL   C24541363   5.344   2.990   5.948 -0.8402 -0.0301 -0.1040
   90MOL   C24641364   5.488   2.982   5.942 -0.2088  0.1739  0.3448
   90MOL   H24741365   6.050   2.782   5.892  1.0303  2.6197  0.1966
   90MOL   H24841366   5.890   2.747   5.838 -0.2827  0.6902  0.2719
   90MOL   H24941367   5.907   2.973   5.767  3.0634 -1.2847 -0.2935
   90MOL   H25041368   5.967   3.027   5.920 -0.5215  0.7182 -0.7732
   90MOL   H25141369   5.541   3.224   5.714 -2.1395  2.2452  0.6660
   90MOL   H25241370   5.301   3.232   5.707 -0.4450  0.0995  0.1851
   90MOL   H25341371   5.292   2.933   6.023 -1.6123  0.1376 -0.5113
   90MOL   H25441372   5.530   2.904   6.004  1.9304  0.2815 -0.9350
   90MOL   O25541373   4.903   3.042   5.963  0.0579  0.5245  0.5747
   90MOL   C25641374   4.865   2.951   5.859  0.1001 -0.4188  0.1663
   90MOL   C25741375   4.713   2.961   5.847  0.0620 -0.5924 -0.6894
   90MOL   O25841376   4.679   3.093   5.816  0.0943  0.8163  0.1002
   90MOL   C25941377   4.556   3.112   5.758 -1.0364  0.3492  0.3918
   90MOL   O26041378   4.472   3.025   5.742 -0.3264 -0.3612 -0.0158
   90MOL   C26141379   4.538   3.255   5.722  0.6681  0.2646 -0.2575
   90MOL   C26241380   4.616   3.362   5.772 -0.7693  1.0240 -0.2304
   90MOL   C26341381   4.591   3.498   5.728  0.1993 -0.1107 -0.2005
   90MOL   C26441382   4.486   3.517   5.638 -0.3026  1.0359  1.1713
   90MOL   C26541383   4.442   3.650   5.600 -0.4454  0.0681  0.1626
   90MOL   O26641384   4.380   3.676   5.494 -0.2996 -0.1691 -0.6879
   90MOL   O26741385   4.465   3.736   5.698 -0.2465 -0.3090  0.0207
   90MOL   C26841386   4.422   3.409   5.572 -0.4268  0.8539  0.1443
   90MOL   C26941387   4.445   3.282   5.619 -0.1752 -0.3130  0.3150
   90MOL   H27041388   4.914   2.977   5.766  1.1877 -1.6096  0.3961
   90MOL   H27141389   4.909   2.855   5.886  1.6994  0.1283 -0.4428
   90MOL   H27241390   4.665   2.941   5.943 -0.1022  0.6528 -0.5101
   90MOL   H27341391   4.677   2.880   5.783 -1.7938  1.5415 -2.4219
   90MOL   H27441392   4.687   3.354   5.854  0.8252 -0.0885 -1.6912
   90MOL   H27541393   4.640   3.578   5.782  0.9693  0.0960 -1.1994
   90MOL   H27641394   4.345   3.424   5.498 -1.4292 -1.7098  0.6206
   90MOL   H27741395   4.384   3.194   5.602 -0.3991 -0.1642  0.3461
   90MOL   O27841396   4.430   3.880   5.679 -0.2014 -0.6053  0.0539
   90MOL   C27941397   4.315   3.906   5.756  0.0329 -0.0354  0.0129
   90MOL   C28041398   4.268   4.045   5.720  1.0853 -0.0214 -0.2403
   90MOL   O28141399   4.259   4.131   5.838  0.1562  0.3514  0.1764
   90MOL   C28241400   4.206   4.247   5.832 -0.2582 -0.5657  0.0990
   90MOL   O28341401   4.146   4.288   5.734 -0.2502 -0.1559 -0.3290
   90MOL   C28441402   4.215   4.322   5.959 -0.2490 -0.5868 -1.2568
   90MOL   C28541403   4.195   4.461   5.964 -0.4264  0.3225 -0.3789
   90MOL   C28641404   4.197   4.539   6.082  0.8833  0.2856  0.0288
   90MOL   C28741405   4.232   4.472   6.201  0.2479  0.5064 -0.3679
   90MOL   C28841406   4.255   4.553   6.326 -0.1422 -0.0955  0.4619
   90MOL   O28941407   4.265   4.499   6.433 -0.2961 -0.0345  0.0892
   90MOL   O29041408   4.275   4.682   6.302 -0.5715  0.4390 -0.0192
   90MOL   C29141409   4.250   4.332   6.207  0.1987  1.0435  0.0798
   90MOL   C29241410   4.235   4.258   6.088 -0.0125 -0.1815  0.1063
   90MOL   H29341411   4.234   3.844   5.716  0.9041 -0.9676 -0.3308
   90MOL   H29441412   4.339   3.893   5.861  0.3490 -2.4568 -0.3279
   90MOL   H29541413   4.165   4.043   5.683  0.1924 -2.8485  2.1769
   90MOL   H29641414   4.326   4.092   5.641 -1.5206  2.2040 -0.9110
   90MOL   H29741415   4.165   4.508   5.871 -0.7047  2.2506  0.6419
   90MOL   H29841416   4.185   4.646   6.082  1.4890  0.3648 -1.8132
   90MOL   H29941417   4.275   4.282   6.300  0.6265 -1.3287 -1.2873
   90MOL   H30041418   4.251   4.152   6.077  1.3556  0.0717 -0.4202
   90MOL   O30141419   4.345   4.748   6.418  0.3793 -0.4842 -0.0230
   90MOL   C30241420   4.479   4.790   6.384  0.1014 -0.2309  0.6516
   90MOL   C30341421   4.587   4.681   6.416 -0.0944  0.5072  0.0203
   90MOL   O30441422   4.703   4.714   6.348  0.0864 -0.2048  0.2520
   90MOL   C30541423   4.817   4.651   6.367  0.7248  0.2806 -0.2642
   90MOL   O30641424   4.839   4.562   6.452 -0.4145  0.2199  0.2521
   90MOL   C30741425   4.917   4.707   6.277  0.3880 -0.4202  0.7134
   90MOL   C30841426   4.898   4.836   6.221  0.1003  0.0235  0.6932
   90MOL   C30941427   4.982   4.871   6.115  0.8279 -0.1694  0.9451
   90MOL   C31041428   5.096   4.789   6.082 -0.4762 -0.5298  0.2536
   90MOL   C31141429   5.186   4.822   5.972  0.6150 -0.0725 -0.0138
   90MOL   O31241430   5.253   4.743   5.910 -0.1603 -0.6309 -0.2269
   90MOL   O31341431   5.189   4.952   5.954  0.4346  0.1309  0.4835
   90MOL   C31441432   5.117   4.667   6.144  0.6629 -0.5101  0.2654
   90MOL   C31541433   5.024   4.624   6.246 -0.9956 -0.2649  0.3170
   90MOL   H31641434   4.495   4.802   6.277  0.1921  0.1516  0.7079
   90MOL   H31741435   4.502   4.890   6.419  1.1224 -0.3958  0.4629
   90MOL   H31841436   4.555   4.580   6.391 -0.3068  0.2989  1.1149
   90MOL   H31941437   4.605   4.680   6.523 -0.1272  0.4111  0.0239
   90MOL   H32041438   4.818   4.904   6.246  0.9740  0.5929  2.0136
   90MOL   H32141439   4.955   4.966   6.071 -1.2730 -1.1249  0.1049
   90MOL   H32241440   5.205   4.609   6.123  1.4791  0.6353  0.4639
   90MOL   H32341441   5.035   4.524   6.285  2.1714  0.2023  0.7392
   90MOL   O32441442   5.236   5.000   5.813  0.2499  0.4142  0.4184
   90MOL   C32541443   5.132   4.978   5.720  0.0646  0.3552 -0.9916
   90MOL   C32641444   5.050   5.106   5.701  0.2388  0.6225 -0.2135
   90MOL   O32741445   4.939   5.117   5.786  0.0173 -0.0941  0.0510
   90MOL   C32841446   4.853   5.214   5.773 -0.4584  0.0796 -0.2136
   90MOL   O32941447   4.857   5.297   5.682  0.2654  0.2308 -0.3154
   90MOL   C33041448   4.744   5.209   5.873 -0.4702 -0.7051 -0.1491
   90MOL   C33141449   4.725   5.098   5.960 -0.2009  0.1388  0.4503
   90MOL   C33241450   4.629   5.095   6.060  0.6760  0.2014 -0.4337
   90MOL   C33341451   4.549   5.209   6.080 -0.5270  0.5729  0.6978
   90MOL   C33441452   4.441   5.216   6.189 -0.1598  0.8255  0.1469
   90MOL   O33541453   4.407   5.115   6.250  0.0104  0.0147  0.0644
   90MOL   O33641454   4.400   5.344   6.220  0.5719  0.5368 -0.0643
   90MOL   C33741455   4.565   5.325   6.004 -0.9279  0.0255 -0.5388
   90MOL   C33841456   4.664   5.320   5.902 -0.1002  0.0834 -0.0583
   90MOL   H33941457   5.189   4.953   5.631  1.9635 -0.1243  0.3285
   90MOL   H34041458   5.068   4.897   5.755 -0.9623  1.2261 -0.8318
   90MOL   H34141459   5.029   5.119   5.595  2.1744 -1.1906 -0.8619
   90MOL   H34241460   5.126   5.182   5.723  2.5159 -1.4931 -0.4586
   90MOL   H34341461   4.789   5.011   5.955 -2.5540 -1.6199 -0.0953
   90MOL   H34441462   4.617   5.015   6.131 -0.4486  0.6269 -0.1184
   90MOL   H34541463   4.514   5.419   6.021 -0.5098 -0.1112  1.6281
   90MOL   H34641464   4.685   5.415   5.856 -1.4702  1.2197  1.6042
   90MOL   O34741465   4.313   5.360   6.346  0.4279  0.3988  0.0971
   90MOL   C34841466   4.173   5.342   6.323 -0.0711 -0.7915 -0.3918
   90MOL   C34941467   4.087   5.428   6.422 -0.0539 -0.2337  0.2805
   90MOL   O35041468   4.093   5.366   6.548  0.1058 -0.2277  0.1341
   90MOL   C35141469   4.052   5.439   6.660  0.1612  0.0821 -0.0963
   90MOL   O35241470   4.003   5.555   6.649  0.3754  0.4877 -0.5770
   90MOL   C35341471   4.076   5.359   6.783  0.0608 -0.2922 -0.3729
   90MOL   C35441472   4.042   5.415   6.906 -0.1342  0.0590 -0.3265
   90MOL   C35541473   4.073   5.357   7.027 -0.2350 -0.7122  0.0602
   90MOL   C35641474   4.148   5.234   7.038 -0.2759 -0.0694 -0.4018
   90MOL   C35741475   4.193   5.168   7.163  0.2683  0.2683 -0.1216
   90MOL   O35841476   4.264   5.063   7.163  0.4845  0.4974  0.3635
   90MOL   O35941477   4.161   5.245   7.278  0.3388  0.0015  0.0721
   90MOL   C36041478   4.181   5.174   6.914  0.5389  0.1519 -0.6162
   90MOL   C36141479   4.159   5.238   6.793 -0.4638 -0.7409  0.6399
   90MOL   H36241480   4.151   5.379   6.223 -0.2734  1.9913  0.6515
   90MOL   H36341481   4.153   5.235   6.314 -0.9469 -0.6365 -0.2967
   90MOL   H36441482   3.985   5.424   6.385  0.8320  3.0171 -2.8487
   90MOL   H36541483   4.121   5.531   6.425 -0.2689 -0.0876 -1.5762
   90MOL   H36641484   4.001   5.515   6.917  1.3302  0.6734 -0.4021
   90MOL   H36741485   4.044   5.412   7.115  2.2080 -0.5637  0.8049
   90MOL   H36841486   4.245   5.087   6.919  0.6807  0.3065  0.3746
   90MOL   H36941487   4.187   5.198   6.697 -2.5592  1.1234 -0.8062
   90MOL   O37041488   4.245   5.218   7.398  0.9954  0.4449 -0.0436
   90MOL   C37141489   4.158   5.171   7.500 -0.2089  0.4757  0.6643
   90MOL   C37241490   4.230   5.131   7.633  0.4556  0.1912  0.2180
   90MOL   O37341491   4.319   5.030   7.602 -0.7612 -0.2472  0.0044
   90MOL   C37441492   4.263   4.903   7.594  0.4984  0.2961  0.5275
   90MOL   O37541493   4.147   4.882   7.630 -0.1453  0.0848 -0.3582
   90MOL   C37641494   4.346   4.806   7.519 -0.1133 -0.8240 -0.1870
   90MOL   C37741495   4.281   4.727   7.422 -0.9153  0.6527 -0.3878
   90MOL   C37841496   4.361   4.645   7.339 -0.2905 -0.5294 -0.0147
   90MOL   C37941497   4.506   4.651   7.344  0.2642 -0.5117  0.6296
   90MOL   C38041498   4.585   4.574   7.243 -0.2326  0.4560  0.1789
   90MOL   O38141499   4.536   4.497   7.155  0.1685  0.3929  0.5631
   90MOL   O38241500   4.724   4.578   7.255 -0.4212  0.1000 -0.4999
   90MOL   C38341501   4.563   4.738   7.431 -0.2103  0.2197 -0.9247
   90MOL   C38441502   4.486   4.810   7.522  0.7008  1.1428 -0.2841
   90MOL   H38541503   4.105   5.260   7.535  1.0294  0.4027  2.8102
   90MOL   H38641504   4.092   5.093   7.461 -1.0050  1.5705 -0.2091
   90MOL   H38741505   4.165   5.094   7.712  3.3774 -1.0002  2.1348
   90MOL   H38841506   4.287   5.213   7.678 -0.7687  0.6936  0.8753
   90MOL   H38941507   4.176   4.747   7.411 -0.8318  1.8824  0.8530
   90MOL   H39041508   4.310   4.584   7.266 -1.3646 -0.6488  0.8103
   90MOL   H39141509   4.670   4.751   7.428 -0.0240 -1.0828 -0.3487
   90MOL   H39241510   4.537   4.884   7.582 -0.5762  1.3786  0.5393
   90MOL   O39341511   4.800   4.487   7.161 -0.0069 -0.1863  0.3354
   90MOL   C39441512   4.795   4.360   7.218  0.0325  0.7542 -0.3966
   90MOL   C39541513   4.907   4.270   7.155  0.8148 -0.1791 -0.1554
   90MOL   O39641514   5.026   4.301   7.227 -0.1366 -0.1644  0.2728
   90MOL   C39741515   5.134   4.238   7.179 -0.0424 -0.0415  0.0283
   90MOL   O39841516   5.128   4.167   7.079 -0.1704  0.1405  0.6080
   90MOL   C39941517   5.256   4.267   7.262  0.1506 -1.0915 -0.9054
   90MOL   C40041518   5.244   4.350   7.382 -0.2908 -0.0438  0.4765
   90MOL   C40141519   5.366   4.383   7.456  0.7918 -0.7855  0.2899
   90MOL   C40241520   5.491   4.325   7.423  0.1820  0.8274  0.3935
   90MOL   C40341521   5.618   4.352   7.502 -0.0311  0.4386 -0.4274
   90MOL   O40441522   5.725   4.294   7.482 -0.0913  0.1817  0.4152
   90MOL   O40541523   5.594   4.432   7.607 -0.3019  0.1479 -0.1921
   90MOL   C40641524   5.496   4.237   7.308 -0.4726  0.5822 -0.5395
   90MOL   C40741525   5.385   4.219   7.226 -0.6445  0.6170 -0.7401
   90MOL   H40841526   4.804   4.366   7.326 -1.3023  2.6446 -0.3646
   90MOL   H40941527   4.699   4.310   7.212  0.2565  0.0337  1.5837
   90MOL   H41041528   4.907   4.290   7.048 -0.3473 -0.2918 -0.1825
   90MOL   H41141529   4.873   4.170   7.182 -1.9733  0.7449 -0.0108
   90MOL   H41241530   5.145   4.387   7.407  0.3544  2.6420 -0.7800
   90MOL   H41341531   5.362   4.456   7.534 -0.5708 -0.4968 -0.0349
   90MOL   H41441532   5.590   4.190   7.282 -2.2638 -4.1409  1.1609
   90MOL   H41541533   5.399   4.143   7.150 -0.8259  0.2447 -0.4012
   90MOL   O41641534   5.708   4.445   7.709 -0.4689  0.4711  0.1845
   90MOL   C41741535   5.770   4.559   7.671  0.7260 -0.3842  0.5758
   90MOL   C41841536   5.879   4.605   7.776  0.2599  0.1455 -0.2202
   90MOL   O41941537   5.999   4.547   7.729  0.8088 -0.1267 -0.0890
   90MOL   C42041538   6.111   4.586   7.785 -0.4888 -0.6067  0.3133
   90MOL   O42141539   6.109   4.676   7.865 -0.1402  0.2448 -0.2670
   90MOL   C42241540   6.236   4.521   7.727 -0.3145  0.1315 -0.5128
   90MOL   C42341541   6.210   4.440   7.614  0.1450 -0.6838 -0.2815
   90MOL   C42441542   6.326   4.395   7.539 -0.1676  0.0218  0.3183
   90MOL   C42541543   6.458   4.409   7.581  0.4882 -0.2344  0.3126
   90MOL   C42641544   6.576   4.357   7.505  0.3197  0.2733  0.0852
   90MOL   O42741545   6.690   4.370   7.539  0.2271 -0.4910 -0.2721
   90MOL   O42841546   6.534   4.278   7.400 -0.0047 -0.1665 -0.7193
   90MOL   C42941547   6.475   4.476   7.708  0.6389 -0.0387 -0.0399
   90MOL   C43041548   6.367   4.539   7.775 -0.1258  0.4583  0.1927
   90MOL   H43141549   5.807   4.557   7.568  3.0272  0.8075  1.3493
   90MOL   H43241550   5.698   4.641   7.670 -1.3718 -2.1210 -2.0292
   90MOL   H43341551   5.865   4.578   7.881  1.6584 -0.1595 -0.1077
   90MOL   H43441552   5.881   4.713   7.760  0.9384  0.1144 -0.3629
   90MOL   H43541553   6.110   4.447   7.575 -0.3892  0.0609  1.1939
   90MOL   H43641554   6.300   4.338   7.451  1.4576  0.3020 -0.3463
   90MOL   H43741555   6.575   4.486   7.747  0.1452 -1.9691  1.8219
   90MOL   H43841556   6.379   4.600   7.863 -0.6293 -0.2603  0.7637
   90MOL   O43941557   6.650   4.212   7.316 -1.0975  0.0304 -0.5547
   90MOL   C44041558   6.643   4.249   7.187 -0.2675  0.9276  0.2145
   90MOL   C44141559   6.667   4.402   7.164 -0.3381  0.0813  0.0051
   90MOL   O44241560   6.655   4.432   7.033  0.1623  0.5124  0.1295
   90MOL   C44341561   6.544   4.491   6.982  0.4128 -0.4538 -0.5712
   90MOL   O44441562   6.452   4.524   7.062 -0.0346  0.4012 -0.5593
   90MOL   C44541563   6.542   4.520   6.839  0.6379 -0.1560 -0.2425
   90MOL   C44641564   6.438   4.598   6.783 -0.1402 -0.6413  0.1234
   90MOL   C44741565   6.427   4.618   6.645 -0.0036 -0.2542 -0.9739
   90MOL   C44841566   6.530   4.565   6.559 -0.0677  0.4855  0.2790
   90MOL   C44941567   6.520   4.589   6.411  0.0215 -0.3320 -0.3495
   90MOL   O45041568   6.450   4.682   6.372  0.0572  0.0410 -1.0782
   90MOL   O45141569   6.600   4.514   6.336 -0.1451 -0.0406  0.0385
   90MOL   C45241570   6.633   4.486   6.613  0.5685  0.4097 -0.2934
   90MOL   C45341571   6.640   4.471   6.754  0.2021  0.6445  0.1100
   90MOL   H45441572   6.722   4.191   7.139 -1.2027  0.5208 -0.8625
   90MOL   H45541573   6.550   4.212   7.144 -0.6837  0.7033  1.2748
   90MOL   H45641574   6.770   4.427   7.187  0.9962 -2.2215 -3.1832
   90MOL   H45741575   6.602   4.467   7.222 -0.4652  0.9654 -1.1163
   90MOL   H45841576   6.364   4.635   6.852 -0.1437 -0.4754  0.0324
   90MOL   H45941577   6.350   4.680   6.601  0.1808 -0.1369 -1.1345
   90MOL   H46041578   6.706   4.431   6.555  0.6399 -0.6177  0.7545
   90MOL   H46141579   6.722   4.409   6.785  1.0313  0.2784 -2.6964
   90MOL   H46241580   6.621   4.542   6.248  0.2209 -1.0890 -0.2128
   91MOL     O141581   0.110   0.811   5.313 -0.7496  0.5657  0.4527
   91MOL     C241582   0.028   0.785   5.428 -0.2888  0.0225 -0.2304
   91MOL     C341583   0.037   0.880   5.543  0.1217 -0.3991  0.0504
   91MOL     O441584   8.221   0.830   5.644  0.2300  0.7254 -0.0581
   91MOL     C541585   8.206   0.907   5.750  0.3715  0.6363 -0.7939
   91MOL     O641586   8.268   1.008   5.768 -0.2879 -0.6211 -0.8801
   91MOL     C741587   8.094   0.858   5.839 -0.1754 -0.9628 -0.1877
   91MOL     C841588   8.013   0.754   5.791  1.0675 -0.2803 -0.2180
   91MOL     C941589   7.906   0.711   5.874  0.2964 -0.2647 -0.6153
   91MOL    C1041590   7.908   0.746   6.012  0.3283  0.5809  0.0745
   91MOL    C1141591   7.807   0.679   6.110 -1.0386  0.6259 -0.2230
   91MOL    O1241592   7.727   0.592   6.068 -0.0318 -0.1909  0.0548
   91MOL    O1341593   7.818   0.711   6.234  0.3633 -0.1545 -0.3505
   91MOL    C1441594   8.000   0.842   6.057 -0.4155 -0.1849  0.4665
   91MOL    C1541595   8.083   0.906   5.966  0.8184 -0.0100  0.1860
   91MOL    H1641596   8.197   0.788   5.407  0.0844  2.5172 -1.9167
   91MOL    H1741597   0.048   0.684   5.464  0.2075 -0.7268 -2.5498
   91MOL    H1841598   0.015   0.981   5.509  0.7200 -0.9258 -1.9717
   91MOL    H1941599   0.137   0.885   5.584 -0.3113 -2.9720  1.5024
   91MOL    H2041600   8.027   0.718   5.690 -0.3184 -0.0549 -0.5012
   91MOL    H2141601   7.833   0.644   5.832 -0.2411 -1.0926  1.5400
   91MOL    H2241602   7.997   0.873   6.161 -2.1617  3.5399 -0.6199
   91MOL    H2341603   8.154   0.982   5.997  1.6698 -1.4543  1.8611
   91MOL    H2441604   0.072   0.891   5.281  1.3348  1.7596  0.8857
   91MOL    O2541605   7.728   0.626   6.327  0.0889  0.1267  0.4955
   91MOL    C2641606   7.595   0.672   6.345 -0.6064  0.6090 -0.4099
   91MOL    C2741607   7.600   0.797   6.422  0.5156 -0.0476  0.0876
   91MOL    O2841608   7.625   0.890   6.321  0.2806  0.0691 -0.8421
   91MOL    C2941609   7.716   0.989   6.347 -0.4440  0.3200  0.6974
   91MOL    O3041610   7.774   1.004   6.453 -0.3810 -0.8775 -0.1283
   91MOL    C3141611   7.753   1.068   6.225 -0.1162  0.4634  0.0764
   91MOL    C3241612   7.696   1.041   6.099  0.1378 -0.0765 -0.8004
   91MOL    C3341613   7.734   1.108   5.983  0.2071 -0.0863  0.2140
   91MOL    C3441614   7.844   1.192   5.985  0.5859 -0.2308 -0.4809
   91MOL    C3541615   7.879   1.268   5.860 -0.1010  0.0133 -0.6461
   91MOL    O3641616   7.814   1.263   5.756 -0.6130  0.2249 -0.5478
   91MOL    O3741617   7.997   1.331   5.871 -0.6675  0.0537 -0.1826
   91MOL    C3841618   7.902   1.224   6.111 -0.2561  0.7813 -0.1176
   91MOL    C3941619   7.864   1.154   6.224 -0.2767 -0.3835  0.0987
   91MOL    H4041620   7.549   0.698   6.250  0.0856 -0.7099 -1.1146
   91MOL    H4141621   7.530   0.594   6.384  0.4959 -0.0514  0.1375
   91MOL    H4241622   7.674   0.795   6.502  0.9573  0.0635 -0.3160
   91MOL    H4341623   7.501   0.815   6.466 -0.0161  0.4254 -1.2947
   91MOL    H4441624   7.619   0.965   6.103  0.3176 -0.1575  2.2566
   91MOL    H4541625   7.708   1.066   5.887 -0.2340  2.5251 -0.8538
   91MOL    H4641626   7.984   1.294   6.121 -1.1059  1.9028 -0.9711
   91MOL    H4741627   7.924   1.169   6.313  0.8147 -0.1870 -0.6559
   91MOL    O4841628   8.019   1.428   5.759  0.3186  0.4212 -0.5196
   91MOL    C4941629   8.091   1.360   5.648 -0.0091 -0.3029 -0.0251
   91MOL    C5041630   8.121   1.453   5.530  0.2342  0.1411 -0.7932
   91MOL    O5141631   8.010   1.511   5.475  0.0286 -0.2803  0.0099
   91MOL    C5241632   7.928   1.442   5.399 -0.1433 -0.1191 -0.4293
   91MOL    O5341633   7.956   1.347   5.334  0.2296  0.1643  0.2256
   91MOL    C5441634   7.793   1.508   5.399  0.2677 -0.7223 -0.5917
   91MOL    C5541635   7.684   1.436   5.339  0.0168 -0.5073  0.6945
   91MOL    C5641636   7.562   1.495   5.328 -0.3937 -0.6870 -0.2240
   91MOL    C5741637   7.541   1.625   5.375 -0.0315 -0.8294 -0.5255
   91MOL    C5841638   7.408   1.689   5.353 -0.3369 -0.4771 -0.2532
   91MOL    O5941639   7.312   1.632   5.305  0.1060  0.0496  0.3520
   91MOL    O6041640   7.398   1.826   5.397  0.2053  0.9262  0.4358
   91MOL    C6141641   7.643   1.692   5.448  0.6751  0.1630  0.0893
   91MOL    C6241642   7.765   1.630   5.466 -0.2314  0.1186  0.8317
   91MOL    H6341643   8.179   1.311   5.689  0.5357 -0.7320 -1.6672
   91MOL    H6441644   8.035   1.270   5.622 -1.8343  1.3500 -2.0402
   91MOL    H6541645   8.181   1.395   5.460  1.9372  0.2712  0.5284
   91MOL    H6641646   8.175   1.538   5.573 -0.4452  0.4233 -0.4769
   91MOL    H6741647   7.700   1.338   5.295 -1.9807 -0.8378  0.6721
   91MOL    H6841648   7.487   1.439   5.273  1.1075 -2.6386 -0.3555
   91MOL    H6941649   7.626   1.787   5.496 -0.2063  0.1291 -0.1364
   91MOL    H7041650   7.842   1.674   5.527  0.1254 -0.0824  0.5292
   91MOL    O7141651   7.266   1.890   5.368 -0.6057 -0.1675 -0.3739
   91MOL    C7241652   7.264   1.972   5.254  0.3255 -0.3349  0.4885
   91MOL    C7341653   7.117   1.998   5.215  0.0926  0.5511 -0.5629
   91MOL    O7441654   7.118   2.116   5.137 -0.3458  0.1753 -0.6642
   91MOL    C7541655   7.015   2.190   5.126  0.2297  0.2394 -0.0269
   91MOL    O7641656   6.901   2.160   5.166 -0.3636 -0.3941  0.2186
   91MOL    C7741657   7.045   2.318   5.068  0.0526 -0.1211  0.0269
   91MOL    C7841658   6.938   2.399   5.022 -0.0379 -0.2232 -0.0906
   91MOL    C7941659   6.971   2.533   4.983  0.7067  0.1361  0.4953
   91MOL    C8041660   7.101   2.585   4.984 -0.2235 -0.3163  0.3498
   91MOL    C8141661   7.131   2.730   4.948  0.2945 -0.0820  0.2094
   91MOL    O8241662   7.247   2.767   4.927 -0.8126 -0.5622  0.1324
   91MOL    O8341663   7.022   2.801   4.936  0.2052  0.3503  0.1832
   91MOL    C8441664   7.206   2.501   5.022 -0.0741 -0.3767 -0.0103
   91MOL    C8541665   7.174   2.372   5.060 -0.1257  0.5407 -1.1485
   91MOL    H8641666   7.314   2.065   5.281 -1.6283  0.5830  1.0440
   91MOL    H8741667   7.306   1.924   5.166  2.3392  3.2228 -0.5886
   91MOL    H8841668   7.048   2.019   5.297  0.9403  2.7871 -0.3900
   91MOL    H8941669   7.069   1.913   5.167 -0.9599  0.3425  0.8119
   91MOL    H9041670   6.834   2.368   5.019  0.3357 -1.4159 -4.1934
   91MOL    H9141671   6.886   2.589   4.946 -0.1822 -0.9557  0.8519
   91MOL    H9241672   7.309   2.534   5.017 -0.0599 -0.1600  1.4777
   91MOL    H9341673   7.260   2.316   5.095 -1.2024 -0.7279 -0.4743
   91MOL    O9441674   7.033   2.949   4.903  0.1519  0.2812 -0.1762
   91MOL    C9541675   7.056   2.971   4.765 -0.1214  0.2481 -0.1740
   91MOL    C9641676   7.132   3.102   4.765 -0.0014 -0.1265  0.2958
   91MOL    O9741677   7.045   3.213   4.796 -0.0974 -0.0247  0.9202
   91MOL    C9841678   6.967   3.263   4.700 -0.9740 -0.4157 -0.4398
   91MOL    O9941679   6.979   3.218   4.586 -0.3039  0.7434  0.0368
   91MOL   C10041680   6.868   3.365   4.745 -0.8843 -0.0942  0.1392
   91MOL   C10141681   6.857   3.398   4.885  0.4540 -0.7765  0.3017
   91MOL   C10241682   6.754   3.492   4.915 -0.1740  0.3398  0.1663
   91MOL   C10341683   6.672   3.556   4.818  0.0233 -0.2493  0.9880
   91MOL   C10441684   6.566   3.649   4.862 -0.8465 -0.3962  0.0120
   91MOL   O10541685   6.541   3.667   4.976  0.5333  0.3344  0.0656
   91MOL   O10641686   6.486   3.701   4.767  0.2317  0.8189  0.6572
   91MOL   C10741687   6.700   3.532   4.683 -0.0064 -1.0022 -0.5508
   91MOL   C10841688   6.791   3.431   4.645 -0.4600  0.7044 -0.1172
   91MOL   H10941689   7.103   2.890   4.709  0.0511  0.1787  0.0712
   91MOL   H11041690   6.958   2.974   4.718  0.6713 -1.8107 -1.9966
   91MOL   H11141691   7.183   3.119   4.671  0.1799 -0.8320  0.2673
   91MOL   H11241692   7.220   3.082   4.826  0.4857 -0.2684 -0.4544
   91MOL   H11341693   6.920   3.357   4.963  2.4151  1.8443  0.1350
   91MOL   H11441694   6.729   3.513   5.017  0.3081  0.7901  0.1979
   91MOL   H11541695   6.644   3.589   4.611 -0.9974  0.6945  1.4826
   91MOL   H11641696   6.794   3.395   4.543  1.0526 -0.2016  0.2241
   91MOL   O11741697   6.343   3.731   4.799 -0.1328  0.3475 -0.1643
   91MOL   C11841698   6.326   3.871   4.829  0.3271 -0.3568  0.2778
   91MOL   C11941699   6.341   3.968   4.706  0.3143  0.3678 -0.5056
   91MOL   O12041700   6.476   3.991   4.675 -0.0710  0.2808 -0.8118
   91MOL   C12141701   6.519   3.954   4.553 -0.3980  0.0920  0.3697
   91MOL   O12241702   6.446   3.905   4.463 -0.5124  0.4201 -0.1409
   91MOL   C12341703   6.666   3.990   4.537  0.8767 -0.2844  0.6538
   91MOL   C12441704   6.731   4.082   4.624  0.5426  0.2413  0.2465
   91MOL   C12541705   6.864   4.116   4.604  0.1075  0.8079  0.5380
   91MOL   C12641706   6.945   4.055   4.506  0.3497 -0.1398 -0.2689
   91MOL   C12741707   7.091   4.089   4.500 -0.1690  0.1615  0.0281
   91MOL   O12841708   7.155   4.142   4.589 -0.0535  0.0971  0.1391
   91MOL   O12941709   7.151   4.053   4.376  0.3301 -0.0311 -0.3331
   91MOL   C13041710   6.882   3.961   4.422  0.3986 -0.1400 -0.0583
   91MOL   C13141711   6.746   3.931   4.435  0.7721 -0.5644  0.3962
   91MOL   H13241712   6.226   3.888   4.869  1.0312  1.2816  1.4098
   91MOL   H13341713   6.398   3.899   4.906  0.0920  0.8805  0.0499
   91MOL   H13441714   6.304   4.070   4.714  1.4802  0.6141  2.4699
   91MOL   H13541715   6.286   3.932   4.619 -2.7311  0.2684  1.4029
   91MOL   H13641716   6.675   4.135   4.700  0.1226 -0.4116  0.3893
   91MOL   H13741717   6.916   4.189   4.663  1.1359  0.5432 -0.0367
   91MOL   H13841718   6.935   3.904   4.347  1.8048 -0.6194  1.2684
   91MOL   H13941719   6.706   3.855   4.370  0.5531  0.2944 -0.4700
   91MOL   O14041720   7.297   4.084   4.372 -0.2695  0.4552 -0.0387
   91MOL   C14141721   7.368   3.965   4.411 -0.4521 -0.3847  0.3495
   91MOL   C14241722   7.510   4.007   4.387  1.2108 -0.0446  0.3568
   91MOL   O14341723   7.528   4.122   4.474 -0.0592  0.5903 -0.0099
   91MOL   C14441724   7.587   4.235   4.438 -0.1589  0.0739 -0.2116
   91MOL   O14541725   7.679   4.237   4.359  0.1231  0.4380  0.5514
   91MOL   C14641726   7.550   4.352   4.520 -0.2918  0.2110  0.1496
   91MOL   C14741727   7.443   4.335   4.610  0.4988 -0.5180 -0.6140
   91MOL   C14841728   7.392   4.438   4.687 -0.1834  0.1387  0.0379
   91MOL   C14941729   7.441   4.570   4.673 -0.6115 -0.2957  0.0148
   91MOL   C15041730   7.369   4.686   4.727  0.6176 -0.2920  0.4417
   91MOL   O15141731   7.374   4.796   4.677 -0.0877 -0.1840 -0.0503
   91MOL   O15241732   7.294   4.652   4.828  0.0330  0.3001  0.1149
   91MOL   C15341733   7.552   4.590   4.579 -0.2706 -0.2749  0.1694
   91MOL   C15441734   7.603   4.479   4.510  0.1750  0.1736  0.7881
   91MOL   H15541735   7.342   3.939   4.514 -1.5497  1.8593  0.6864
   91MOL   H15641736   7.336   3.890   4.339 -2.0387 -1.7367  2.3844
   91MOL   H15741737   7.519   4.046   4.286  2.2684  1.3622  0.9734
   91MOL   H15841738   7.577   3.923   4.406 -0.4769 -1.0115  2.2361
   91MOL   H15941739   7.403   4.235   4.621 -1.6214  0.5089  1.5230
   91MOL   H16041740   7.312   4.410   4.753  0.6825  0.1828  1.1065
   91MOL   H16141741   7.596   4.685   4.555  1.7403 -0.9240  1.1937
   91MOL   H16241742   7.679   4.495   4.435 -1.0173 -2.1213 -0.9830
   91MOL   O16341743   7.222   4.765   4.897  0.3834 -0.5615 -0.0705
   91MOL   C16441744   7.081   4.761   4.874 -0.4826  0.8748 -0.5517
   91MOL   C16541745   7.007   4.885   4.932  0.3708 -0.3603  0.4614
   91MOL   O16641746   6.885   4.920   4.874  0.0775 -0.3659  0.2042
   91MOL   C16741747   6.889   4.981   4.759  0.3727 -0.6023  0.7490
   91MOL   O16841748   6.996   5.001   4.698 -0.0326 -0.4988 -0.3496
   91MOL   C16941749   6.751   5.014   4.700  0.2744 -0.3885  0.2693
   91MOL   C17041750   6.752   5.067   4.569  1.1681  0.4168 -0.1006
   91MOL   C17141751   6.630   5.085   4.503  0.7493 -0.1789 -0.2715
   91MOL   C17241752   6.504   5.058   4.567 -0.0168 -0.9047  1.2944
   91MOL   C17341753   6.373   5.077   4.496  0.0113  0.2116 -0.6708
   91MOL   O17441754   6.275   5.007   4.520  0.3450 -0.1581 -0.6933
   91MOL   O17541755   6.371   5.158   4.390 -0.3645 -0.1250 -0.2272
   91MOL   C17641756   6.503   5.020   4.697 -0.4577  0.8783  0.0007
   91MOL   C17741757   6.627   4.997   4.770  0.3706  0.1851  0.1429
   91MOL   H17841758   7.049   4.760   4.770  2.1911 -1.0780 -1.4025
   91MOL   H17941759   7.045   4.673   4.928  0.5359 -0.5353 -2.1314
   91MOL   H18041760   7.069   4.974   4.931 -0.3568  0.1535  1.4226
   91MOL   H18141761   6.992   4.873   5.039  0.3733 -0.2126  0.4781
   91MOL   H18241762   6.846   5.081   4.517  0.6207  0.7636 -1.0128
   91MOL   H18341763   6.628   5.108   4.397 -0.7013  1.2663  0.0374
   91MOL   H18441764   6.412   5.000   4.752 -0.9324 -0.4798 -1.2450
   91MOL   H18541765   6.632   4.944   4.864 -2.5931  0.8420  0.7227
   91MOL   O18641766   6.245   5.141   4.304 -0.2142  0.2098  0.1567
   91MOL   C18741767   6.156   5.245   4.319  0.4531 -0.5740 -0.5738
   91MOL   C18841768   6.208   5.376   4.254  1.1365  0.1555  0.6176
   91MOL   O18941769   6.101   5.474   4.237  0.6278  0.2100 -0.4003
   91MOL   C19041770   6.131   5.608   4.254 -0.3794 -0.1397 -0.8958
   91MOL   O19141771   6.248   5.644   4.287 -0.7251 -0.0753 -0.1068
   91MOL   C19241772   6.010   5.700   4.227 -0.1142  0.1965 -0.3309
   91MOL   C19341773   5.888   5.650   4.174  0.1838  0.2782 -0.3925
   91MOL   C19441774   5.779   5.736   4.183 -0.9002 -0.5282  0.0791
   91MOL   C19541775   5.792   5.870   4.216  0.1142  0.4621 -0.0495
   91MOL   C19641776   5.677   5.960   4.213 -0.2497 -0.8168 -0.2249
   91MOL   O19741777   5.676   6.076   4.235 -0.2559 -0.0416 -0.0205
   91MOL   O19841778   5.560   5.895   4.176  0.5723  0.0608 -0.7126
   91MOL   C19941779   5.918   5.918   4.250  1.1403  0.0143 -0.5238
   91MOL   C20041780   6.026   5.838   4.252  0.8648  0.8403 -0.6367
   91MOL   H20141781   6.073   5.210   4.257  2.0238 -0.2072 -2.9579
   91MOL   H20241782   6.127   5.257   4.423 -0.2628  0.8856 -0.9275
   91MOL   H20341783   6.242   5.354   4.153  1.8881  0.3627  0.8203
   91MOL   H20441784   6.285   5.416   4.321  2.1477 -1.5646  0.5103
   91MOL   H20541785   5.882   5.547   4.141 -0.0106  0.6816 -1.6020
   91MOL   H20641786   5.682   5.695   4.159 -2.2351  1.2040  2.3487
   91MOL   H20741787   5.928   6.021   4.279  3.1020 -0.4137  0.3593
   91MOL   H20841788   6.121   5.879   4.284  1.5532  0.8264 -2.5854
   91MOL   O20941789   5.441   5.994   4.169  0.0846  0.0794 -0.0755
   91MOL   C21041790   5.395   6.009   4.034 -0.6922  0.2265  0.0915
   91MOL   C21141791   5.272   6.093   4.044  0.7217 -0.3571  0.0556
   91MOL   O21241792   5.221   6.113   3.913  0.6263  0.1656  0.3889
   91MOL   C21341793   5.100   6.083   3.874 -0.4003 -1.4759 -0.4325
   91MOL   O21441794   5.016   6.051   3.958  0.5204  0.5597  0.4442
   91MOL   C21541795   5.073   6.123   3.731 -0.3352  0.3159  0.8213
   91MOL   C21641796   4.948   6.111   3.674  0.4644  0.0234  0.5987
   91MOL   C21741797   4.930   6.131   3.533  0.0374  0.0844 -0.9742
   91MOL   C21841798   5.042   6.152   3.453 -0.6659  0.7651  0.8210
   91MOL   C21941799   5.027   6.168   3.304 -0.0388 -0.4180  0.0193
   91MOL   O22041800   4.932   6.145   3.232  0.1789 -0.1013 -0.7591
   91MOL   O22141801   5.139   6.226   3.251  0.2036 -0.4017 -0.0197
   91MOL   C22241802   5.166   6.170   3.514  0.2382 -0.0817 -0.0620
   91MOL   C22341803   5.186   6.158   3.653 -0.6756  0.0200 -0.7919
   91MOL   H22441804   5.473   6.063   3.979  2.1100 -4.0362 -0.4133
   91MOL   H22541805   5.378   5.916   3.979  0.7784 -0.9470  1.5710
   91MOL   H22641806   5.306   6.178   4.102 -0.4783  0.9558 -1.1401
   91MOL   H22741807   5.208   6.026   4.102 -0.4031 -0.4444 -1.2630
   91MOL   H22841808   4.871   6.075   3.740 -0.7036 -2.0904 -1.8339
   91MOL   H22941809   4.835   6.108   3.486 -0.5491  1.4375 -0.4632
   91MOL   H23041810   5.249   6.206   3.454 -0.5333  0.5009 -0.8028
   91MOL   H23141811   5.287   6.172   3.688 -0.3908 -0.3563 -1.4430
   91MOL   O23241812   5.159   6.197   3.107 -0.4671 -0.4262 -0.3266
   91MOL   C23341813   5.119   6.303   3.029 -0.5726  0.0924  0.0535
   91MOL   C23441814   5.199   6.435   3.057  0.3622  0.0500 -0.3988
   91MOL   O23541815   5.341   6.408   3.053  0.0810 -0.0064 -0.0940
   91MOL   C23641816   5.419   6.426   2.947  0.6952 -0.5087  0.6837
   91MOL   O23741817   5.374   6.459   2.841  0.6775 -0.3597 -0.7627
   91MOL   C23841818   5.563   6.403   2.985  0.0360  0.0491  0.8857
   91MOL   C23941819   5.650   6.411   2.877 -0.3097  0.4819  0.3739
   91MOL   C24041820   5.787   6.389   2.897  0.7758  0.9612  0.9483
   91MOL   C24141821   5.836   6.353   3.022 -0.1993  0.1415 -0.2516
   91MOL   C24241822   5.986   6.324   3.042  0.4869 -0.5745 -0.5051
   91MOL   O24341823   6.039   6.318   3.159 -0.4025 -0.1293  0.2502
   91MOL   O24441824   6.053   6.295   2.928 -0.0386  0.4710 -0.0070
   91MOL   C24541825   5.745   6.343   3.130  0.8370  0.4616  0.1974
   91MOL   C24641826   5.612   6.367   3.113  0.1548 -0.9853 -0.4442
   91MOL   H24741827   5.129   6.281   2.922  4.3973  0.1199  0.3543
   91MOL   H24841828   5.016   6.329   3.049 -1.0819 -0.3566 -1.9079
   91MOL   H24941829   5.165   6.466   3.156  1.4094  1.0407 -0.3426
   91MOL   H25041830   5.184   6.507   2.976  1.0108 -0.3677 -0.8877
   91MOL   H25141831   5.617   6.450   2.781  0.2185  1.9070  0.7548
   91MOL   H25241832   5.857   6.397   2.816  0.4295 -1.2751  0.3883
   91MOL   H25341833   5.782   6.318   3.228  0.7064  1.6445  0.5457
   91MOL   H25441834   5.541   6.363   3.194  1.7628 -0.8966  0.9902
   91MOL   O25541835   6.196   6.258   2.946 -0.0848  0.1672 -0.5946
   91MOL   C25641836   6.265   6.351   2.866  0.2089  0.5549  0.0613
   91MOL   C25741837   6.417   6.324   2.879 -1.0694 -0.8111  0.4222
   91MOL   O25841838   6.465   6.238   2.776  0.3982 -0.2721 -0.1017
   91MOL   C25941839   6.480   6.281   2.651 -0.2171  0.0158 -0.1619
   91MOL   O26041840   6.471   6.401   2.615  0.0168  0.2699  0.3820
   91MOL   C26141841   6.506   6.178   2.550 -0.1628 -0.1522 -0.1075
   91MOL   C26241842   6.509   6.039   2.588  0.4080  0.1103  0.5173
   91MOL   C26341843   6.525   5.948   2.485  0.7280  0.4754  0.2804
   91MOL   C26441844   6.533   5.977   2.348 -0.5867  0.0109  0.6334
   91MOL   C26541845   6.551   5.871   2.247  0.1164  0.6353  0.0879
   91MOL   O26641846   6.545   5.900   2.128 -0.6341 -0.8561  0.2936
   91MOL   O26741847   6.568   5.755   2.300 -0.1554  0.1788  0.1527
   91MOL   C26841848   6.528   6.112   2.310 -0.4462  0.1028 -0.3170
   91MOL   C26941849   6.511   6.213   2.410 -0.8452  0.3502 -0.1345
   91MOL   H27041850   6.230   6.359   2.763 -0.3865 -2.6022 -0.0338
   91MOL   H27141851   6.240   6.449   2.907 -0.9746  0.9949 -1.6703
   91MOL   H27241852   6.445   6.297   2.981 -0.1593 -2.1901 -0.1911
   91MOL   H27341853   6.474   6.416   2.874 -0.5718 -1.0120  2.1103
   91MOL   H27441854   6.511   5.993   2.686  0.6242 -2.0533 -0.4678
   91MOL   H27541855   6.530   5.844   2.514 -2.0461 -0.3834 -2.1290
   91MOL   H27641856   6.541   6.134   2.205  0.2129  2.1053  0.1571
   91MOL   H27741857   6.520   6.317   2.383 -1.1347  0.3224 -0.3357
   91MOL   O27841858   6.627   5.661   2.208 -0.1451  0.4456  0.1786
   91MOL   C27941859   6.765   5.644   2.244  0.0623  0.0219 -0.2262
   91MOL   C28041860   6.825   5.506   2.193 -0.0385 -0.0273 -0.3915
   91MOL   O28141861   6.814   5.500   2.051 -0.0903 -0.0302  0.1458
   91MOL   C28241862   6.731   5.409   1.994 -0.4155 -0.5527  0.5340
   91MOL   O28341863   6.673   5.317   2.053  0.3817 -0.4431  0.0596
   91MOL   C28441864   6.707   5.443   1.849 -0.0171 -0.4919  1.1459
   91MOL   C28541865   6.654   5.346   1.759  0.6331 -0.4689 -0.5936
   91MOL   C28641866   6.624   5.384   1.622 -0.4374  0.1825 -0.3173
   91MOL   C28741867   6.652   5.512   1.576  0.7470 -0.4695 -0.1379
   91MOL   C28841868   6.635   5.551   1.432 -0.1106 -0.2358 -0.1925
   91MOL   O28941869   6.723   5.617   1.381  0.4822  0.2208 -0.3408
   91MOL   O29041870   6.520   5.516   1.372  0.4657 -0.0927 -0.3327
   91MOL   C29141871   6.698   5.613   1.671  0.3101 -0.0877 -0.1807
   91MOL   C29241872   6.728   5.575   1.800  0.2246 -0.3277 -0.3558
   91MOL   H29341873   6.829   5.727   2.212  0.0791  0.1669  0.1915
   91MOL   H29441874   6.779   5.642   2.352 -2.3633 -0.2605  0.0981
   91MOL   H29541875   6.789   5.412   2.237  0.1907  0.3048  0.5189
   91MOL   H29641876   6.932   5.502   2.214  0.1857  0.0828 -1.4756
   91MOL   H29741877   6.630   5.249   1.798  0.8259  0.8626  3.0216
   91MOL   H29841878   6.582   5.307   1.559 -0.6271 -2.4959  2.8937
   91MOL   H29941879   6.726   5.712   1.638 -0.4056  0.1894  0.0368
   91MOL   H30041880   6.766   5.656   1.861 -1.3373 -1.3479  2.0043
   91MOL   O30141881   6.510   5.551   1.221  0.4063  0.3538 -0.1808
   91MOL   C30241882   6.450   5.678   1.213 -0.7439  0.0052 -0.9512
   91MOL   C30341883   6.294   5.672   1.232 -0.2453 -0.6309 -0.3933
   91MOL   O30441884   6.274   5.658   1.375  0.7163 -0.2606 -0.0774
   91MOL   C30541885   6.166   5.702   1.442  0.3606 -0.3306  0.0781
   91MOL   O30641886   6.074   5.761   1.385  0.1825  0.0328  0.0700
   91MOL   C30741887   6.180   5.677   1.590  0.5498 -0.6534  0.4222
   91MOL   C30841888   6.101   5.745   1.683 -0.1369  0.7609  0.8891
   91MOL   C30941889   6.110   5.724   1.821 -0.1610  0.6748 -0.1592
   91MOL   C31041890   6.193   5.619   1.873  1.2421 -0.0384 -0.4936
   91MOL   C31141891   6.203   5.597   2.018  0.8748 -0.5539  0.0367
   91MOL   O31241892   6.209   5.687   2.098  0.3027  0.1913 -0.0344
   91MOL   O31341893   6.212   5.465   2.045 -0.1087  0.0555 -0.4154
   91MOL   C31441894   6.266   5.541   1.780  0.1018  0.5610  0.2673
   91MOL   C31541895   6.261   5.576   1.643 -0.4032  0.4200 -0.0604
   91MOL   H31641896   6.500   5.751   1.276  2.6865 -1.8072 -1.3958
   91MOL   H31741897   6.467   5.714   1.111  0.0104  2.5512  0.0165
   91MOL   H31841898   6.255   5.583   1.183 -0.2456 -0.6887 -0.2864
   91MOL   H31941899   6.245   5.762   1.193  0.1644 -0.6688 -1.0030
   91MOL   H32041900   6.028   5.820   1.657 -0.9386  0.0340  1.0165
   91MOL   H32141901   6.036   5.769   1.885  0.1654  0.5597  0.3017
   91MOL   H32241902   6.332   5.459   1.805  0.3738  0.5797 -0.3689
   91MOL   H32341903   6.325   5.520   1.577  1.1838 -0.1133  1.8702
   91MOL   O32441904   6.235   5.432   2.192 -0.2127  0.4433  0.2235
   91MOL   C32541905   6.360   5.371   2.204  0.4361  0.3348 -0.3232
   91MOL   C32641906   6.381   5.332   2.351  0.5908 -0.0408 -0.6717
   91MOL   O32741907   6.384   5.432   2.449 -0.3906 -0.3755  0.2346
   91MOL   C32841908   6.502   5.497   2.469 -0.4264 -0.1361  0.6059
   91MOL   O32941909   6.603   5.467   2.409 -0.3427  0.6644 -0.0271
   91MOL   C33041910   6.491   5.578   2.585  0.3402 -0.0974  0.6429
   91MOL   C33141911   6.604   5.608   2.666 -0.4557 -0.1218  0.6125
   91MOL   C33241912   6.595   5.688   2.782 -0.3965  0.4675  0.1735
   91MOL   C33341913   6.472   5.746   2.816 -0.1809 -0.0799 -0.4475
   91MOL   C33441914   6.473   5.828   2.942  0.3142 -0.4414  0.2321
   91MOL   O33541915   6.559   5.811   3.034  0.2570 -0.4112 -0.2035
   91MOL   O33641916   6.384   5.922   2.942  0.3498 -0.0388 -0.2894
   91MOL   C33741917   6.358   5.725   2.733 -0.0645 -0.0718 -0.4325
   91MOL   C33841918   6.371   5.648   2.615  0.1574  0.0730 -0.2665
   91MOL   H33941919   6.355   5.278   2.147  1.9051  0.8042 -1.2286
   91MOL   H34041920   6.434   5.438   2.162 -0.2711  2.0486  1.0998
   91MOL   H34141921   6.456   5.259   2.380  0.3952 -0.0194 -0.0888
   91MOL   H34241922   6.289   5.277   2.369  0.4007 -0.0237 -1.5836
   91MOL   H34341923   6.699   5.566   2.638  0.6822  0.8136  2.9645
   91MOL   H34441924   6.687   5.701   2.837 -0.4887  1.0414  0.1941
   91MOL   H34541925   6.261   5.765   2.759 -0.0343  0.5397 -1.2355
   91MOL   H34641926   6.284   5.644   2.552  0.1807 -0.7085 -0.2524
   91MOL   O34741927   6.379   6.000   3.071 -0.4051  0.0594 -0.6382
   91MOL   C34841928   6.274   5.953   3.147  0.1121 -0.7845  0.4832
   91MOL   C34941929   6.298   5.991   3.296  0.1539  0.3262  0.0051
   91MOL   O35041930   6.376   5.885   3.355  0.0966  0.1345 -0.2955
   91MOL   C35141931   6.466   5.916   3.452  0.1312  0.3762  0.5978
   91MOL   O35241932   6.481   6.034   3.495  0.2260 -0.1959  0.0161
   91MOL   C35341933   6.543   5.798   3.502 -0.5027  0.7462  0.1070
   91MOL   C35441934   6.590   5.794   3.633 -0.0626 -0.1087 -0.8567
   91MOL   C35541935   6.654   5.685   3.694 -0.4970  0.2704  0.5691
   91MOL   C35641936   6.655   5.565   3.630 -0.4407  0.9796  0.3340
   91MOL   C35741937   6.699   5.438   3.706 -0.3854 -0.0553 -0.0241
   91MOL   O35841938   6.757   5.439   3.823 -0.1742  0.5103  0.2386
   91MOL   O35941939   6.667   5.324   3.644  0.4023  0.2107  0.1149
   91MOL   C36041940   6.596   5.559   3.501 -0.0204  0.1460  0.2228
   91MOL   C36141941   6.541   5.676   3.437 -0.0295  0.1126  0.4099
   91MOL   H36241942   6.183   6.009   3.123 -0.1190 -1.2745  0.2311
   91MOL   H36341943   6.250   5.847   3.145 -2.2184 -0.3114  1.3406
   91MOL   H36441944   6.205   5.996   3.354 -0.8877  1.1457 -1.7095
   91MOL   H36541945   6.352   6.086   3.294  1.4959 -0.4053  0.7622
   91MOL   H36641946   6.580   5.883   3.693 -0.9535 -1.5085  1.1443
   91MOL   H36741947   6.673   5.684   3.800  0.8605  1.3527  0.3494
   91MOL   H36841948   6.590   5.459   3.460 -0.7887 -1.1010  3.2282
   91MOL   H36941949   6.489   5.662   3.343 -1.3406  0.5759  1.0705
   91MOL   O37041950   6.693   5.197   3.733 -0.1144  0.5976 -0.0268
   91MOL   C37141951   6.826   5.139   3.699 -0.4566 -0.1478  0.7436
   91MOL   C37241952   6.857   5.024   3.799 -0.6284 -0.0111 -0.0297
   91MOL   O37341953   6.816   4.894   3.749  0.4622  0.0217 -0.5455
   91MOL   C37441954   6.678   4.864   3.758 -0.3973 -0.2241  0.1994
   91MOL   O37541955   6.602   4.938   3.825 -0.1551 -0.2268 -0.0744
   91MOL   C37641956   6.642   4.740   3.683 -0.0704  0.5524  0.2306
   91MOL   C37741957   6.742   4.664   3.619 -0.1512 -0.0482 -0.2613
   91MOL   C37841958   6.704   4.546   3.556  0.0877  0.7059 -0.2047
   91MOL   C37941959   6.572   4.512   3.534 -0.4785 -0.7337 -0.3495
   91MOL   C38041960   6.523   4.396   3.450  0.5740 -1.2234 -0.0241
   91MOL   O38141961   6.596   4.315   3.400 -0.2344  0.0944 -0.4601
   91MOL   O38241962   6.391   4.393   3.433  0.0665 -0.2538 -0.2764
   91MOL   C38341963   6.470   4.588   3.601 -0.4369  0.5313 -0.5813
   91MOL   C38441964   6.511   4.694   3.679 -0.6532 -0.0319 -0.5424
   91MOL   H38541965   6.826   5.095   3.599  1.3375  1.7471 -0.1175
   91MOL   H38641966   6.905   5.213   3.710 -1.2708  0.8299  0.0641
   91MOL   H38741967   6.823   5.054   3.898 -1.1658  0.8245 -0.4558
   91MOL   H38841968   6.966   5.018   3.806 -0.4232  2.0028 -1.0444
   91MOL   H38941969   6.845   4.697   3.629  0.6451 -2.6540  0.4088
   91MOL   H39041970   6.774   4.478   3.510 -2.4230 -1.2085 -1.3607
   91MOL   H39141971   6.366   4.559   3.608 -0.0493 -1.0226 -0.8825
   91MOL   H39241972   6.438   4.746   3.740  1.2167  0.9179  0.9538
   91MOL   O39341973   6.346   4.283   3.348 -0.1316 -0.3714 -0.7790
   91MOL   C39441974   6.306   4.343   3.230 -0.2505  0.0864  1.3662
   91MOL   C39541975   6.319   4.233   3.125 -1.1215 -0.0383  0.2862
   91MOL   O39641976   6.197   4.162   3.138  0.5082  0.0684  0.7661
   91MOL   C39741977   6.074   4.214   3.093 -0.2825 -0.4368  0.7635
   91MOL   O39841978   6.077   4.317   3.028 -0.4875  0.3706  0.1338
   91MOL   C39941979   5.953   4.136   3.130 -0.7908  0.3366 -0.6945
   91MOL   C40041980   5.953   4.031   3.226 -0.2590 -0.2299 -0.4351
   91MOL   C40141981   5.837   3.962   3.257  0.0839  0.0705  0.1122
   91MOL   C40241982   5.718   3.983   3.191  0.5204 -0.0087 -0.4213
   91MOL   C40341983   5.593   3.914   3.216  0.3235  1.0406  1.2985
   91MOL   O40441984   5.484   3.949   3.166 -0.5390  0.0118 -0.6604
   91MOL   O40541985   5.603   3.799   3.294  0.3446  0.2915 -0.9933
   91MOL   C40641986   5.714   4.092   3.103  0.1596 -0.0065 -0.1083
   91MOL   C40741987   5.828   4.164   3.073  0.0460 -0.0558  0.1641
   91MOL   H40841988   6.212   4.397   3.246 -0.5678 -0.4611  1.3457
   91MOL   H40941989   6.368   4.428   3.199 -0.6872 -0.5296 -1.3637
   91MOL   H41041990   6.405   4.168   3.140  0.7286  1.5591 -2.7999
   91MOL   H41141991   6.346   4.279   3.030  3.5149 -3.3725 -0.1242
   91MOL   H41241992   6.042   4.008   3.283  0.5104 -0.4508 -1.6995
   91MOL   H41341993   5.838   3.898   3.345  0.9484 -0.8581 -0.5553
   91MOL   H41441994   5.631   4.115   3.037 -1.0133  0.9759  1.6747
   91MOL   H41541995   5.826   4.246   3.003  3.0689 -0.4190 -0.4161
   91MOL   O41641996   5.469   3.735   3.353 -0.6075 -0.0376 -0.3419
   91MOL   C41741997   5.429   3.618   3.284 -0.5972 -0.2535 -0.1755
   91MOL   C41841998   5.493   3.490   3.334 -0.6212 -0.0057 -0.3469
   91MOL   O41941999   5.471   3.476   3.472 -0.0952 -0.4884  0.4451
   91MOL   C42042000   5.382   3.388   3.512 -0.6097 -0.1033  0.6835
   91MOL   O42142001   5.326   3.310   3.434 -0.3777  0.1961  0.6793
   91MOL   C42242002   5.368   3.393   3.659  0.5179 -0.8505 -0.3912
   91MOL   C42342003   5.486   3.406   3.735 -0.3446  0.2465  0.1650
   91MOL   C42442004   5.480   3.400   3.875  0.6378 -0.2902 -0.1740
   91MOL   C42542005   5.357   3.381   3.941 -0.3301  0.8231 -0.7408
   91MOL   C42642006   5.345   3.380   4.090 -0.0751  0.3919 -0.3622
   91MOL   O42742007   5.241   3.343   4.147  0.2012 -0.5449 -0.3914
   91MOL   O42842008   5.459   3.411   4.151  0.1038  0.7403  0.0091
   91MOL   C42942009   5.240   3.383   3.862 -0.2330  0.3341 -0.1023
   91MOL   C43042010   5.240   3.390   3.719 -0.0715  0.1714 -0.5322
   91MOL   H43142011   5.320   3.617   3.295 -0.7493  0.6381 -1.4448
   91MOL   H43242012   5.447   3.640   3.178 -2.5372  0.0276 -0.4720
   91MOL   H43342013   5.600   3.501   3.317 -0.3088  1.0389  2.0660
   91MOL   H43442014   5.473   3.398   3.279  1.4013  0.3342 -1.7464
   91MOL   H43542015   5.580   3.421   3.684 -0.4412  1.1099  0.2261
   91MOL   H43642016   5.571   3.399   3.932  0.3363  0.0185  0.3077
   91MOL   H43742017   5.140   3.376   3.901 -0.2829 -0.2296 -0.3253
   91MOL   H43842018   5.153   3.394   3.656 -0.6308 -0.7793  0.1590
   91MOL   O43942019   5.448   3.390   4.294  0.4192 -0.0538  0.1607
   91MOL   C44042020   5.499   3.259   4.325 -0.3274  0.0667  0.0592
   91MOL   C44142021   5.454   3.222   4.464  0.2434 -0.0689 -0.3540
   91MOL   O44242022   5.542   3.311   4.537  0.1211 -0.1291  0.6715
   91MOL   C44342023   5.498   3.379   4.646 -0.0213 -0.2718 -0.8179
   91MOL   O44442024   5.381   3.381   4.683  0.0953  0.1959  0.2059
   91MOL   C44542025   5.609   3.459   4.710  0.1407  0.1933  0.1418
   91MOL   C44642026   5.597   3.517   4.840 -0.6215 -0.5109  0.4929
   91MOL   C44742027   5.705   3.582   4.899  0.0335 -0.3008  0.0037
   91MOL   C44842028   5.825   3.602   4.826 -0.2539 -0.0002  0.3576
   91MOL   C44942029   5.945   3.670   4.896 -0.6419 -0.5832  0.2452
   91MOL   O45042030   6.055   3.677   4.835 -0.6466 -0.0458  0.7551
   91MOL   O45142031   5.929   3.720   5.022 -0.7424  0.2702  0.0063
   91MOL   C45242032   5.833   3.554   4.693 -0.1096 -0.4376  0.0596
   91MOL   C45342033   5.725   3.486   4.632 -0.2619  0.4820  0.0079
   91MOL   H45442034   5.469   3.184   4.252  1.1311 -0.6412  0.1906
   91MOL   H45542035   5.604   3.275   4.304 -0.8289  1.4345 -1.4540
   91MOL   H45642036   5.476   3.116   4.479  1.9618 -0.1140 -2.9333
   91MOL   H45742037   5.347   3.220   4.483  0.3331 -1.0947  0.1088
   91MOL   H45842038   5.509   3.492   4.898 -0.6154  0.4923  0.9488
   91MOL   H45942039   5.695   3.598   5.005 -0.3045 -0.6145  0.0181
   91MOL   H46042040   5.924   3.553   4.635 -0.3076  2.0528 -0.3273
   91MOL   H46142041   5.737   3.447   4.533 -2.1195  2.2405 -0.9481
   91MOL   H46242042   5.985   3.794   5.040 -1.9990  0.9962  1.0339
   92MOL     O142043   2.465   7.874   4.979 -0.2885 -0.0583  0.4338
   92MOL     C242044   2.488   7.733   5.003 -0.4530  0.2626 -0.1035
   92MOL     C342045   2.470   7.642   4.877 -0.1985 -0.2161  0.0532
   92MOL     O442046   2.467   7.498   4.900  0.6692  0.0699 -0.0987
   92MOL     C542047   2.574   7.422   4.905  0.8046 -0.3406  0.4633
   92MOL     O642048   2.688   7.472   4.890  0.1154  0.5290  0.1640
   92MOL     C742049   2.543   7.278   4.907 -0.0068 -0.0825 -0.6169
   92MOL     C842050   2.647   7.182   4.892 -0.1896  0.1167  0.7967
   92MOL     C942051   2.618   7.049   4.909  0.5121 -0.0717  0.1008
   92MOL    C1042052   2.483   7.002   4.934 -0.9167 -0.3069 -1.0830
   92MOL    C1142053   2.458   6.860   4.956  0.2610  0.5808  0.3772
   92MOL    O1242054   2.343   6.821   4.948 -0.2883  0.2898 -0.0393
   92MOL    O1342055   2.576   6.786   4.982  0.1827 -0.5021  0.8787
   92MOL    C1442056   2.383   7.097   4.949  0.4730  0.1736 -0.0501
   92MOL    C1542057   2.413   7.234   4.923 -0.0263  0.2219 -0.3242
   92MOL    H1642058   2.587   7.715   5.047  1.2090  0.0621 -3.7532
   92MOL    H1742059   2.413   7.700   5.075 -0.6489 -0.9738 -0.8661
   92MOL    H1842060   2.558   7.662   4.816 -0.5363 -1.9251 -1.0237
   92MOL    H1942061   2.381   7.659   4.817 -1.9874 -0.0222  2.6575
   92MOL    H2042062   2.753   7.202   4.880 -0.3250  0.4153  0.1122
   92MOL    H2142063   2.695   6.974   4.902  0.9900  0.4538 -0.3610
   92MOL    H2242064   2.278   7.077   4.966  0.4285  0.9933  0.6395
   92MOL    H2342065   2.331   7.304   4.928  0.2332  0.4769  0.4732
   92MOL    H2442066   2.371   7.872   4.971 -0.3676 -1.0751  1.4710
   92MOL    O2542067   2.544   6.649   5.036 -0.0674 -0.1252 -0.0311
   92MOL    C2642068   2.522   6.558   4.928  0.3499  0.3663  0.2683
   92MOL    C2742069   2.525   6.420   4.987  0.9891  0.3716  0.3599
   92MOL    O2842070   2.440   6.335   4.907  0.0905 -0.5345 -0.0960
   92MOL    C2942071   2.497   6.233   4.845 -0.1053  0.2202 -0.4015
   92MOL    O3042072   2.619   6.218   4.834  0.0438 -0.0193  0.5898
   92MOL    C3142073   2.392   6.143   4.775  0.2315 -0.4624 -0.4854
   92MOL    C3242074   2.425   6.017   4.736  0.5494  1.4288 -0.0624
   92MOL    C3342075   2.330   5.927   4.680  0.5928 -0.2699 -1.5815
   92MOL    C3442076   2.199   5.973   4.657 -0.1749 -0.7310 -0.1827
   92MOL    C3542077   2.099   5.893   4.584 -0.1281 -0.3441 -0.8823
   92MOL    O3642078   1.981   5.910   4.583  0.0760 -0.2656  0.0889
   92MOL    O3742079   2.157   5.811   4.490 -0.1246  0.1175 -0.0376
   92MOL    C3842080   2.169   6.104   4.695 -0.1162 -0.7824  0.2234
   92MOL    C3942081   2.263   6.190   4.751 -1.0738 -0.7822 -0.5617
   92MOL    H4042082   2.424   6.584   4.886  0.6611  0.4874 -0.3887
   92MOL    H4142083   2.602   6.558   4.854 -0.4434  2.0884 -0.6260
   92MOL    H4242084   2.488   6.415   5.090  1.5977 -1.3326  0.5118
   92MOL    H4342085   2.631   6.396   4.995  0.9001 -0.3354 -0.5651
   92MOL    H4442086   2.525   5.982   4.761 -0.0479 -0.0041  0.4290
   92MOL    H4542087   2.370   5.827   4.667 -1.9678 -1.4918 -0.3915
   92MOL    H4642088   2.067   6.129   4.670  0.3233 -0.6478 -1.5507
   92MOL    H4742089   2.229   6.287   4.786  3.0405  1.0488 -1.4046
   92MOL    O4842090   2.059   5.769   4.382  0.5324  0.4750 -0.1159
   92MOL    C4942091   2.022   5.632   4.406 -0.2791  0.2175  0.1347
   92MOL    C5042092   1.914   5.589   4.313  0.2905 -0.2950 -0.1344
   92MOL    O5142093   1.831   5.699   4.284  0.1985 -0.0731 -0.1079
   92MOL    C5242094   1.841   5.768   4.173  0.1689  0.2222 -0.2944
   92MOL    O5342095   1.910   5.729   4.079 -0.4345 -0.5590 -0.0429
   92MOL    C5442096   1.765   5.891   4.171  0.1054 -0.2302 -0.6439
   92MOL    C5542097   1.678   5.929   4.274 -0.2401  0.1060  0.5857
   92MOL    C5642098   1.597   6.040   4.270 -0.3265 -0.0287 -0.4768
   92MOL    C5742099   1.594   6.128   4.154  0.5915  0.3164  0.9312
   92MOL    C5842100   1.510   6.251   4.151  0.4707 -0.2036 -0.5645
   92MOL    O5942101   1.516   6.336   4.057 -0.3107 -0.3632  0.9504
   92MOL    O6042102   1.419   6.264   4.253 -0.0990 -0.9279 -0.1535
   92MOL    C6142103   1.681   6.098   4.051  0.3977  0.2993  0.4590
   92MOL    C6242104   1.762   5.980   4.059  0.0874 -0.4143  0.1488
   92MOL    H6342105   2.111   5.570   4.397  0.0323  0.6095  0.5014
   92MOL    H6442106   1.989   5.613   4.508  1.1133  1.4439  0.8341
   92MOL    H6542107   1.849   5.519   4.366 -0.6017 -0.6273 -1.6523
   92MOL    H6642108   1.945   5.535   4.224 -0.7468  0.7173 -1.1292
   92MOL    H6742109   1.674   5.866   4.361  0.0762  1.2207  1.4134
   92MOL    H6842110   1.529   6.063   4.351  1.3680  1.0846  0.6659
   92MOL    H6942111   1.686   6.165   3.967  0.9142  1.4193  1.3847
   92MOL    H7042112   1.832   5.957   3.980 -0.0125  0.3605 -0.1732
   92MOL    O7142113   1.340   6.390   4.247 -0.4262 -0.4603  0.7402
   92MOL    C7242114   1.369   6.467   4.357  0.1309  0.0984 -0.1586
   92MOL    C7342115   1.511   6.515   4.352 -0.7657  0.2875  0.5064
   92MOL    O7442116   1.545   6.598   4.242  0.5285 -0.6084  0.1144
   92MOL    C7542117   1.523   6.732   4.247  0.1969 -1.1644 -0.5311
   92MOL    O7642118   1.464   6.784   4.343  0.4271  0.1909 -0.0747
   92MOL    C7742119   1.588   6.805   4.135  0.0054 -0.3730  0.2479
   92MOL    C7842120   1.560   6.947   4.121  0.0777  0.7208  0.2262
   92MOL    C7942121   1.622   7.020   4.014  0.5685  0.6339 -0.1486
   92MOL    C8042122   1.709   6.959   3.927  0.4027  0.2152 -0.2088
   92MOL    C8142123   1.770   7.035   3.818  0.1932  0.4172  0.1101
   92MOL    O8242124   1.744   7.147   3.781  0.0886 -0.4128 -0.0654
   92MOL    O8342125   1.878   6.976   3.764 -0.3803  0.7688 -0.1308
   92MOL    C8442126   1.742   6.821   3.945 -0.5152  0.0430 -0.4135
   92MOL    C8542127   1.675   6.745   4.044 -0.0996  0.3733 -0.6917
   92MOL    H8642128   1.299   6.549   4.369  0.6653  0.8367 -1.9195
   92MOL    H8742129   1.347   6.401   4.440  1.4835 -1.4815 -1.0270
   92MOL    H8842130   1.581   6.432   4.348  0.0226  0.8163  2.7473
   92MOL    H8942131   1.541   6.569   4.441 -0.3842 -2.3292  2.0000
   92MOL    H9042132   1.498   6.997   4.194 -0.5430  0.4523 -0.1022
   92MOL    H9142133   1.617   7.128   4.020  0.2884  0.5700  0.8806
   92MOL    H9242134   1.821   6.777   3.885  1.2812  3.6372 -0.8132
   92MOL    H9342135   1.703   6.641   4.049  1.0725  0.7654  1.2426
   92MOL    O9442136   1.963   7.057   3.670  0.5583 -0.3297 -0.3377
   92MOL    C9542137   2.080   7.086   3.744 -0.0899 -0.7625 -0.5208
   92MOL    C9642138   2.098   7.223   3.813  1.2005  0.8203 -0.2683
   92MOL    O9742139   2.104   7.330   3.724  0.0566  0.5854  0.0258
   92MOL    C9842140   2.109   7.462   3.756 -0.5327 -0.1019  0.2782
   92MOL    O9942141   2.116   7.498   3.873 -0.5166 -0.0623 -0.1245
   92MOL   C10042142   2.105   7.548   3.638  0.2460  0.2861 -0.5156
   92MOL   C10142143   2.109   7.688   3.662 -0.4474 -1.1811 -0.0218
   92MOL   C10242144   2.118   7.768   3.541  0.3618 -0.2381 -0.0921
   92MOL   C10342145   2.110   7.707   3.410 -0.5462 -0.4035  1.3578
   92MOL   C10442146   2.100   7.782   3.286  0.1625  0.0427 -0.4330
   92MOL   O10542147   2.127   7.743   3.177 -0.6507  0.1167 -0.3084
   92MOL   O10642148   2.057   7.907   3.310  0.0660  0.2724  0.2432
   92MOL   C10742149   2.117   7.569   3.394 -0.0419  0.0886 -0.0882
   92MOL   C10842150   2.125   7.495   3.509 -0.2468 -0.7671 -0.2399
   92MOL   H10942151   2.098   7.006   3.815  0.3936 -1.7158 -1.7235
   92MOL   H11042152   2.155   7.092   3.666  0.7972 -0.1174  0.3689
   92MOL   H11142153   2.175   7.232   3.890 -0.7106  1.9650  1.5840
   92MOL   H11242154   2.007   7.259   3.862  1.2599  1.6437 -0.7537
   92MOL   H11342155   2.107   7.716   3.766  0.9267 -2.0360  0.2446
   92MOL   H11442156   2.115   7.876   3.540  1.9451 -0.1693  0.9925
   92MOL   H11542157   2.120   7.527   3.295  0.1445 -2.2772  0.8854
   92MOL   H11642158   2.148   7.390   3.500 -0.6992 -0.7173 -2.0211
   92MOL   O11742159   2.047   7.997   3.191 -0.4230  0.2234 -0.2928
   92MOL   C11842160   1.913   8.008   3.152  0.5280 -0.4968  0.2926
   92MOL   C11942161   1.883   8.141   3.064 -0.4038 -0.3907 -0.0816
   92MOL   O12042162   1.884   8.259   3.142 -0.4839  0.5534 -0.0878
   92MOL   C12142163   1.910   0.098   3.086 -0.2257  0.7242  0.3441
   92MOL   O12242164   1.925   0.109   2.962 -0.0046  0.6962 -0.8441
   92MOL   C12342165   1.913   0.212   3.171 -0.1220 -1.4876  0.3953
   92MOL   C12442166   1.961   0.337   3.129  0.2103  0.1254  0.1796
   92MOL   C12542167   1.985   0.434   3.219 -0.0726 -0.0871  0.4952
   92MOL   C12642168   1.959   0.419   3.358 -0.3964 -0.7731  0.0574
   92MOL   C12742169   2.002   0.521   3.456 -0.1189  0.0971  0.0465
   92MOL   O12842170   2.035   0.634   3.422 -0.0651  0.1757  0.3738
   92MOL   O12942171   1.996   0.478   3.583 -0.1492 -0.0675  0.3789
   92MOL   C13042172   1.899   0.299   3.396  0.0893  0.5555 -0.4637
   92MOL   C13142173   1.876   0.193   3.306 -0.2360  0.3117 -0.5315
   92MOL   H13242174   1.904   7.925   3.082  0.5433 -0.0437 -0.2488
   92MOL   H13342175   1.844   7.991   3.234 -0.8617  2.4089 -0.2249
   92MOL   H13442176   1.789   8.156   3.012  1.3024  1.6800 -2.7386
   92MOL   H13542177   1.959   8.149   2.986 -1.2898  1.3628 -0.7815
   92MOL   H13642178   1.994   0.364   3.030  0.1438 -0.8036 -0.0978
   92MOL   H13742179   2.036   0.516   3.171  1.4222 -1.3001 -0.0036
   92MOL   H13842180   1.866   0.279   3.497 -1.6305  1.6225 -0.7953
   92MOL   H13942181   1.850   0.093   3.339 -2.6775  0.9297 -0.5224
   92MOL   O14042182   2.036   0.582   3.684  0.0981 -0.0640 -0.2464
   92MOL   C14142183   1.916   0.634   3.723  0.1142 -0.8734 -0.5854
   92MOL   C14242184   1.944   0.768   3.803  0.3411 -0.3641 -0.7608
   92MOL   O14342185   2.014   0.855   3.723  0.1832  0.6354 -0.7417
   92MOL   C14442186   2.086   0.956   3.775 -0.5467 -0.2910  0.0003
   92MOL   O14542187   2.098   0.987   3.894  0.0473  0.3182 -0.4053
   92MOL   C14642188   2.150   1.044   3.670 -0.0575  0.1966  0.4896
   92MOL   C14742189   2.171   1.008   3.531 -0.1138 -0.1626 -0.2306
   92MOL   C14842190   2.223   1.097   3.437  0.3625 -0.6859  0.3733
   92MOL   C14942191   2.268   1.224   3.486 -0.1263  0.7413 -0.8694
   92MOL   C15042192   2.344   1.308   3.398 -0.2650 -0.6181  0.4483
   92MOL   O15142193   2.303   1.341   3.288  0.0242  0.0634 -0.0710
   92MOL   O15242194   2.457   1.358   3.460 -0.1237 -0.5776  0.0724
   92MOL   C15342195   2.241   1.266   3.616 -0.1576 -0.8966  0.0802
   92MOL   C15442196   2.184   1.176   3.706 -0.0566 -0.5343 -0.3686
   92MOL   H15542197   1.858   0.655   3.632 -0.1465 -2.7881 -0.8782
   92MOL   H15642198   1.855   0.563   3.778 -1.0813  1.1968  0.8497
   92MOL   H15742199   2.002   0.742   3.892  1.7258  2.0544 -0.9201
   92MOL   H15842200   1.852   0.824   3.818  0.0244 -0.7525 -1.2248
   92MOL   H15942201   2.145   0.909   3.495 -2.8436  0.7693 -0.9535
   92MOL   H16042202   2.256   1.071   3.337  0.0940  0.2630  0.0282
   92MOL   H16142203   2.293   1.348   3.663 -1.9068  0.4906 -0.3889
   92MOL   H16242204   2.159   1.206   3.807  2.5634  0.1162  0.1399
   92MOL   O16342205   2.530   1.459   3.387  0.5132  0.1187 -0.1637
   92MOL   C16442206   2.502   1.592   3.442  0.1562 -0.0476 -0.0020
   92MOL   C16542207   2.577   1.606   3.573  0.0329  0.1729  0.6014
   92MOL   O16642208   2.712   1.652   3.537  0.0541 -0.4152 -0.2447
   92MOL   C16742209   2.729   1.782   3.492  1.1462 -0.2751 -0.5259
   92MOL   O16842210   2.634   1.862   3.492 -0.4046 -0.2929  0.2161
   92MOL   C16942211   2.855   1.805   3.426 -0.8166  0.1004 -0.3748
   92MOL   C17042212   2.888   1.934   3.374  0.6617  0.2248  0.1949
   92MOL   C17142213   3.017   1.962   3.317 -0.4952 -0.0116 -0.0250
   92MOL   C17242214   3.116   1.861   3.307 -0.2782 -0.0287  0.3588
   92MOL   C17342215   3.249   1.881   3.244  0.1274 -0.8755  0.2747
   92MOL   O17442216   3.319   1.790   3.191 -0.4566 -0.1918 -0.3433
   92MOL   O17542217   3.291   2.007   3.244 -0.0578  0.1897 -0.5124
   92MOL   C17642218   3.079   1.730   3.345 -0.1860 -0.2335  0.3375
   92MOL   C17742219   2.950   1.703   3.409 -0.0622  0.3259 -0.9329
   92MOL   H17842220   2.540   1.658   3.364 -0.9045 -1.4289 -1.7591
   92MOL   H17942221   2.395   1.612   3.449  0.7389  2.9127  0.9163
   92MOL   H18042222   2.582   1.515   3.633  1.0029 -1.6132 -2.1091
   92MOL   H18142223   2.534   1.678   3.643  1.8023  0.7374  1.1264
   92MOL   H18242224   2.800   1.997   3.373 -0.2130 -0.9630  1.0435
   92MOL   H18342225   3.043   2.060   3.280 -0.1578 -0.0122  0.2066
   92MOL   H18442226   3.150   1.649   3.344  0.4093  0.2840  0.0390
   92MOL   H18542227   2.929   1.604   3.444 -1.2379  1.1908  0.8752
   92MOL   O18642228   3.441   2.025   3.232 -0.0633  0.4508 -0.2513
   92MOL   C18742229   3.460   2.055   3.096 -0.4927  0.0122 -0.0578
   92MOL   C18842230   3.437   2.201   3.054  0.3855  0.3774 -0.2740
   92MOL   O18942231   3.303   2.243   3.065  0.4836  0.6709 -0.1103
   92MOL   C19042232   3.223   2.239   2.955  0.0810  0.6163  0.5982
   92MOL   O19142233   3.265   2.223   2.840 -0.1132 -0.8399 -0.8604
   92MOL   C19242234   3.087   2.275   2.987 -0.2118  0.7246 -0.1069
   92MOL   C19342235   3.045   2.326   3.116 -1.0044 -0.0882  0.2007
   92MOL   C19442236   2.910   2.361   3.129  0.6283 -0.0059 -0.7259
   92MOL   C19542237   2.814   2.340   3.028  0.2298 -0.3012 -0.0287
   92MOL   C19642238   2.671   2.370   3.053 -0.2397 -0.0376 -0.0317
   92MOL   O19742239   2.583   2.349   2.969  0.7365  0.3646  0.3111
   92MOL   O19842240   2.639   2.408   3.185  0.7640  0.5452 -0.8302
   92MOL   C19942241   2.854   2.277   2.910  0.0574 -0.4213  0.0705
   92MOL   C20042242   2.988   2.241   2.888 -0.0037  0.0718 -0.3718
   92MOL   H20142243   3.562   2.031   3.065 -0.2902  1.2773 -0.3949
   92MOL   H20242244   3.396   1.987   3.040  0.3332 -0.8448  0.0177
   92MOL   H20342245   3.472   2.203   2.951  3.0729 -3.2905  0.4515
   92MOL   H20442246   3.501   2.263   3.115 -0.9486  0.2552  1.2860
   92MOL   H20542247   3.117   2.335   3.196  1.4046 -1.0911 -1.7720
   92MOL   H20642248   2.891   2.400   3.228  1.6485  1.3394 -1.0500
   92MOL   H20742249   2.787   2.257   2.828  1.0537 -2.2071 -0.3415
   92MOL   H20842250   3.027   2.198   2.797  1.3514  0.1661  0.1512
   92MOL   O20942251   2.496   2.418   3.206 -1.2011 -0.7646 -0.2552
   92MOL   C21042252   2.444   2.290   3.252  0.1088  0.0087 -0.3092
   92MOL   C21142253   2.301   2.292   3.288 -0.3461 -0.1422 -0.6235
   92MOL   O21242254   2.263   2.172   3.360 -0.6656 -0.1402  0.0005
   92MOL   C21342255   2.140   2.167   3.418  0.1524  0.6060  0.6965
   92MOL   O21442256   2.052   2.247   3.394  0.1525  0.3384  0.0468
   92MOL   C21542257   2.137   2.049   3.514  0.3609 -0.6912  0.1755
   92MOL   C21642258   2.014   1.995   3.559 -0.3947 -0.1858  0.0388
   92MOL   C21742259   2.014   1.882   3.646 -0.7069 -0.3192  0.5856
   92MOL   C21842260   2.136   1.806   3.667 -0.6458 -0.5565 -0.4924
   92MOL   C21942261   2.128   1.677   3.738  0.0908 -0.0289  0.4488
   92MOL   O22042262   2.222   1.598   3.742 -0.4963  0.2440 -0.3918
   92MOL   O22142263   2.006   1.654   3.800  0.1414 -0.6422 -0.6280
   92MOL   C22242264   2.254   1.868   3.625  0.2051  0.2672  1.1121
   92MOL   C22342265   2.259   1.983   3.555 -0.3463 -0.2773 -0.3234
   92MOL   H22442266   2.450   2.211   3.177 -0.1202 -2.0793  1.8263
   92MOL   H22542267   2.487   2.252   3.345 -0.0032 -0.5196 -0.4699
   92MOL   H22642268   2.242   2.295   3.196  0.5588  0.4006 -1.2076
   92MOL   H22742269   2.274   2.377   3.351  0.8126  1.2470 -1.9382
   92MOL   H22842270   1.922   2.045   3.533  1.0162  1.0119 -2.9113
   92MOL   H22942271   1.917   1.835   3.656 -0.7404 -0.5883 -0.9274
   92MOL   H23042272   2.350   1.819   3.635  1.3991  1.8333 -1.9231
   92MOL   H23142273   2.355   2.028   3.534  0.2691 -1.6615 -0.5188
   92MOL   O23242274   2.003   1.542   3.904  0.7106  0.3660  0.1336
   92MOL   C23342275   1.960   1.423   3.836  0.1118  0.2037 -0.1570
   92MOL   C23442276   1.914   1.330   3.951  0.4837 -0.2369  0.3811
   92MOL   O23542277   1.771   1.324   3.956  0.4079 -0.2096  0.0727
   92MOL   C23642278   1.705   1.428   4.017 -0.0149 -0.2085  0.4024
   92MOL   O23742279   1.761   1.511   4.089 -0.2072 -0.0454 -0.3465
   92MOL   C23842280   1.550   1.425   3.994 -0.4038 -0.9673 -0.8225
   92MOL   C23942281   1.488   1.327   3.909  0.1314 -0.6606 -0.5710
   92MOL   C24042282   1.349   1.335   3.886  0.3403  0.1276  0.2037
   92MOL   C24142283   1.264   1.422   3.958  0.8831  0.1085  0.1747
   92MOL   C24242284   1.115   1.423   3.937 -0.0754 -0.1928 -0.2258
   92MOL   O24342285   1.034   1.485   4.010  0.0973  0.4985 -0.0135
   92MOL   O24442286   1.078   1.357   3.824  0.3686 -0.3667  0.0036
   92MOL   C24542287   1.328   1.521   4.037 -0.5299  0.3096  0.2531
   92MOL   C24642288   1.469   1.529   4.040 -0.6243  0.1551 -0.7188
   92MOL   H24742289   1.881   1.431   3.762  0.5476  1.8297 -0.4679
   92MOL   H24842290   2.050   1.397   3.780  0.9642 -1.4817  1.9159
   92MOL   H24942291   1.934   1.381   4.045 -0.5983  0.4286  0.2668
   92MOL   H25042292   1.964   1.233   3.952 -1.8328 -1.4864 -0.8303
   92MOL   H25142293   1.538   1.244   3.862 -2.0534  0.3473 -4.8753
   92MOL   H25242294   1.309   1.253   3.829  0.8536 -0.3626  0.5516
   92MOL   H25342295   1.276   1.599   4.090  1.8222  2.9416 -1.1652
   92MOL   H25442296   1.513   1.609   4.098  0.6820 -1.6297  0.7948
   92MOL   O25542297   0.927   1.338   3.812 -0.0393 -0.7866 -0.2734
   92MOL   C25642298   0.871   1.430   3.717  0.7165 -0.0349 -0.1100
   92MOL   C25742299   0.943   1.452   3.585 -0.1530  0.3721 -0.5187
   92MOL   O25842300   1.036   1.553   3.610 -0.1347  0.4989 -0.4201
   92MOL   C25942301   1.046   1.659   3.529 -0.9358  0.1465  0.2259
   92MOL   O26042302   0.985   1.678   3.426  0.1463  0.1060 -0.0329
   92MOL   C26142303   1.129   1.768   3.587 -0.4982 -0.0059  0.1927
   92MOL   C26242304   1.156   1.886   3.511 -0.5399  0.3208 -1.0832
   92MOL   C26342305   1.220   2.001   3.567  0.0814  0.6979  0.6601
   92MOL   C26442306   1.267   1.997   3.696 -0.1239  0.1986  0.4157
   92MOL   C26542307   1.326   2.112   3.766 -0.3015  0.3008 -0.3527
   92MOL   O26642308   1.350   2.224   3.713  0.1622  0.0462 -0.1989
   92MOL   O26742309   1.349   2.085   3.899 -0.3588 -0.0421  0.6874
   92MOL   C26842310   1.255   1.873   3.769  0.4230 -0.0670  0.6435
   92MOL   C26942311   1.181   1.763   3.718 -0.0966  0.2313 -0.2103
   92MOL   H27042312   0.765   1.412   3.702  0.6672 -0.7343  1.0710
   92MOL   H27142313   0.865   1.520   3.778 -1.1572 -0.9849  1.1682
   92MOL   H27242314   0.874   1.478   3.506  0.1448  1.3548 -0.4623
   92MOL   H27342315   0.986   1.355   3.560 -0.5928 -0.5390  2.0803
   92MOL   H27442316   1.122   1.886   3.408 -1.7602  0.7848 -0.6818
   92MOL   H27542317   1.224   2.088   3.502  0.2216  0.4883  0.3854
   92MOL   H27642318   1.283   1.863   3.872  0.4792  1.5005  0.7955
   92MOL   H27742319   1.173   1.667   3.767 -1.8472 -1.6983 -4.0145
   92MOL   O27842320   1.349   2.215   3.973 -0.3699  0.1321 -0.1150
   92MOL   C27942321   1.229   2.248   4.030 -0.8405 -0.4512 -0.2034
   92MOL   C28042322   1.207   2.165   4.156  0.2862 -0.6230  0.5963
   92MOL   O28142323   1.125   2.252   4.236 -0.0971 -0.3963 -0.1477
   92MOL   C28242324   1.183   2.323   4.329 -0.3954  0.1209  0.4215
   92MOL   O28342325   1.296   2.306   4.364 -0.2526 -0.1576  0.3184
   92MOL   C28442326   1.106   2.440   4.377 -0.1507 -0.6455 -0.2133
   92MOL   C28542327   0.992   2.486   4.301 -0.5310 -0.2807  0.1214
   92MOL   C28642328   0.918   2.594   4.356 -0.5145 -0.2962  0.3239
   92MOL   C28742329   0.952   2.658   4.476  0.7103 -0.1626  0.3301
   92MOL   C28842330   0.880   2.779   4.519  0.5977  0.5004 -0.0442
   92MOL   O28942331   0.810   2.851   4.448  0.1999  0.2347  0.0681
   92MOL   O29042332   0.928   2.819   4.640 -0.1007  0.1290  0.2956
   92MOL   C29142333   1.065   2.606   4.545  0.2749 -0.5857 -0.0040
   92MOL   C29242334   1.144   2.505   4.494 -0.0852 -0.1751  0.1519
   92MOL   H29342335   1.233   2.356   4.044  0.0362 -0.6941  1.4156
   92MOL   H29442336   1.148   2.236   3.957  0.7033  1.5533 -2.3409
   92MOL   H29542337   1.300   2.135   4.204 -0.0881 -1.8907  0.5404
   92MOL   H29642338   1.152   2.076   4.125  0.5187 -0.8636  0.8750
   92MOL   H29742339   0.972   2.446   4.203  1.4655 -0.9712 -0.0177
   92MOL   H29842340   0.848   2.645   4.291 -0.8014 -0.4792  0.4934
   92MOL   H29942341   1.111   2.652   4.631 -0.1149 -0.4546  0.1335
   92MOL   H30042342   1.240   2.480   4.537 -0.1901 -1.0564 -0.1223
   92MOL   O30142343   0.899   2.973   4.668  0.4564 -0.1696  0.6588
   92MOL   C30242344   0.789   2.987   4.757 -0.2835  0.2029 -0.0979
   92MOL   C30342345   0.756   3.131   4.782  0.0104  0.1791 -0.2912
   92MOL   O30442346   0.665   3.190   4.686  0.9490  0.0289  0.3833
   92MOL   C30542347   0.713   3.228   4.558  0.7753 -0.1297  0.6585
   92MOL   O30642348   0.829   3.262   4.534 -0.1788  0.1788  0.3237
   92MOL   C30742349   0.613   3.218   4.448  0.1502  0.0441 -0.0819
   92MOL   C30842350   0.470   3.212   4.479  0.5475  0.0018  0.2271
   92MOL   C30942351   0.376   3.176   4.374 -0.3737 -0.0540 -0.5758
   92MOL   C31042352   0.425   3.124   4.256 -0.1243  0.2110  0.4948
   92MOL   C31142353   0.348   3.039   4.164 -0.7056 -0.2091  0.3832
   92MOL   O31242354   0.393   3.002   4.054  0.3297 -0.3341  0.3472
   92MOL   O31342355   0.233   3.001   4.218 -0.4277 -0.2190  0.6549
   92MOL   C31442356   0.563   3.143   4.226  0.2183  0.0403 -0.2559
   92MOL   C31542357   0.656   3.195   4.320  0.4531  0.8405 -0.4538
   92MOL   H31642358   0.704   2.930   4.720 -1.0084  1.5094 -0.4527
   92MOL   H31742359   0.816   2.938   4.850 -0.6454  1.3126  0.5974
   92MOL   H31842360   0.845   3.191   4.798  1.1148 -0.6827 -2.8854
   92MOL   H31942361   0.700   3.138   4.875  0.4418 -1.7130  0.1309
   92MOL   H32042362   0.425   3.219   4.577 -1.5036  1.4987 -0.7707
   92MOL   H32142363   0.274   3.164   4.408 -0.3855  3.4104  0.8550
   92MOL   H32242364   0.604   3.111   4.132 -2.0533 -0.5921 -1.0551
   92MOL   H32342365   0.759   3.200   4.290  0.1795 -1.6867 -1.9841
   92MOL   O32442366   0.163   2.887   4.144 -0.5223  0.3911  0.0036
   92MOL   C32542367   0.155   2.781   4.238  0.3981  0.7950  0.2517
   92MOL   C32642368   0.082   2.669   4.165 -0.0538  0.8703  0.1782
   92MOL   O32742369   0.133   2.621   4.045 -0.1502  0.7152  0.1025
   92MOL   C32842370   0.078   2.657   3.927 -0.3915 -0.4843 -0.1731
   92MOL   O32942371   8.253   2.729   3.912  0.9043 -0.6384 -0.0396
   92MOL   C33042372   0.151   2.592   3.815  0.0948  0.2037  0.4238
   92MOL   C33142373   0.111   2.603   3.679 -0.4975  0.3827  0.1284
   92MOL   C33242374   0.198   2.562   3.574  0.3142  0.5608 -0.7452
   92MOL   C33342375   0.319   2.493   3.606 -0.1533  0.5244  0.3792
   92MOL   C33442376   0.409   2.449   3.497 -0.7617  0.4182 -0.1923
   92MOL   O33542377   0.529   2.420   3.515 -0.4446  0.3763 -0.0466
   92MOL   O33642378   0.346   2.441   3.380 -0.7504  0.0640  0.2876
   92MOL   C33742379   0.357   2.478   3.737  0.7131 -0.3568 -0.9742
   92MOL   C33842380   0.276   2.530   3.843 -1.0214  0.3359  0.2963
   92MOL   H33942381   0.256   2.745   4.259 -0.1012  0.1009  1.5062
   92MOL   H34042382   0.098   2.811   4.326 -0.7816  2.7525 -1.1444
   92MOL   H34142383   8.254   2.701   4.152 -0.5448 -0.3562  0.9091
   92MOL   H34242384   0.084   2.586   4.235 -1.8817  1.0579  0.4701
   92MOL   H34342385   0.018   2.649   3.650  1.1182  2.2003 -2.3215
   92MOL   H34442386   0.162   2.575   3.473 -0.1409 -1.5262 -0.8850
   92MOL   H34542387   0.454   2.443   3.771 -0.2130 -0.8033  1.2891
   92MOL   H34642388   0.318   2.522   3.942 -1.7224 -2.5124  0.4095
   92MOL   O34742389   0.442   2.419   3.272 -0.1829  0.1112  0.0627
   92MOL   C34842390   0.429   2.285   3.230 -0.5671  0.4113  0.0684
   92MOL   C34942391   0.521   2.274   3.109 -0.0456  0.5295 -0.0409
   92MOL   O35042392   0.648   2.291   3.162  0.1790 -0.7956  0.0408
   92MOL   C35142393   0.731   2.187   3.191  0.0373  0.9739  0.3595
   92MOL   O35242394   0.711   2.066   3.170 -0.0804  0.2460  0.6571
   92MOL   C35342395   0.860   2.231   3.254 -0.2546 -0.4797 -0.0769
   92MOL   C35442396   0.975   2.158   3.225 -0.0383  0.2190  0.5498
   92MOL   C35542397   1.097   2.197   3.278 -0.1976 -0.0685  0.3141
   92MOL   C35642398   1.104   2.320   3.350 -0.5414 -0.3337  0.0089
   92MOL   C35742399   1.238   2.361   3.401 -0.5397  0.1924 -0.3736
   92MOL   O35842400   1.339   2.299   3.375 -0.4747 -0.4574  0.6576
   92MOL   O35942401   1.241   2.468   3.477  0.6620  0.2985  0.2184
   92MOL   C36042402   0.986   2.389   3.384 -0.4970 -0.1485 -0.5605
   92MOL   C36142403   0.859   2.340   3.348  0.1326  0.2325  0.0215
   92MOL   H36242404   0.468   2.208   3.297  1.0029  1.8872  0.8754
   92MOL   H36342405   0.329   2.257   3.199 -1.3727  0.5988  2.4342
   92MOL   H36442406   0.500   2.355   3.039 -2.2091 -0.9142 -1.1043
   92MOL   H36542407   0.509   2.175   3.066  1.0262 -0.5683  2.1120
   92MOL   H36642408   0.971   2.064   3.171 -4.0165  1.1679 -0.9959
   92MOL   H36742409   1.187   2.141   3.260  0.8435  1.2486  1.2942
   92MOL   H36842410   0.984   2.470   3.456  0.3078 -0.0874 -0.6120
   92MOL   H36942411   0.768   2.386   3.383  1.0058  2.4146 -0.4470
   92MOL   O37042412   1.362   2.555   3.455 -0.6085 -0.1815  0.7500
   92MOL   C37142413   1.337   2.648   3.349 -0.3338  0.8844 -0.7521
   92MOL   C37242414   1.434   2.767   3.342 -0.6082  0.2741  0.0343
   92MOL   O37342415   1.445   2.817   3.475 -0.1421  0.4934  0.5142
   92MOL   C37442416   1.563   2.797   3.552 -0.0131 -0.1687  0.1928
   92MOL   O37542417   1.655   2.729   3.515 -0.0630 -0.0974  0.1465
   92MOL   C37642418   1.572   2.881   3.679 -0.3438  0.5119  0.3217
   92MOL   C37742419   1.461   2.960   3.722  0.1335 -0.6888 -0.0340
   92MOL   C37842420   1.468   3.030   3.841 -0.0171 -0.6060  0.0397
   92MOL   C37942421   1.585   3.028   3.924 -0.0370 -0.4566  0.3206
   92MOL   C38042422   1.593   3.114   4.042 -0.0483  0.1485 -0.0083
   92MOL   O38142423   1.494   3.157   4.101 -0.2632  0.2741 -0.0362
   92MOL   O38242424   1.715   3.129   4.088  0.4473 -0.1187 -0.1997
   92MOL   C38342425   1.692   2.943   3.880  0.4117  0.0140 -0.4702
   92MOL   C38442426   1.682   2.863   3.764 -0.6154  0.9107  1.0928
   92MOL   H38542427   1.311   2.596   3.257  0.5784  2.3689 -1.8843
   92MOL   H38642428   1.235   2.681   3.371 -0.8580 -0.3057 -1.3854
   92MOL   H38742429   1.383   2.842   3.282 -1.1177 -0.3914 -0.3691
   92MOL   H38842430   1.530   2.743   3.296 -1.9976 -0.8695 -2.3538
   92MOL   H38942431   1.365   2.973   3.675 -0.1096 -0.3828  0.5492
   92MOL   H39042432   1.376   3.078   3.871 -0.4119 -0.0102 -2.0647
   92MOL   H39142433   1.778   2.929   3.944 -0.1987 -1.3785  0.0805
   92MOL   H39242434   1.753   2.783   3.750  0.1250  1.6422  0.6129
   92MOL   O39342435   1.720   3.235   4.198 -0.0323  0.5767  0.1695
   92MOL   C39442436   1.724   3.174   4.323 -0.5184 -0.2264 -0.2794
   92MOL   C39542437   1.724   3.279   4.433 -0.4337  0.2108  0.1485
   92MOL   O39642438   1.854   3.332   4.437  0.5200  0.0529  0.4987
   92MOL   C39742439   1.877   3.445   4.505 -0.7866 -0.0464 -0.1521
   92MOL   O39842440   1.789   3.518   4.542  0.3276 -0.5843  0.0589
   92MOL   C39942441   2.029   3.462   4.526  0.2579 -0.4584 -0.4995
   92MOL   C40042442   2.068   3.553   4.624 -0.3123  0.3288 -0.0908
   92MOL   C40142443   2.207   3.581   4.632  0.5472 -0.2299 -0.4707
   92MOL   C40242444   2.299   3.520   4.545 -0.6290 -0.3873  0.3783
   92MOL   C40342445   2.444   3.571   4.532  0.4297 -0.2906 -0.3164
   92MOL   O40442446   2.490   3.656   4.606  0.3287  0.0045 -0.0651
   92MOL   O40542447   2.518   3.495   4.448  0.7874  0.0210  0.0944
   92MOL   C40642448   2.257   3.419   4.454 -0.0648 -0.4882  0.1600
   92MOL   C40742449   2.118   3.392   4.444  0.7701 -0.0461 -0.5163
   92MOL   H40842450   1.632   3.117   4.336 -0.7965  0.8471  2.8515
   92MOL   H40942451   1.803   3.102   4.344  1.1787  1.6010 -0.3303
   92MOL   H41042452   1.715   3.240   4.534 -0.9244 -0.2913 -0.0869
   92MOL   H41142453   1.649   3.356   4.414  0.0893  0.8739  0.7589
   92MOL   H41242454   1.998   3.597   4.693 -0.2483 -1.4989  1.1839
   92MOL   H41342455   2.246   3.650   4.706 -0.2605  1.2841 -1.4257
   92MOL   H41442456   2.322   3.370   4.383 -0.6656 -3.5746  1.6709
   92MOL   H41542457   2.082   3.329   4.364 -0.8314  0.2316 -0.0218
   92MOL   O41642458   2.650   3.557   4.401 -0.3571 -0.3988  0.1373
   92MOL   C41742459   2.636   3.604   4.269  0.7544 -0.4692  0.1842
   92MOL   C41842460   2.773   3.647   4.216 -0.0169 -0.0096  0.4506
   92MOL   O41942461   2.855   3.530   4.196  0.1507 -0.6578 -0.0051
   92MOL   C42042462   2.965   3.544   4.120 -0.2620 -0.2290 -0.7653
   92MOL   O42142463   2.987   3.647   4.060  0.2136 -0.6337  0.3520
   92MOL   C42242464   3.052   3.424   4.106  0.5166 -0.2819 -0.0352
   92MOL   C42342465   3.150   3.426   4.003  0.2603  0.3240 -0.7911
   92MOL   C42442466   3.225   3.311   3.972  0.1027 -0.9534 -0.3362
   92MOL   C42542467   3.206   3.196   4.043 -0.3185  0.7880 -0.0129
   92MOL   C42642468   3.290   3.077   4.022 -0.1155 -0.1970 -0.1415
   92MOL   O42742469   3.306   2.983   4.105 -0.2176 -0.3576 -0.0863
   92MOL   O42842470   3.351   3.068   3.899  0.2966  0.1242 -0.0700
   92MOL   C42942471   3.111   3.192   4.149  0.2827 -0.2619 -0.3107
   92MOL   C43042472   3.042   3.309   4.184  0.2432  0.1368 -0.5750
   92MOL   H43142473   2.589   3.539   4.196  1.2559 -0.3936 -0.2137
   92MOL   H43242474   2.569   3.689   4.277 -1.9714 -2.5879  0.6487
   92MOL   H43342475   2.821   3.714   4.288 -0.6177 -0.5001  1.3186
   92MOL   H43442476   2.755   3.702   4.124  0.4642 -1.3726 -0.4806
   92MOL   H43542477   3.164   3.512   3.940  1.6843  0.3036 -0.5143
   92MOL   H43642478   3.291   3.317   3.887 -2.1332  0.1240 -2.0563
   92MOL   H43742479   3.104   3.100   4.206  1.7401 -1.4129 -1.9441
   92MOL   H43842480   2.967   3.295   4.260  0.1916  0.6309 -0.5371
   92MOL   O43942481   3.400   2.929   3.859 -0.5129 -0.1827  0.5390
   92MOL   C44042482   3.540   2.919   3.887  0.2715 -0.5554  0.5897
   92MOL   C44142483   3.605   3.015   3.788  0.0131  0.1150  0.1063
   92MOL   O44242484   3.748   2.987   3.764  0.5364  0.1291  0.3280
   92MOL   C44342485   3.839   3.026   3.866 -1.0138  0.0612 -0.3886
   92MOL   O44442486   3.801   3.087   3.967  0.3109  0.1553  0.2961
   92MOL   C44542487   3.981   2.988   3.837  0.2664  0.0082 -0.3039
   92MOL   C44642488   4.023   2.901   3.732 -0.0833 -0.1800 -0.0653
   92MOL   C44742489   4.157   2.886   3.702  0.5266  0.0220  0.7381
   92MOL   C44842490   4.259   2.938   3.790  0.0208 -0.7966  0.5014
   92MOL   C44942491   4.407   2.917   3.759  0.6903  0.1376  0.4394
   92MOL   O45042492   4.495   3.002   3.786  0.2410  0.5898 -0.3032
   92MOL   O45142493   4.423   2.796   3.701 -0.8113  0.3562 -0.3968
   92MOL   C45242494   4.218   3.002   3.904 -0.3767  0.6191 -0.5377
   92MOL   C45342495   4.083   3.036   3.924  0.6251 -0.2875  0.2725
   92MOL   H45442496   3.557   2.943   3.992 -0.6031 -0.0796  0.6322
   92MOL   H45542497   3.578   2.818   3.875  0.1522 -0.5717  0.3492
   92MOL   H45642498   3.586   3.120   3.809  0.6206  0.3740 -0.5979
   92MOL   H45742499   3.564   2.994   3.689 -0.2289 -0.0852  0.2489
   92MOL   H45842500   3.957   2.853   3.661 -0.1879 -4.4314  2.7246
   92MOL   H45942501   4.179   2.824   3.616 -4.1487 -0.6414 -0.1109
   92MOL   H46042502   4.289   3.042   3.974 -0.9437 -0.5789  0.7436
   92MOL   H46142503   4.051   3.101   4.004  1.8966  0.5744  0.0912
   92MOL   H46242504   4.511   2.793   3.666 -0.3855 -0.0381  0.6650
   93MOL     O142505   6.880   2.341   4.573  0.0051 -0.4471 -0.3701
   93MOL     C242506   6.898   2.271   4.457  0.6242  0.1736  0.3183
   93MOL     C342507   7.011   2.337   4.384 -0.0629 -0.5649  0.1945
   93MOL     O442508   7.121   2.365   4.470  0.2623 -0.0026 -0.0314
   93MOL     C542509   7.227   2.422   4.430 -0.8452 -0.1847 -0.8760
   93MOL     O642510   7.250   2.458   4.316  0.2619  0.0616  0.7489
   93MOL     C742511   7.338   2.434   4.534  0.0629 -0.6113 -0.1308
   93MOL     C842512   7.435   2.534   4.530 -0.9814 -0.3130 -0.2630
   93MOL     C942513   7.533   2.547   4.631 -0.1649  0.1067 -0.0484
   93MOL    C1042514   7.544   2.454   4.736 -0.1991 -0.2569 -0.2407
   93MOL    C1142515   7.645   2.470   4.846 -0.8445  0.6544 -0.0844
   93MOL    O1242516   7.659   2.378   4.926  0.0998  0.4076 -0.0082
   93MOL    O1342517   7.726   2.581   4.842  0.1863 -0.8115 -0.0190
   93MOL    C1442518   7.446   2.350   4.738 -0.3560  0.2643 -0.1220
   93MOL    C1542519   7.338   2.350   4.646 -0.0473 -0.3559  0.0955
   93MOL    H1642520   6.935   2.171   4.481 -0.6951 -0.2032  0.8540
   93MOL    H1742521   6.806   2.276   4.399  1.6716  2.8558 -1.2227
   93MOL    H1842522   6.979   2.437   4.355 -0.0877 -1.2572 -2.3659
   93MOL    H1942523   7.031   2.279   4.293 -1.6344  0.3162 -0.7347
   93MOL    H2042524   7.423   2.606   4.450  0.8883 -1.3866 -1.5435
   93MOL    H2142525   7.605   2.624   4.607 -0.0963  0.0863  0.0926
   93MOL    H2242526   7.442   2.277   4.817 -1.0217  0.0439 -0.3581
   93MOL    H2342527   7.255   2.281   4.656 -0.6716  0.7297  2.7560
   93MOL    H2442528   6.964   2.339   4.618 -0.3179  1.8596  0.4007
   93MOL    O2542529   7.793   2.616   4.970  0.7474 -0.2357 -0.6130
   93MOL    C2642530   7.928   2.633   4.937  0.6650 -0.0628  0.3481
   93MOL    C2742531   7.998   2.662   5.066  0.3995 -0.2513 -0.0271
   93MOL    O2842532   8.101   2.565   5.085 -0.6353 -0.3676 -0.4092
   93MOL    C2942533   8.071   2.447   5.145 -0.0692 -0.2467  0.4396
   93MOL    O3042534   7.959   2.415   5.183 -0.2456 -0.1057  0.0762
   93MOL    C3142535   8.187   2.355   5.163  0.2902  0.0566 -0.1196
   93MOL    C3242536   0.045   2.401   5.165 -0.3126 -0.0131  0.4472
   93MOL    C3342537   0.149   2.313   5.199 -0.2027  0.5471  0.0145
   93MOL    C3442538   0.125   2.176   5.221 -0.1926 -0.1537  0.0705
   93MOL    C3542539   0.237   2.082   5.244  0.2608 -0.1906 -0.0449
   93MOL    O3642540   0.235   1.964   5.213 -0.5861  0.3890 -0.2034
   93MOL    O3742541   0.342   2.143   5.304 -0.2927  0.1786  0.3223
   93MOL    C3842542   8.265   2.128   5.215  0.3090 -0.2862 -0.7978
   93MOL    C3942543   8.161   2.218   5.186 -0.8283  0.6896  0.0270
   93MOL    H4042544   7.972   2.543   4.894  0.7056  0.2426 -0.2628
   93MOL    H4142545   7.929   2.716   4.867 -0.4227  0.0431  0.4501
   93MOL    H4242546   7.936   2.667   5.155 -0.5221  2.5203 -0.7769
   93MOL    H4342547   8.029   2.766   5.054 -0.2963 -0.0687 -0.2349
   93MOL    H4442548   0.066   2.505   5.143  0.6834 -0.1088  0.9601
   93MOL    H4542549   0.252   2.347   5.192 -0.2704  0.7396 -0.0410
   93MOL    H4642550   8.245   2.023   5.230 -1.4719  0.1732  0.1106
   93MOL    H4742551   8.058   2.185   5.186 -0.4095 -0.7064  2.5195
   93MOL    O4842552   0.463   2.059   5.328 -0.3980 -0.6355  0.0616
   93MOL    C4942553   0.479   2.037   5.468 -0.0977  0.4242 -0.4252
   93MOL    C5042554   0.625   1.980   5.488 -0.0485  0.4267  0.4608
   93MOL    O5142555   0.640   1.899   5.597  0.2559 -0.2773 -0.2121
   93MOL    C5242556   0.657   1.959   5.719  0.2051 -0.1122 -0.5684
   93MOL    O5342557   0.657   2.081   5.737 -0.4650  0.1777 -0.4436
   93MOL    C5442558   0.670   1.871   5.837  0.3069 -0.3642 -0.8924
   93MOL    C5542559   0.711   1.740   5.826  0.3254 -0.9193 -0.3241
   93MOL    C5642560   0.731   1.654   5.945 -0.1060 -0.1186 -0.0390
   93MOL    C5742561   0.704   1.713   6.070  0.2362  0.3736 -0.3037
   93MOL    C5842562   0.745   1.635   6.196  0.2585 -0.4478  0.1065
   93MOL    O5942563   0.700   1.663   6.308 -0.4895  0.3172  0.0306
   93MOL    O6042564   0.841   1.540   6.172 -0.6376 -0.5538  0.0759
   93MOL    C6142565   0.654   1.844   6.082 -0.4677 -0.8928 -0.2935
   93MOL    C6242566   0.638   1.925   5.966 -0.3743  0.4259  0.2390
   93MOL    H6342567   0.461   2.121   5.535  1.1251 -0.3354  0.8927
   93MOL    H6442568   0.412   1.960   5.507 -0.3358  0.7513 -0.1908
   93MOL    H6542569   0.690   2.067   5.494 -2.2264  2.1367  0.1991
   93MOL    H6642570   0.660   1.915   5.408 -1.3591 -2.5499  2.1921
   93MOL    H6742571   0.724   1.700   5.727 -2.4236 -0.9109 -0.7182
   93MOL    H6842572   0.774   1.555   5.936  0.1308 -0.2259  2.0326
   93MOL    H6942573   0.627   1.880   6.180 -1.0078 -0.1990 -0.6971
   93MOL    H7042574   0.620   2.032   5.965 -0.7409  0.3612 -0.5394
   93MOL    O7142575   0.863   1.447   6.294 -0.6563 -0.3311  0.0638
   93MOL    C7242576   0.796   1.324   6.269 -0.3668 -1.0319 -0.0902
   93MOL    C7342577   0.640   1.335   6.295 -0.3093 -0.3076 -0.1256
   93MOL    O7442578   0.573   1.349   6.175 -0.5892 -0.5006  0.0196
   93MOL    C7542579   0.496   1.250   6.125  0.1012  1.4200 -0.0691
   93MOL    O7642580   0.479   1.147   6.192 -0.4431 -0.2277  0.2043
   93MOL    C7742581   0.439   1.286   5.991  0.2913  0.6572 -0.3444
   93MOL    C7842582   0.356   1.195   5.917  0.0549 -0.0381  0.1665
   93MOL    C7942583   0.302   1.227   5.793 -0.7466 -0.0878  0.1290
   93MOL    C8042584   0.325   1.357   5.737  0.8358  0.4452  0.1856
   93MOL    C8142585   0.268   1.391   5.603  0.2715  0.1045 -0.4755
   93MOL    O8242586   0.195   1.308   5.539  0.4398 -0.4722  0.0407
   93MOL    O8342587   0.299   1.522   5.558 -0.3047 -0.4854  0.2831
   93MOL    C8442588   0.396   1.452   5.817 -0.4533 -0.1847  0.7574
   93MOL    C8542589   0.466   1.413   5.928 -0.2775 -0.1508  0.6472
   93MOL    H8642590   0.806   1.290   6.166  1.1602 -1.4488  0.1856
   93MOL    H8742591   0.843   1.255   6.340  0.2256  1.4732  2.0356
   93MOL    H8842592   0.627   1.431   6.344 -1.1915 -0.6456  0.3031
   93MOL    H8942593   0.600   1.254   6.356  0.7445 -1.6450 -1.1621
   93MOL    H9042594   0.338   1.097   5.959 -1.7183  0.2413  0.1199
   93MOL    H9142595   0.234   1.168   5.733  0.5883 -0.3254 -1.1924
   93MOL    H9242596   0.430   1.544   5.772  1.1862 -1.0523  0.1920
   93MOL    H9342597   0.522   1.488   5.981 -1.3329  1.4176 -0.4145
   93MOL    O9442598   0.247   1.541   5.417  0.2141  0.2830 -0.7658
   93MOL    C9542599   0.134   1.629   5.422 -1.6350  0.0272  0.2939
   93MOL    C9642600   0.172   1.760   5.495 -0.1700 -0.0020 -0.3381
   93MOL    O9742601   0.050   1.825   5.522  0.2285 -0.0142 -0.2694
   93MOL    C9842602   0.034   1.953   5.540  0.2214  0.1273 -0.4234
   93MOL    O9942603   0.126   2.034   5.549  0.1856  0.3062  0.0118
   93MOL   C10042604   8.168   1.980   5.578  0.5388 -0.7920  0.0717
   93MOL   C10142605   8.103   2.098   5.539  0.2637 -0.2796 -0.3554
   93MOL   C10242606   7.970   2.117   5.576 -0.3149  0.5225 -0.7897
   93MOL   C10342607   7.896   2.025   5.651  0.4745 -0.0300  0.4042
   93MOL   C10442608   7.753   2.046   5.680 -0.2546 -0.3074  0.7579
   93MOL   O10542609   7.685   1.972   5.748 -0.0124 -0.2145  0.3120
   93MOL   O10642610   7.714   2.174   5.642 -0.8183 -0.2864  0.0339
   93MOL   C10742611   7.958   1.901   5.681  0.5275 -0.7507 -0.7145
   93MOL   C10842612   8.095   1.883   5.647  0.2584 -0.0230  0.1969
   93MOL   H10942613   0.105   1.657   5.321 -0.8677 -2.5233 -0.6904
   93MOL   H11042614   0.055   1.570   5.469 -0.1666 -1.6619  0.7267
   93MOL   H11142615   0.226   1.825   5.425  2.7361 -1.2455  0.6649
   93MOL   H11242616   0.246   1.751   5.574 -0.0301 -0.3549 -0.5086
   93MOL   H11342617   8.159   2.164   5.474 -0.2373 -0.9137 -1.4535
   93MOL   H11442618   7.921   2.209   5.549 -0.2150  0.6292 -0.6072
   93MOL   H11542619   7.899   1.826   5.732  1.2713 -0.0909  1.1848
   93MOL   H11642620   8.144   1.790   5.672 -0.4371 -0.2612  0.6809
   93MOL   O11742621   7.573   2.209   5.686  0.0066  0.2221  0.2186
   93MOL   C11842622   7.576   2.300   5.796 -0.5359  0.0236  0.1019
   93MOL   C11942623   7.433   2.346   5.845 -0.2155  0.3440  0.0425
   93MOL   O12042624   7.386   2.461   5.773  0.2371  0.5622  0.2364
   93MOL   C12142625   7.374   2.578   5.836  0.1192 -0.9728 -0.8376
   93MOL   O12242626   7.390   2.590   5.957  0.6658  0.0077 -0.1926
   93MOL   C12342627   7.348   2.692   5.747  0.2803 -0.0644 -0.2947
   93MOL   C12442628   7.354   2.677   5.608 -0.3553 -0.6170 -0.2034
   93MOL   C12542629   7.337   2.788   5.523 -0.3283  0.2151 -0.1521
   93MOL   C12642630   7.298   2.911   5.581  0.2684  0.3601  0.7178
   93MOL   C12742631   7.253   3.026   5.493  0.1978  0.4888 -0.1563
   93MOL   O12842632   7.172   3.111   5.529 -0.6960 -1.0570 -0.1373
   93MOL   O12942633   7.323   3.024   5.373 -0.7204  0.3755  0.7024
   93MOL   C13042634   7.296   2.927   5.726 -0.6310  0.3792  0.6572
   93MOL   C13142635   7.308   2.811   5.807 -0.4621 -0.0431 -0.0365
   93MOL   H13242636   7.635   2.252   5.874  3.0388  1.9621 -1.2738
   93MOL   H13342637   7.640   2.383   5.766 -2.4567  1.4816 -0.0407
   93MOL   H13442638   7.440   2.363   5.953  0.9818 -2.1368  0.3963
   93MOL   H13542639   7.353   2.274   5.830 -0.7795  1.1805 -0.9658
   93MOL   H13642640   7.375   2.579   5.566 -2.5607 -1.3845  0.4355
   93MOL   H13742641   7.335   2.772   5.416 -0.6904 -2.5944  0.2344
   93MOL   H13842642   7.276   3.017   5.783 -3.1588  0.2664  0.0358
   93MOL   H13942643   7.308   2.820   5.915 -1.6049 -0.7949  0.0358
   93MOL   O14042644   7.285   3.140   5.275 -0.3666 -0.6300  0.5012
   93MOL   C14142645   7.200   3.079   5.177 -0.0129  0.0768 -0.7437
   93MOL   C14242646   7.151   3.198   5.091  0.0165  0.3102  0.0914
   93MOL   O14342647   7.249   3.245   5.011  0.0999  0.3643 -0.5883
   93MOL   C14442648   7.276   3.379   5.021  0.4783 -0.1585 -0.6104
   93MOL   O14542649   7.237   3.458   5.109  0.4913 -0.2750 -0.3897
   93MOL   C14642650   7.353   3.421   4.902 -0.0338 -0.4418  0.3891
   93MOL   C14742651   7.350   3.559   4.863  0.3170  0.0808  0.4080
   93MOL   C14842652   7.396   3.599   4.733  0.2031  0.6849 -0.7448
   93MOL   C14942653   7.442   3.498   4.641 -0.3603  0.1686  0.1246
   93MOL   C15042654   7.478   3.541   4.505 -0.1339  0.1559  0.6932
   93MOL   O15142655   7.466   3.654   4.464 -0.1618  0.4576  0.0447
   93MOL   O15242656   7.501   3.438   4.425 -0.4619 -0.3639  0.1259
   93MOL   C15342657   7.441   3.365   4.689 -0.3997  0.1680  0.2340
   93MOL   C15442658   7.401   3.322   4.817 -0.7167  0.5661 -0.0792
   93MOL   H15542659   7.252   2.999   5.125  0.4880 -0.3831  0.4421
   93MOL   H15642660   7.113   3.039   5.230  0.7977  0.5141  0.9613
   93MOL   H15742661   7.105   3.283   5.141 -0.6859  1.4577 -2.4590
   93MOL   H15842662   7.066   3.159   5.035  0.9282 -2.5987  0.6530
   93MOL   H15942663   7.327   3.636   4.935  3.0013 -1.7524  3.3748
   93MOL   H16042664   7.389   3.696   4.687 -0.2971  0.1688 -1.7754
   93MOL   H16142665   7.471   3.294   4.614  3.4038  1.0487  0.7778
   93MOL   H16242666   7.415   3.218   4.842  0.5497  0.7957  0.2160
   93MOL   O16342667   7.519   3.474   4.282 -0.0667 -0.1223 -0.3093
   93MOL   C16442668   7.434   3.400   4.201 -0.0644  0.0465  0.2896
   93MOL   C16542669   7.421   3.469   4.068  0.2894 -0.6805 -0.0495
   93MOL   O16642670   7.302   3.550   4.050  0.2849  0.7073 -0.0728
   93MOL   C16742671   7.303   3.681   4.084  0.5824  0.1573 -0.8046
   93MOL   O16842672   7.401   3.743   4.124  0.0138  0.0058  0.4027
   93MOL   C16942673   7.168   3.743   4.067 -0.3850 -0.4564  0.1340
   93MOL   C17042674   7.047   3.674   4.035 -0.3203 -0.4622  0.2742
   93MOL   C17142675   6.926   3.739   4.036  0.5099  0.3773  1.0214
   93MOL   C17242676   6.909   3.875   4.051  0.5629  0.5929  0.0598
   93MOL   C17342677   6.776   3.935   4.031 -1.0781 -0.6372 -0.6546
   93MOL   O17442678   6.764   4.058   4.017 -0.5132  0.4643  0.5046
   93MOL   O17542679   6.674   3.851   4.039 -0.1811  0.6216 -0.2920
   93MOL   C17642680   7.023   3.947   4.084 -0.5520 -0.1958  0.2300
   93MOL   C17742681   7.152   3.886   4.089 -0.5002 -0.3019  0.0923
   93MOL   H17842682   7.451   3.293   4.196 -0.8659 -0.0931  0.4594
   93MOL   H17942683   7.335   3.410   4.245 -0.1523 -0.6912  0.2534
   93MOL   H18042684   7.416   3.389   3.995 -0.4675  0.5699 -1.3883
   93MOL   H18142685   7.513   3.508   4.023  0.2106 -2.1690 -1.5372
   93MOL   H18242686   7.052   3.569   4.010 -2.6915 -0.8041  1.1437
   93MOL   H18342687   6.842   3.676   4.009  0.0282  2.8329 -3.7341
   93MOL   H18442688   7.025   4.053   4.104  0.3992 -0.3824  1.1784
   93MOL   H18542689   7.237   3.948   4.115 -0.1875 -0.6666 -0.0620
   93MOL   O18642690   6.547   3.916   3.994  0.4703  0.0191  0.0258
   93MOL   C18742691   6.449   3.926   4.101 -0.2767 -0.1126 -0.5412
   93MOL   C18842692   6.343   3.814   4.102  0.0345  0.1496  0.5646
   93MOL   O18942693   6.354   3.743   4.221  0.4237 -0.3141  0.0085
   93MOL   C19042694   6.440   3.640   4.240  0.9743 -0.4587  1.1115
   93MOL   O19142695   6.523   3.601   4.158 -0.1811 -0.0679 -0.3488
   93MOL   C19242696   6.413   3.577   4.369  0.2776 -0.0694  0.6271
   93MOL   C19342697   6.313   3.621   4.457  0.0060 -0.6479  0.0206
   93MOL   C19442698   6.272   3.545   4.569  0.0218  0.4504 -0.2017
   93MOL   C19542699   6.349   3.428   4.602 -0.7613 -0.6015 -0.0093
   93MOL   C19642700   6.310   3.355   4.721  0.3252  0.7025  0.0531
   93MOL   O19742701   6.189   3.350   4.759 -0.0590  0.3589  0.0961
   93MOL   O19842702   6.406   3.287   4.780  0.4267  0.4806  0.3984
   93MOL   C19942703   6.462   3.391   4.523 -0.3614  0.3732  0.0263
   93MOL   C20042704   6.489   3.464   4.407 -0.0702 -0.2862 -0.9692
   93MOL   H20142705   6.486   3.950   4.201  0.0130 -0.1517 -0.6370
   93MOL   H20242706   6.394   4.019   4.087 -2.7173 -1.4130  0.1800
   93MOL   H20342707   6.363   3.747   4.018  0.1542  0.9585 -0.0654
   93MOL   H20442708   6.245   3.862   4.091  0.4857  1.8017  3.2593
   93MOL   H20542709   6.250   3.707   4.441  0.2477 -0.5387 -0.3599
   93MOL   H20642710   6.198   3.586   4.636  2.0967  2.2685  1.0562
   93MOL   H20742711   6.516   3.304   4.557  0.7928  1.9291  2.2770
   93MOL   H20842712   6.562   3.427   4.337  0.7539  0.6108 -0.6038
   93MOL   O20942713   6.377   3.230   4.919 -0.1990 -0.0854  0.3239
   93MOL   C21042714   6.449   3.308   5.018 -0.1870  0.0720  0.3774
   93MOL   C21142715   6.458   3.225   5.144  0.2750  0.7576  0.7964
   93MOL   O21242716   6.472   3.304   5.255 -0.7968  0.0773 -0.4623
   93MOL   C21342717   6.499   3.247   5.378  0.1860  0.4973 -0.2248
   93MOL   O21442718   6.500   3.125   5.397 -0.0798 -0.0261 -0.2092
   93MOL   C21542719   6.519   3.348   5.485  0.1223 -0.0674 -0.1950
   93MOL   C21642720   6.516   3.489   5.456  0.4895  0.4112  0.2468
   93MOL   C21742721   6.545   3.590   5.552 -0.8364 -0.0818 -0.0125
   93MOL   C21842722   6.585   3.553   5.678 -0.1449  0.2137 -0.3474
   93MOL   C21942723   6.620   3.661   5.781  0.3352 -0.2050  0.5871
   93MOL   O22042724   6.613   3.776   5.743 -0.6096  0.2308 -0.0580
   93MOL   O22142725   6.657   3.625   5.905 -0.5060 -0.6490 -0.2005
   93MOL   C22242726   6.577   3.410   5.712  0.2961  0.1768  0.8091
   93MOL   C22342727   6.546   3.312   5.616 -0.2606  0.1364 -0.1060
   93MOL   H22442728   6.552   3.325   4.986  0.0094 -2.7016 -0.5750
   93MOL   H22542729   6.396   3.403   5.028 -0.6864 -0.1554 -0.0936
   93MOL   H22642730   6.538   3.151   5.144  0.9908  1.5149 -0.7756
   93MOL   H22742731   6.363   3.171   5.147  1.0273 -0.8096 -1.6026
   93MOL   H22842732   6.510   3.521   5.353  0.8305 -0.6684 -0.1187
   93MOL   H22942733   6.559   3.695   5.532  0.4199 -0.4797 -1.2797
   93MOL   H23042734   6.608   3.377   5.811  2.9109 -2.3882 -0.7960
   93MOL   H23142735   6.564   3.209   5.641 -0.1783  0.3746  0.8464
   93MOL   O23242736   6.716   3.742   5.983  0.3615  0.0578 -0.0463
   93MOL   C23342737   6.855   3.740   5.960  0.1527 -0.1109  0.1804
   93MOL   C23442738   6.921   3.651   6.068  0.5633 -0.3141  0.4843
   93MOL   O23542739   6.891   3.516   6.043 -0.0647  0.0577 -0.0212
   93MOL   C23642740   6.953   3.446   5.950 -0.4550 -0.3003  0.5434
   93MOL   O23742741   7.052   3.492   5.895 -0.0656  0.2291  0.2779
   93MOL   C23842742   6.901   3.312   5.925  0.4290  0.5069 -0.2635
   93MOL   C23942743   6.793   3.254   5.997 -0.2380  0.5487 -0.3324
   93MOL   C24042744   6.741   3.131   5.952 -0.5957  0.9319  0.1603
   93MOL   C24142745   6.806   3.059   5.853 -0.1553 -0.1929 -0.3769
   93MOL   C24242746   6.761   2.922   5.820  0.3500  0.6588 -0.0820
   93MOL   O24342747   6.798   2.863   5.719 -0.0047  0.0933 -0.1467
   93MOL   O24442748   6.673   2.875   5.909 -0.1273  0.2336 -0.4568
   93MOL   C24542749   6.917   3.112   5.785 -0.4896  1.0562  0.2094
   93MOL   C24642750   6.966   3.239   5.824  0.2486  0.1566  0.2465
   93MOL   H24742751   6.895   3.722   5.860  0.4660 -0.9483  0.4476
   93MOL   H24842752   6.879   3.842   5.988 -0.0724 -0.2981  1.0828
   93MOL   H24942753   6.870   3.664   6.163 -0.8046 -1.2157 -0.1082
   93MOL   H25042754   7.027   3.674   6.079  1.4367 -2.8778 -1.9751
   93MOL   H25142755   6.740   3.308   6.074  1.3544 -0.4760  1.5573
   93MOL   H25242756   6.658   3.087   6.004 -0.5084  1.4990  0.7943
   93MOL   H25342757   6.972   3.058   5.709  2.7439  2.5993  1.3712
   93MOL   H25442758   7.053   3.284   5.779  0.6295  0.6232  1.4343
   93MOL   O25542759   6.624   2.731   5.888  0.1861  0.2633 -0.1831
   93MOL   C25642760   6.500   2.740   5.826  0.0197 -0.1261 -0.0841
   93MOL   C25742761   6.408   2.641   5.895 -0.1840  0.1146  0.7030
   93MOL   O25842762   6.376   2.521   5.819  0.1488  0.2831 -0.0129
   93MOL   C25942763   6.263   2.462   5.827  0.9297 -0.0736 -0.1040
   93MOL   O26042764   6.167   2.521   5.874  0.0180 -0.5628  0.0955
   93MOL   C26142765   6.256   2.318   5.779  0.6143 -0.2146 -0.1379
   93MOL   C26242766   6.373   2.247   5.739  0.3642  0.3817  0.0664
   93MOL   C26342767   6.360   2.110   5.697  0.4120 -0.1548  0.1174
   93MOL   C26442768   6.233   2.049   5.677 -0.0735 -0.3387  0.5429
   93MOL   C26542769   6.217   1.908   5.641 -0.2224  0.1252 -0.5369
   93MOL   O26642770   6.107   1.860   5.615 -0.2497  0.1177  0.0081
   93MOL   O26742771   6.329   1.838   5.633  0.3106 -0.3117 -0.7191
   93MOL   C26842772   6.120   2.121   5.718 -0.1093  0.4407  0.5722
   93MOL   C26942773   6.130   2.252   5.759  0.5960  0.1278 -0.0690
   93MOL   H27042774   6.459   2.841   5.836 -2.2532 -0.9296 -0.8517
   93MOL   H27142775   6.510   2.725   5.719  4.1679  0.0646  0.2088
   93MOL   H27242776   6.320   2.701   5.920 -1.0557  0.1474 -2.2458
   93MOL   H27342777   6.445   2.599   5.989  1.3762  0.9950  0.4975
   93MOL   H27442778   6.466   2.301   5.749  0.1231  0.8462 -0.1864
   93MOL   H27542779   6.446   2.048   5.676 -0.9820 -1.4396 -1.9948
   93MOL   H27642780   6.021   2.078   5.710 -0.3093  1.2125 -1.4581
   93MOL   H27742781   6.039   2.307   5.781 -0.4705 -1.2914 -0.8462
   93MOL   O27842782   6.299   1.694   5.606 -0.0837 -0.3486  0.0587
   93MOL   C27942783   6.311   1.684   5.466  0.1687  0.1242  0.4563
   93MOL   C28042784   6.305   1.541   5.417 -0.5600  0.1262  0.0954
   93MOL   O28142785   6.168   1.509   5.420 -0.1390  0.5525  0.4362
   93MOL   C28242786   6.114   1.418   5.335 -0.2120  0.4530  0.0169
   93MOL   O28342787   6.175   1.362   5.246 -0.2449  0.6058  0.3450
   93MOL   C28442788   5.965   1.394   5.364 -0.2450 -0.3264 -0.6338
   93MOL   C28542789   5.895   1.494   5.439 -0.4911  0.3970 -0.5141
   93MOL   C28642790   5.759   1.468   5.460 -0.5171  0.2881  0.2074
   93MOL   C28742791   5.693   1.364   5.393 -0.2589 -0.2909  0.1032
   93MOL   C28842792   5.543   1.355   5.402 -0.5414 -0.6384 -0.0837
   93MOL   O28942793   5.471   1.455   5.428  0.1806  0.2963  0.1354
   93MOL   O29042794   5.506   1.232   5.363 -0.1872 -0.2886  0.1165
   93MOL   C29142795   5.761   1.270   5.312  0.4518 -0.4031 -0.1373
   93MOL   C29242796   5.899   1.287   5.298 -0.4489  0.2268  0.1145
   93MOL   H29342797   6.258   1.754   5.401  2.4603 -0.0996 -1.7103
   93MOL   H29442798   6.414   1.714   5.448  0.7377 -2.0696 -0.1072
   93MOL   H29542799   6.365   1.487   5.491  1.2318  0.2018 -1.2571
   93MOL   H29642800   6.343   1.540   5.315 -0.8994 -1.1458 -0.0270
   93MOL   H29742801   5.943   1.584   5.473  1.7145 -1.3985  1.3191
   93MOL   H29842802   5.714   1.550   5.515 -1.9490  2.5652 -4.0306
   93MOL   H29942803   5.722   1.187   5.255  0.3646 -1.8326  1.9575
   93MOL   H30042804   5.951   1.210   5.243 -1.0157 -0.2425  0.2282
   93MOL   O30142805   5.357   1.206   5.367  0.5192 -0.6419 -0.3470
   93MOL   C30242806   5.302   1.226   5.237 -0.8821  0.3551 -0.3570
   93MOL   C30342807   5.157   1.261   5.229 -0.3683 -0.3980  0.3454
   93MOL   O30442808   5.144   1.381   5.298  0.3193 -0.1299  0.2662
   93MOL   C30542809   5.156   1.503   5.237 -0.4596  0.4236  0.2937
   93MOL   O30642810   5.167   1.515   5.116  0.1775 -0.4158 -0.3769
   93MOL   C30742811   5.139   1.617   5.329  0.6214 -0.1679 -0.9315
   93MOL   C30842812   5.171   1.744   5.282  0.2657 -0.0346 -0.1969
   93MOL   C30942813   5.167   1.848   5.373 -0.0670 -0.1376  0.1338
   93MOL   C31042814   5.138   1.833   5.513  0.4334  0.1972  0.2144
   93MOL   C31142815   5.153   1.954   5.606 -0.5965 -0.0019  0.4228
   93MOL   O31242816   5.122   1.938   5.726  0.1471 -0.2585 -0.4163
   93MOL   O31342817   5.227   2.058   5.545 -0.6243  0.1937  0.0344
   93MOL   C31442818   5.099   1.705   5.555  0.0463  0.2297  0.2513
   93MOL   C31542819   5.097   1.595   5.465  0.4227 -0.4696  0.9006
   93MOL   H31642820   5.353   1.305   5.182 -0.5874 -0.8202 -1.8073
   93MOL   H31742821   5.315   1.129   5.187  0.2216 -0.1602  0.8816
   93MOL   H31842822   5.090   1.190   5.278  0.4231 -0.2219  1.6933
   93MOL   H31942823   5.133   1.262   5.122 -0.6713  0.8556  0.4247
   93MOL   H32042824   5.208   1.757   5.182  4.1676  1.0510  1.3042
   93MOL   H32142825   5.212   1.940   5.338 -2.2398 -0.0974 -2.8000
   93MOL   H32242826   5.082   1.689   5.661 -2.3897  0.1850 -0.1041
   93MOL   H32342827   5.080   1.493   5.496 -0.3408 -0.0711  1.8474
   93MOL   O32442828   5.295   2.144   5.641 -0.6350 -0.1969 -0.6773
   93MOL   C32542829   5.429   2.102   5.642  0.1972  0.5695  0.5133
   93MOL   C32642830   5.517   2.204   5.709 -0.0287  0.0149  0.2877
   93MOL   O32742831   5.597   2.258   5.607  0.6563  0.6984  0.0251
   93MOL   C32842832   5.639   2.386   5.623 -0.3769  0.1016 -0.2660
   93MOL   O32942833   5.618   2.451   5.729 -0.1117 -0.1836  0.1117
   93MOL   C33042834   5.716   2.435   5.507 -0.6206  0.1643 -0.0002
   93MOL   C33142835   5.695   2.383   5.377  0.0429  0.4871  0.3251
   93MOL   C33242836   5.757   2.445   5.265 -0.3144  0.3029  0.0625
   93MOL   C33342837   5.843   2.554   5.282 -0.0106 -0.0166  0.1657
   93MOL   C33442838   5.897   2.629   5.165 -0.0025  0.7306 -0.2966
   93MOL   O33542839   5.931   2.744   5.174 -0.8828  0.7197 -0.0531
   93MOL   O33642840   5.895   2.564   5.047  1.2150 -0.3178 -0.0477
   93MOL   C33742841   5.859   2.606   5.412 -0.0279 -0.4528  0.5406
   93MOL   C33842842   5.801   2.547   5.523  0.5106 -0.2727 -0.8176
   93MOL   H33942843   5.444   2.018   5.709 -3.0387  0.9015  1.7709
   93MOL   H34042844   5.463   2.060   5.548 -1.5089 -0.5649  0.3883
   93MOL   H34142845   5.581   2.151   5.780 -0.0340  1.8875  1.7182
   93MOL   H34242846   5.469   2.286   5.762  0.4468  0.7702 -0.4412
   93MOL   H34342847   5.651   2.285   5.375  2.1559 -0.6369  3.7640
   93MOL   H34442848   5.742   2.398   5.169 -2.8225  0.4031  0.3665
   93MOL   H34542849   5.914   2.696   5.435 -2.6881  1.1101  1.0693
   93MOL   H34642850   5.811   2.587   5.623 -1.7614  0.6830 -0.9508
   93MOL   O34742851   5.897   2.656   4.926  0.1250  0.5717  0.4241
   93MOL   C34842852   6.035   2.678   4.882 -0.0312 -0.4094  0.2875
   93MOL   C34942853   6.086   2.542   4.829  0.1729 -0.1244 -0.0283
   93MOL   O35042854   6.218   2.558   4.782 -0.1503  0.5209  0.6456
   93MOL   C35142855   6.250   2.593   4.655 -0.0889  1.0588 -0.1776
   93MOL   O35242856   6.157   2.622   4.575  0.0636  0.0195  0.7203
   93MOL   C35342857   6.399   2.606   4.633  0.0470 -0.6118 -0.3928
   93MOL   C35442858   6.446   2.635   4.507 -0.4698 -0.2340 -0.3169
   93MOL   C35542859   6.583   2.654   4.474  0.3207  0.3908 -0.9313
   93MOL   C35642860   6.681   2.642   4.575  0.8945  0.5355 -0.3027
   93MOL   C35742861   6.825   2.680   4.545  0.8079 -0.2956 -0.0105
   93MOL   O35842862   6.904   2.719   4.629 -0.2523  0.1246  0.1950
   93MOL   O35942863   6.856   2.663   4.418 -0.8468  0.6905  0.3488
   93MOL   C36042864   6.637   2.626   4.707 -0.1305  0.0858  0.1465
   93MOL   C36142865   6.494   2.609   4.741 -0.8094  0.0465  0.5647
   93MOL   H36242866   6.031   2.745   4.796 -0.3382  1.2625  1.5798
   93MOL   H36342867   6.110   2.717   4.951 -1.0881 -2.0231  2.3959
   93MOL   H36442868   6.017   2.504   4.754 -0.1537  0.2018  0.1059
   93MOL   H36542869   6.076   2.469   4.910 -1.3571  1.4804  1.2604
   93MOL   H36642870   6.371   2.647   4.430  0.4281 -0.5998 -1.2775
   93MOL   H36742871   6.604   2.671   4.369  0.6559 -0.7388 -1.0544
   93MOL   H36842872   6.711   2.628   4.786  0.0122 -0.2137  0.0173
   93MOL   H36942873   6.476   2.597   4.846  2.1075  0.0106  1.1000
   93MOL   O37042874   6.990   2.729   4.375 -0.3737  0.2442 -0.0494
   93MOL   C37142875   6.954   2.827   4.278  0.7065  0.3163 -0.0397
   93MOL   C37242876   6.926   2.965   4.335 -0.4476  0.3257 -0.3169
   93MOL   O37342877   6.805   2.979   4.417  0.0082 -0.5864 -0.2794
   93MOL   C37442878   6.684   2.988   4.356  0.4354 -0.3843  0.1073
   93MOL   O37542879   6.665   2.980   4.231 -0.0356 -0.2937 -1.1312
   93MOL   C37642880   6.572   3.002   4.451 -0.5831 -0.0445 -0.8005
   93MOL   C37742881   6.573   2.962   4.582  0.0749 -0.0248  0.4939
   93MOL   C37842882   6.457   2.972   4.663 -0.1829 -0.2288  0.7724
   93MOL   C37942883   6.335   3.024   4.603 -0.0919  0.6453  0.4233
   93MOL   C38042884   6.205   3.018   4.678  0.4703  0.3716  0.2393
   93MOL   O38142885   6.190   2.967   4.786 -0.3139  0.0428  0.3175
   93MOL   O38242886   6.094   3.047   4.601  0.2072 -0.4023  0.0312
   93MOL   C38342887   6.337   3.061   4.463  0.2466  0.2082 -0.3366
   93MOL   C38442888   6.454   3.049   4.393 -1.1543  0.1027  0.9561
   93MOL   H38542889   7.036   2.839   4.207  0.0723 -1.2848 -1.0710
   93MOL   H38642890   6.874   2.800   4.209  1.1108  0.4597 -0.5649
   93MOL   H38742891   6.931   3.040   4.256 -0.2001  1.0342  0.3672
   93MOL   H38842892   7.002   3.000   4.405 -2.4168  4.1769  0.0032
   93MOL   H38942893   6.664   2.925   4.627 -0.2248 -0.3810  0.8174
   93MOL   H39042894   6.455   2.939   4.765  2.3384 -4.3071 -0.3557
   93MOL   H39142895   6.245   3.088   4.413  0.2139 -0.7368 -0.7898
   93MOL   H39242896   6.457   3.063   4.286 -3.0176 -1.1658  0.7115
   93MOL   O39342897   5.965   3.016   4.673 -0.7327  0.4835 -0.8752
   93MOL   C39442898   5.887   3.137   4.682  0.1468  0.3505  0.5310
   93MOL   C39542899   5.904   3.202   4.819 -0.6423 -0.2085  0.0393
   93MOL   O39642900   5.792   3.194   4.908 -0.2540  0.4059  0.1135
   93MOL   C39742901   5.757   3.079   4.971  0.3242 -0.3575  0.1784
   93MOL   O39842902   5.820   2.967   4.960 -0.4847  0.0021 -0.2584
   93MOL   C39942903   5.625   3.095   5.035  0.6891  0.1679  0.7977
   93MOL   C40042904   5.567   3.223   5.044  0.1834 -0.5154 -0.5624
   93MOL   C40142905   5.436   3.233   5.098  0.0479 -0.1767 -0.2986
   93MOL   C40242906   5.367   3.123   5.142 -0.0469  0.8719 -0.2072
   93MOL   C40342907   5.221   3.128   5.195 -0.4304  0.8169  0.3953
   93MOL   O40442908   5.164   3.230   5.230 -0.0331  0.3203 -0.0586
   93MOL   O40542909   5.172   3.006   5.196  0.4743 -0.3532 -0.3246
   93MOL   C40642910   5.433   2.997   5.142 -0.0143  0.4526 -0.0097
   93MOL   C40742911   5.560   2.980   5.089 -0.1259 -0.6359 -0.6052
   93MOL   H40842912   5.917   3.201   4.599  1.4841  1.4675  1.8558
   93MOL   H40942913   5.780   3.117   4.669  0.7223 -1.4850 -1.6669
   93MOL   H41042914   5.920   3.309   4.806  1.6899 -0.6091 -0.5036
   93MOL   H41142915   5.997   3.166   4.863  0.4066  1.7913 -0.4776
   93MOL   H41242916   5.626   3.309   5.017  0.5742 -1.0618 -1.4643
   93MOL   H41342917   5.385   3.328   5.098 -1.8144 -1.1540 -1.0454
   93MOL   H41442918   5.384   2.911   5.185  1.3785 -1.0563 -1.3844
   93MOL   H41542919   5.595   2.878   5.099 -1.0203 -0.4745  5.8041
   93MOL   O41642920   5.046   2.994   5.285  0.2113  0.3472  0.2010
   93MOL   C41742921   5.084   2.891   5.384 -0.3509  0.9151  0.2032
   93MOL   C41842922   5.050   2.756   5.335 -0.9278  0.1973 -0.1599
   93MOL   O41942923   5.156   2.708   5.255 -0.2888  0.7785  0.1622
   93MOL   C42042924   5.123   2.616   5.163 -0.5025  0.6588 -0.4858
   93MOL   O42142925   5.010   2.585   5.129  0.0525  0.2671  0.0958
   93MOL   C42242926   5.245   2.563   5.092  0.2409 -0.2807  0.8182
   93MOL   C42342927   5.376   2.613   5.102 -0.5669 -0.6659 -0.1649
   93MOL   C42442928   5.486   2.546   5.050  0.3057  0.7496 -0.9251
   93MOL   C42542929   5.466   2.434   4.964  0.0567 -0.0892  0.2885
   93MOL   C42642930   5.583   2.364   4.906  0.3373  0.0390  0.8616
   93MOL   O42742931   5.699   2.407   4.903 -0.0047  0.1570  0.5418
   93MOL   O42842932   5.555   2.228   4.884  0.0629 -0.6147 -0.1866
   93MOL   C42942933   5.325   2.393   4.938 -0.1466 -0.2892 -0.3341
   93MOL   C43042934   5.221   2.457   5.003  0.1775 -0.0769 -0.4633
   93MOL   H43142935   5.187   2.893   5.417 -0.0428  0.0417 -0.6897
   93MOL   H43242936   5.016   2.918   5.465 -0.2560 -2.2701  1.3865
   93MOL   H43342937   4.963   2.771   5.271 -0.1253  1.4382 -0.9890
   93MOL   H43442938   5.039   2.675   5.406 -0.0246 -0.5235 -0.8175
   93MOL   H43542939   5.390   2.704   5.158 -0.1275  0.1103 -1.5264
   93MOL   H43642940   5.584   2.583   5.076  0.3870  1.1344 -1.7640
   93MOL   H43742941   5.314   2.305   4.876 -0.7327  0.1002 -0.7935
   93MOL   H43842942   5.125   2.409   4.986  0.7397 -1.2523 -0.3467
   93MOL   O43942943   5.679   2.154   4.844 -0.4059  0.6342  0.4231
   93MOL   C44042944   5.758   2.107   4.954  0.2076 -0.0181 -0.5425
   93MOL   C44142945   5.843   1.996   4.898  0.1023  0.3286  0.3153
   93MOL   O44242946   5.971   2.023   4.837 -0.4023 -0.2165  1.0069
   93MOL   C44342947   6.073   2.086   4.906 -0.9589 -0.3730 -0.1619
   93MOL   O44442948   6.063   2.105   5.028  0.7230 -0.0057 -0.1760
   93MOL   C44542949   6.189   2.126   4.816 -0.1604 -0.2845  0.1047
   93MOL   C44642950   6.209   2.063   4.695  0.0699 -0.1404  0.0815
   93MOL   C44742951   6.315   2.107   4.615 -0.6492 -0.5592  0.0633
   93MOL   C44842952   6.410   2.208   4.657  0.4637  0.2675 -0.8842
   93MOL   C44942953   6.526   2.240   4.567 -0.3294 -0.2999 -0.0762
   93MOL   O45042954   6.546   2.186   4.457  0.3762  0.2838  0.0406
   93MOL   O45142955   6.620   2.321   4.625  0.4057 -0.4459 -0.3626
   93MOL   C45242956   6.383   2.266   4.780 -0.5744 -0.2589  0.8785
   93MOL   C45342957   6.272   2.228   4.857 -0.3635 -0.2669  0.0470
   93MOL   H45442958   5.824   2.184   4.993  1.0093 -0.4858 -0.9672
   93MOL   H45542959   5.694   2.055   5.025  0.7182  1.3525  0.9439
   93MOL   H45642960   5.792   1.937   4.822  0.5790  3.8528 -2.8786
   93MOL   H45742961   5.864   1.930   4.983  2.4792  2.4849  1.4614
   93MOL   H45842962   6.141   1.989   4.655  2.2598 -1.1174 -1.8933
   93MOL   H45942963   6.319   2.060   4.518  0.7571  0.4587 -0.3860
   93MOL   H46042964   6.456   2.335   4.821  0.0256 -0.6627  0.4942
   93MOL   H46142965   6.261   2.288   4.946  2.7293  2.4494 -1.3105
   93MOL   H46242966   6.710   2.325   4.597  0.4538 -0.5069 -0.2161
   94MOL     O142967   0.171   4.071   2.484 -0.0952 -0.3735  0.3567
   94MOL     C242968   0.247   4.074   2.363 -0.0359 -0.3996 -0.1295
   94MOL     C342969   0.236   4.198   2.283  0.3509  0.2592 -0.0677
   94MOL     O442970   0.112   4.186   2.219  0.0002 -0.0429 -0.3675
   94MOL     C542971   0.026   4.288   2.206  0.5987 -0.1475  0.2038
   94MOL     O642972   0.054   4.407   2.237 -0.4559 -0.0368 -0.0806
   94MOL     C742973   8.170   4.239   2.147  0.8786  0.0927 -0.5720
   94MOL     C842974   8.082   4.333   2.074 -0.3222 -0.2745  0.2336
   94MOL     C942975   7.978   4.281   1.990 -0.2729 -0.6149  0.9292
   94MOL    C1042976   7.947   4.143   1.997  0.0223 -0.8114 -0.3213
   94MOL    C1142977   7.838   4.086   1.917  0.5555 -0.2561 -0.3597
   94MOL    O1242978   7.822   3.965   1.905 -0.1364  0.1744  0.2273
   94MOL    O1342979   7.766   4.177   1.851 -0.1240  0.5862  0.0097
   94MOL    C1442980   8.023   4.056   2.077 -0.5974 -0.4767 -0.6509
   94MOL    C1542981   8.130   4.104   2.153 -0.2440 -0.0020 -0.7621
   94MOL    H1642982   0.350   4.057   2.396  0.0121 -3.0854 -1.4948
   94MOL    H1742983   0.213   3.995   2.296  0.0186  1.3964 -2.3486
   94MOL    H1842984   0.304   4.229   2.204  2.3238 -0.2209  1.3961
   94MOL    H1942985   0.242   4.285   2.349  1.3992 -0.8461  1.3469
   94MOL    H2042986   8.114   4.436   2.074 -0.7557 -0.1312  1.6240
   94MOL    H2142987   7.918   4.350   1.933 -0.9052 -1.3411  0.6915
   94MOL    H2242988   7.993   3.952   2.072 -1.0047 -0.3908 -0.0563
   94MOL    H2342989   8.193   4.034   2.207 -0.0685  0.5664 -0.2287
   94MOL    H2442990   0.107   4.142   2.482 -0.9321 -1.1403 -0.4443
   94MOL    O2542991   7.661   4.118   1.759 -0.1096  0.2689  0.1067
   94MOL    C2642992   7.720   4.076   1.642  0.3001  0.1346  0.2819
   94MOL    C2742993   7.678   3.934   1.614  0.3246  0.9307  0.1746
   94MOL    O2842994   7.576   3.942   1.515  0.1208  0.3315 -0.3560
   94MOL    C2942995   7.610   3.919   1.389 -0.0010 -0.2232  0.3815
   94MOL    O3042996   7.726   3.917   1.360  0.0371  0.1471  0.2692
   94MOL    C3142997   7.493   3.905   1.295 -0.0560 -0.4887 -0.3168
   94MOL    C3242998   7.362   3.876   1.339 -0.4424  0.3294  0.5350
   94MOL    C3342999   7.260   3.856   1.244  0.4725 -0.0109 -0.8024
   94MOL    C3443000   7.286   3.876   1.107 -0.1156  0.1132  0.2693
   94MOL    C3543001   7.174   3.864   1.010  0.5022  0.6506 -0.2094
   94MOL    O3643002   7.058   3.836   1.055  0.1805  0.4351  0.0704
   94MOL    O3743003   7.203   3.881   0.882  0.6371 -0.3748 -0.0138
   94MOL    C3843004   7.420   3.909   1.064 -0.0997  0.6296  0.3953
   94MOL    C3943005   7.527   3.912   1.156  0.3515 -1.0915 -0.0035
   94MOL    H4043006   7.678   4.137   1.562 -0.6439  2.2060  2.3144
   94MOL    H4143007   7.829   4.078   1.635  0.3290  1.9455  0.9629
   94MOL    H4243008   7.646   3.879   1.702 -0.7299 -0.4068 -1.0068
   94MOL    H4343009   7.765   3.884   1.572 -1.4198 -1.3685 -0.8307
   94MOL    H4443010   7.341   3.877   1.445 -0.9277  1.6418  0.4343
   94MOL    H4543011   7.159   3.837   1.277  0.5951  0.2788 -0.2693
   94MOL    H4643012   7.437   3.930   0.960 -0.5498 -1.0726 -0.0288
   94MOL    H4743013   7.625   3.938   1.120 -0.0270  0.0907 -0.1910
   94MOL    O4843014   7.075   3.895   0.803  0.2019 -0.1239 -0.1332
   94MOL    C4943015   7.042   3.776   0.733  0.1460 -0.2660 -0.1387
   94MOL    C5043016   7.116   3.773   0.603  0.3227 -0.5200  0.0350
   94MOL    O5143017   7.227   3.684   0.613  0.0158  0.6107 -0.7478
   94MOL    C5243018   7.343   3.728   0.552 -0.3105 -0.0066 -0.8618
   94MOL    O5343019   7.352   3.838   0.496 -0.0804  0.3311  0.0281
   94MOL    C5443020   7.465   3.634   0.545 -0.7909 -0.2319  0.5372
   94MOL    C5543021   7.450   3.507   0.597  0.0337 -0.0503 -0.1366
   94MOL    C5643022   7.560   3.417   0.593  0.7950  0.1842 -0.8113
   94MOL    C5743023   7.679   3.451   0.524  0.0367  0.0240  0.3709
   94MOL    C5843024   7.792   3.365   0.519  0.9571 -0.2595  0.6261
   94MOL    O5943025   7.890   3.386   0.450 -0.6620 -0.0289  0.0915
   94MOL    O6043026   7.790   3.249   0.579  0.2136 -0.8391  0.4135
   94MOL    C6143027   7.686   3.579   0.472  0.2596  0.0840  0.4125
   94MOL    C6243028   7.581   3.669   0.481  0.2224  0.1671  0.0289
   94MOL    H6343029   7.054   3.689   0.798 -0.6016  1.4237  2.3466
   94MOL    H6443030   6.938   3.799   0.712  0.8332  2.4497 -0.8309
   94MOL    H6543031   7.133   3.879   0.587 -0.4362 -0.0464  2.1793
   94MOL    H6643032   7.054   3.736   0.521 -0.6225  2.0531 -0.4581
   94MOL    H6743033   7.354   3.476   0.635 -0.2105 -0.3324 -0.9663
   94MOL    H6843034   7.557   3.319   0.638  0.8875 -0.2631 -1.7579
   94MOL    H6943035   7.780   3.607   0.426  0.8488 -0.6376  1.1630
   94MOL    H7043036   7.589   3.771   0.447 -0.9299  1.3500  3.1105
   94MOL    O7143037   7.924   3.184   0.596 -0.3292 -0.4044  0.1908
   94MOL    C7243038   7.934   3.069   0.520  0.3024 -0.0054 -0.0968
   94MOL    C7343039   8.072   3.012   0.529  0.2937  0.1259 -0.1102
   94MOL    O7443040   8.157   3.099   0.456 -0.0708 -0.7134  0.2057
   94MOL    C7543041   0.008   3.102   0.496 -0.5132  0.2259  0.7462
   94MOL    O7643042   0.051   3.066   0.604  0.1221  0.7586 -0.6958
   94MOL    C7743043   0.102   3.159   0.389  0.0218 -0.6291  0.4433
   94MOL    C7843044   0.050   3.258   0.302 -0.9556  0.3026  0.2024
   94MOL    C7943045   0.135   3.322   0.208 -0.4920  0.5593  0.3469
   94MOL    C8043046   0.270   3.277   0.189 -0.0755  0.2284 -0.1131
   94MOL    C8143047   0.364   3.342   0.096  0.0807  0.8583  0.7118
   94MOL    O8243048   0.472   3.299   0.065  0.2373  0.6949  0.0584
   94MOL    O8343049   0.312   3.458   0.047  0.1772 -0.5915  0.5190
   94MOL    C8443050   0.315   3.163   0.262  0.1485 -0.1362  0.2918
   94MOL    C8543051   0.232   3.112   0.361 -0.3249 -0.4791 -1.0386
   94MOL    H8643052   7.858   2.998   0.553  0.2559  0.5225  0.9302
   94MOL    H8743053   7.910   3.077   0.414 -2.5099 -2.0397  0.3293
   94MOL    H8843054   8.075   2.910   0.490 -0.6829 -0.0121  0.1625
   94MOL    H8943055   8.100   3.011   0.634 -0.6377  2.4453  0.1775
   94MOL    H9043056   8.226   3.294   0.324 -0.6941  1.3637 -0.3133
   94MOL    H9143057   0.103   3.410   0.153 -0.1380  0.6479  0.2813
   94MOL    H9243058   0.413   3.123   0.242 -0.5479 -0.4090 -2.8686
   94MOL    H9343059   0.276   3.036   0.423 -0.3460  0.5200  0.2356
   94MOL    O9443060   0.415   3.527   8.239  0.0903 -0.5508  0.4713
   94MOL    C9543061   0.468   3.636   0.041  0.4375  0.1192  0.2811
   94MOL    C9643062   0.391   3.768   0.031  0.0282  0.5678 -1.3109
   94MOL    O9743063   0.411   3.848   8.195 -0.6296  0.1063  0.2698
   94MOL    C9843064   0.308   3.872   8.121 -0.0105  0.2720 -0.3116
   94MOL    O9943065   0.194   3.817   8.132 -0.2512  0.6616  0.0331
   94MOL   C10043066   0.337   3.976   8.015  0.5452 -0.0651 -0.9171
   94MOL   C10143067   0.468   4.020   7.988 -0.5300 -0.0620 -0.3745
   94MOL   C10243068   0.493   4.121   7.897 -0.0126  0.2202 -0.3985
   94MOL   C10343069   0.384   4.181   7.833 -0.9704 -0.4371  0.5753
   94MOL   C10443070   0.402   4.298   7.740  0.0865  0.5959  0.3129
   94MOL   O10543071   0.305   4.358   7.706  0.2693  0.3288  0.6772
   94MOL   O10643072   0.525   4.315   7.694  0.5153 -0.5716 -0.3649
   94MOL   C10743073   0.256   4.135   7.854 -0.3104 -0.7213 -0.3210
   94MOL   C10843074   0.234   4.032   7.945 -0.3007  0.2821 -0.0961
   94MOL   H10943075   0.476   3.606   0.146  0.5139  0.0823  0.2652
   94MOL   H11043076   0.575   3.641   0.019  0.6811 -1.3470  1.1277
   94MOL   H11143077   0.430   3.841   0.102 -0.1244 -1.1804  0.6101
   94MOL   H11243078   0.285   3.755   0.054  0.9465 -1.1121  2.2138
   94MOL   H11343079   0.548   3.978   8.047 -0.6926  2.0543  1.4516
   94MOL   H11443080   0.594   4.158   7.890  0.1058  0.1436  0.8203
   94MOL   H11543081   0.169   4.172   7.801 -0.3808  0.2185  0.4376
   94MOL   H11643082   0.139   3.984   7.961  0.2861  0.2378  3.6864
   94MOL   O11743083   0.548   4.430   7.596 -0.1138  0.0508  0.2964
   94MOL   C11843084   0.587   4.536   7.684  1.0780 -0.4110 -0.4238
   94MOL   C11943085   0.618   4.666   7.608  0.3280  0.5385 -0.4180
   94MOL   O12043086   0.746   4.653   7.547  0.4532 -0.4730  0.2416
   94MOL   C12143087   0.752   4.623   7.415 -0.4097  0.2302  0.6914
   94MOL   O12243088   0.655   4.608   7.341 -0.1860  0.2491  0.2765
   94MOL   C12343089   0.894   4.604   7.370  0.2760 -0.1497  0.1298
   94MOL   C12443090   0.919   4.556   7.242 -0.1070 -0.5595  0.2411
   94MOL   C12543091   1.052   4.553   7.186  1.0513  0.1682  0.0580
   94MOL   C12643092   1.155   4.616   7.263 -0.2384  0.0098  0.0548
   94MOL   C12743093   1.286   4.605   7.200 -0.4759  0.8300 -0.6015
   94MOL   O12843094   1.310   4.559   7.086  0.1636 -0.0274 -0.0814
   94MOL   O12943095   1.389   4.668   7.271 -0.0974  0.4357  0.3553
   94MOL   C13043096   1.127   4.674   7.389  0.1363  0.0474  0.0944
   94MOL   C13143097   1.002   4.664   7.444 -0.0322 -0.2277 -0.4129
   94MOL   H13243098   0.511   4.566   7.755  0.0134  0.6730 -1.9881
   94MOL   H13343099   0.677   4.518   7.744  0.0877 -2.3760  0.5016
   94MOL   H13443100   0.631   4.746   7.681 -1.1644 -0.6125  1.1482
   94MOL   H13543101   0.546   4.702   7.533  1.3234  0.8511 -1.2380
   94MOL   H13643102   0.834   4.515   7.190  1.4013 -0.6331 -2.2811
   94MOL   H13743103   1.077   4.512   7.089  0.7140 -0.3498  0.1881
   94MOL   H13843104   1.193   4.737   7.446 -1.1784  3.5982 -2.1419
   94MOL   H13943105   0.987   4.709   7.541  0.2411  0.1746 -0.5556
   94MOL   O14043106   1.512   4.688   7.187  0.3669  0.0355  0.2808
   94MOL   C14143107   1.595   4.582   7.208 -0.3700  0.3745  0.8723
   94MOL   C14243108   1.658   4.521   7.083 -0.0031  0.4276 -0.1072
   94MOL   O14343109   1.786   4.585   7.052 -0.1562  0.2444 -0.3532
   94MOL   C14443110   1.900   4.518   7.074 -0.0490  0.4013  0.6425
   94MOL   O14543111   1.896   4.406   7.134  0.2275  0.4707 -0.0063
   94MOL   C14643112   2.021   4.575   7.006 -0.3890  0.6948 -0.1556
   94MOL   C14743113   2.141   4.497   6.994 -0.0917  0.2787 -0.2429
   94MOL   C14843114   2.253   4.540   6.925  0.2371 -0.4798 -1.2707
   94MOL   C14943115   2.246   4.659   6.845  0.0686 -0.6478 -0.3968
   94MOL   C15043116   2.362   4.715   6.768  1.1658  0.2845  0.7470
   94MOL   O15143117   2.462   4.648   6.745 -0.4269 -0.6424 -0.3015
   94MOL   O15243118   2.345   4.842   6.714  0.3276  0.6686 -0.1815
   94MOL   C15343119   2.128   4.738   6.863  0.8312 -0.7814 -0.1812
   94MOL   C15443120   2.020   4.696   6.941  0.2670  0.1168  0.6987
   94MOL   H15543121   1.675   4.612   7.276 -0.1484  1.8091  0.0051
   94MOL   H15643122   1.536   4.501   7.252 -2.6505  1.5041 -0.0475
   94MOL   H15743123   1.585   4.534   7.004  0.9046  0.8631 -0.8754
   94MOL   H15843124   1.662   4.412   7.091  3.1027  0.3764 -1.6441
   94MOL   H15943125   2.156   4.396   7.030  1.6448  1.0740  1.3120
   94MOL   H16043126   2.342   4.480   6.933  1.2885  1.2530  0.4715
   94MOL   H16143127   2.113   4.837   6.822 -1.1003 -0.8040  0.4459
   94MOL   H16243128   1.933   4.759   6.950 -0.7383 -0.7783 -2.1348
   94MOL   O16343129   2.441   4.884   6.605 -0.3666  0.3154 -0.2351
   94MOL   C16443130   2.378   4.871   6.476  0.0667  0.4166  0.3505
   94MOL   C16543131   2.233   4.928   6.463 -0.5126 -0.4050 -0.1144
   94MOL   O16643132   2.234   5.070   6.463 -0.1459 -0.6692 -0.1292
   94MOL   C16743133   2.226   5.129   6.586  0.0432 -0.0843 -0.2417
   94MOL   O16843134   2.221   5.069   6.696  0.4296 -0.2039 -0.3715
   94MOL   C16943135   2.216   5.277   6.587  0.4210 -0.2596  0.3481
   94MOL   C17043136   2.179   5.350   6.466 -0.0583 -0.5895  0.5150
   94MOL   C17143137   2.158   5.486   6.474 -0.2407  0.7776  0.1489
   94MOL   C17243138   2.181   5.559   6.589 -0.5731 -0.2174 -0.5640
   94MOL   C17343139   2.167   5.712   6.588 -0.3325 -0.3815  0.4799
   94MOL   O17443140   2.139   5.781   6.686  0.4353  0.4628  0.4079
   94MOL   O17543141   2.196   5.765   6.463 -0.3279 -0.2993  0.1072
   94MOL   C17643142   2.220   5.490   6.703  0.5752 -0.2090  0.0983
   94MOL   C17743143   2.225   5.353   6.704 -0.0423  0.0814 -0.2242
   94MOL   H17843144   2.435   4.935   6.409  0.9934 -0.9449 -0.1794
   94MOL   H17943145   2.392   4.768   6.443  2.0888  0.8630 -0.2848
   94MOL   H18043146   2.160   4.895   6.537 -0.5722  2.4705  1.1602
   94MOL   H18143147   2.198   4.890   6.366 -1.5576  2.5151 -0.9158
   94MOL   H18243148   2.173   5.304   6.369  0.0720  0.1733  0.1429
   94MOL   H18343149   2.150   5.538   6.380  0.9457  2.3657  0.9004
   94MOL   H18443150   2.234   5.544   6.796 -0.5720 -0.9082  0.6843
   94MOL   H18543151   2.244   5.295   6.793  0.2990 -2.8497 -2.1335
   94MOL   O18643152   2.216   5.913   6.445 -0.1392  0.2484  0.7547
   94MOL   C18743153   2.102   5.958   6.386 -0.0356  0.0695 -0.2150
   94MOL   C18843154   2.095   6.106   6.356 -0.3006 -0.5872 -0.6475
   94MOL   O18943155   2.052   6.175   6.472 -0.0549 -0.0868 -0.8141
   94MOL   C19043156   1.953   6.266   6.467 -0.5928 -0.5657 -1.0390
   94MOL   O19143157   1.890   6.299   6.366 -0.2477  0.5519 -0.4633
   94MOL   C19243158   1.924   6.309   6.604 -0.2488  0.1978 -0.3034
   94MOL   C19343159   1.981   6.251   6.717  0.1192  0.8166 -0.1752
   94MOL   C19443160   1.958   6.312   6.846  0.2626  0.1922 -0.3327
   94MOL   C19543161   1.882   6.427   6.857 -0.8384 -0.0607 -0.6266
   94MOL   C19643162   1.875   6.499   6.991  0.0417  0.0328 -0.0807
   94MOL   O19743163   1.805   6.600   7.015  0.1881 -0.7260 -0.1666
   94MOL   O19843164   1.956   6.441   7.082  0.1504  0.0333  0.3455
   94MOL   C19943165   1.827   6.480   6.743  0.4510  0.3154 -0.0144
   94MOL   C20043166   1.846   6.421   6.620  0.0036  0.0781  0.1722
   94MOL   H20143167   2.079   5.902   6.296  1.7095 -0.5530 -0.2796
   94MOL   H20243168   2.018   5.927   6.448 -0.3174 -1.3142 -1.2774
   94MOL   H20343169   2.023   6.125   6.277  0.6064 -0.3489 -1.4181
   94MOL   H20443170   2.189   6.138   6.311 -0.1790 -1.0482 -0.7232
   94MOL   H20543171   2.034   6.158   6.703 -1.8162 -0.6466  1.8336
   94MOL   H20643172   1.998   6.276   6.939 -2.2351 -0.4583  0.5243
   94MOL   H20743173   1.767   6.569   6.756  0.3324  0.8991 -4.0083
   94MOL   H20843174   1.811   6.458   6.524 -0.5425  1.3049  0.8337
   94MOL   O20943175   1.902   6.473   7.222 -0.3208 -0.2981  0.1321
   94MOL   C21043176   1.849   6.351   7.271  0.3896  0.3301 -0.9141
   94MOL   C21143177   1.804   6.343   7.420 -0.1202  0.3911 -0.4040
   94MOL   O21243178   1.790   6.206   7.455 -0.1807 -0.1409 -0.4322
   94MOL   C21343179   1.866   6.147   7.539 -0.4258 -0.3320  1.0250
   94MOL   O21443180   1.961   6.204   7.595  0.3025 -0.6268  0.3784
   94MOL   C21543181   1.846   6.002   7.544  0.8766  0.2818  0.5135
   94MOL   C21643182   1.932   5.915   7.610  0.3298 -0.3496 -0.1615
   94MOL   C21743183   1.902   5.775   7.623  1.0461  0.0823  0.2436
   94MOL   C21843184   1.793   5.714   7.556 -0.2943 -0.1777 -0.5094
   94MOL   C21943185   1.754   5.569   7.571  0.4119  0.2611 -0.3426
   94MOL   O22043186   1.686   5.504   7.489 -0.1669  1.3021  0.1669
   94MOL   O22143187   1.795   5.514   7.689 -0.2514 -0.5677 -0.0742
   94MOL   C22243188   1.721   5.799   7.468  0.6213 -0.7923 -0.6494
   94MOL   C22343189   1.742   5.941   7.461  0.2926 -0.0256 -0.0525
   94MOL   H22443190   1.766   6.310   7.213  1.6852 -0.1605 -2.4733
   94MOL   H22543191   1.922   6.273   7.250  0.9137 -0.6924  4.1324
   94MOL   H22643192   1.705   6.387   7.433 -1.4679 -2.4572 -0.6808
   94MOL   H22743193   1.864   6.408   7.483  0.9275 -0.7706 -0.1929
   94MOL   H22843194   2.016   5.958   7.662 -0.8039  2.3896 -0.5198
   94MOL   H22943195   1.970   5.725   7.690  0.0562  0.6599  1.7049
   94MOL   H23043196   1.632   5.753   7.428 -0.1843 -0.2853  0.5350
   94MOL   H23143197   1.674   5.998   7.400  0.5927 -2.1723 -2.4531
   94MOL   O23243198   1.749   5.377   7.721 -0.3152  0.4231  0.1280
   94MOL   C23343199   1.852   5.278   7.697  0.3168  0.5087  0.4533
   94MOL   C23443200   1.967   5.305   7.796  0.7189  0.1777 -0.9817
   94MOL   O23543201   1.900   5.291   7.924 -0.5408 -0.2933 -0.0082
   94MOL   C23643202   1.936   5.194   8.006 -0.8606  0.2621  1.1182
   94MOL   O23743203   2.021   5.107   7.981 -0.0031 -0.3854  0.3707
   94MOL   C23843204   1.865   5.197   8.137  0.8565 -0.4176 -0.4033
   94MOL   C23943205   1.760   5.285   8.154 -0.1185  0.1405  0.1620
   94MOL   C24043206   1.690   5.292   0.002 -0.4675  0.6263  0.1143
   94MOL   C24143207   1.717   5.199   0.108 -0.3001  0.0947  0.5125
   94MOL   C24243208   1.635   5.210   0.236  0.2983 -0.1669 -0.4424
   94MOL   O24343209   1.557   5.303   0.256 -0.1645  0.5868  0.0298
   94MOL   O24443210   1.650   5.101   0.311  0.2148  0.3433 -0.2632
   94MOL   C24543211   1.828   5.116   0.094  0.1774  0.3807  0.2725
   94MOL   C24643212   1.902   5.122   8.249  0.0516 -0.8414 -0.1917
   94MOL   H24743213   1.818   5.176   7.712 -0.5070  0.3199 -2.4114
   94MOL   H24843214   1.865   5.284   7.589 -2.0047 -0.7846  0.0830
   94MOL   H24943215   2.001   5.409   7.794  1.4616 -0.0439  0.0183
   94MOL   H25043216   2.057   5.248   7.775  2.3751  0.9145  3.6249
   94MOL   H25143217   1.740   5.358   8.077 -0.6119 -1.1075 -0.9253
   94MOL   H25243218   1.607   5.362   0.002 -1.4610 -0.5249  0.3067
   94MOL   H25343219   1.858   5.050   0.174  3.3146  1.7201  0.2786
   94MOL   H25443220   1.983   5.052   8.238  3.8424  3.2910  0.2013
   94MOL   O25543221   1.568   5.092   0.428 -0.2950 -0.0476  0.2030
   94MOL   C25643222   1.451   5.009   0.394 -0.4201  0.5541 -0.0801
   94MOL   C25743223   1.491   4.864   0.404  0.1218 -0.0498  0.5595
   94MOL   O25843224   1.479   4.817   0.538  0.3462  0.1157  0.2915
   94MOL   C25943225   1.582   4.835   0.626 -0.4102 -0.3226  0.1120
   94MOL   O26043226   1.692   4.877   0.591 -1.0596 -0.4317  0.6720
   94MOL   C26143227   1.548   4.784   0.763  1.2667 -0.1547  0.3219
   94MOL   C26243228   1.648   4.784   0.863  0.5754  0.1626 -0.1413
   94MOL   C26343229   1.614   4.745   0.990 -0.4337  0.6119  0.4868
   94MOL   C26443230   1.476   4.713   1.027  0.4788  0.0089  0.1049
   94MOL   C26543231   1.446   4.682   1.165  0.8796  0.3476 -0.1289
   94MOL   O26643232   1.375   4.589   1.203  0.4703  0.1735  0.4568
   94MOL   O26743233   1.514   4.760   1.258  0.0196 -0.1739  0.0669
   94MOL   C26843234   1.386   4.708   0.927 -0.2996 -0.1999  0.0110
   94MOL   C26943235   1.415   4.742   0.798 -0.1115  0.3251  0.1718
   94MOL   H27043236   1.379   5.026   0.474  0.2277 -2.3318  1.1626
   94MOL   H27143237   1.401   5.023   0.298 -0.8412 -1.2699 -0.1294
   94MOL   H27243238   1.590   4.846   0.363 -0.7058 -0.0400 -1.5525
   94MOL   H27343239   1.426   4.799   0.344  0.1372  2.3267 -2.1366
   94MOL   H27443240   1.752   4.802   0.841  1.1319 -0.2187  2.0243
   94MOL   H27543241   1.690   4.748   1.067  0.3304  0.2666 -0.2380
   94MOL   H27643242   1.286   4.676   0.952 -0.2715 -0.9328 -0.7596
   94MOL   H27743243   1.332   4.745   0.729  0.4414 -0.1686 -0.5213
   94MOL   O27843244   1.490   4.720   1.400 -0.3135 -0.3582  0.2535
   94MOL   C27943245   1.393   4.816   1.457 -0.4687  0.1703 -0.2850
   94MOL   C28043246   1.432   4.961   1.435  0.2718  0.0193 -0.0339
   94MOL   O28143247   1.386   5.004   1.310  0.2722 -0.2550 -0.5252
   94MOL   C28243248   1.291   5.094   1.293 -0.2591 -0.2118  0.7384
   94MOL   O28343249   1.226   5.140   1.382  0.4601  0.4373 -0.2529
   94MOL   C28443250   1.265   5.132   1.153 -0.8225 -0.3882  0.1338
   94MOL   C28543251   1.157   5.210   1.118 -0.7386  0.1808 -0.3433
   94MOL   C28643252   1.138   5.258   0.989  0.2580 -0.0978 -0.6025
   94MOL   C28743253   1.209   5.194   0.884 -0.3309 -0.0164 -0.3021
   94MOL   C28843254   1.174   5.240   0.742 -0.3541  0.1412  0.8528
   94MOL   O28943255   1.073   5.301   0.719  0.9404  0.7639  0.1550
   94MOL   O29043256   1.271   5.210   0.653  0.1159 -0.6644  0.2021
   94MOL   C29143257   1.308   5.097   0.916 -0.5943 -0.9168 -0.1697
   94MOL   C29243258   1.339   5.071   1.047 -0.3283 -0.8255 -0.4945
   94MOL   H29343259   1.294   4.797   1.415 -0.5308 -1.4948  0.5453
   94MOL   H29443260   1.383   4.787   1.561 -2.1470 -1.3121 -0.8247
   94MOL   H29543261   1.540   4.974   1.437  0.4552 -1.1560 -1.4295
   94MOL   H29643262   1.372   5.014   1.509 -2.7234 -3.0834 -0.1217
   94MOL   H29743263   1.098   5.247   1.201  2.0045  3.2877  0.3399
   94MOL   H29843264   1.069   5.339   0.969  1.1309  0.3499 -1.9042
   94MOL   H29943265   1.365   5.048   0.839  1.0958 -0.3948  0.7286
   94MOL   H30043266   1.412   4.995   1.069  0.1967 -0.2310 -0.1945
   94MOL   O30143267   1.251   5.267   0.516  0.4367 -0.5809 -0.0048
   94MOL   C30243268   1.338   5.387   0.505 -0.0193  0.6629 -0.4957
   94MOL   C30343269   1.294   5.450   0.374 -0.3007 -0.3578 -0.0719
   94MOL   O30443270   1.382   5.561   0.362 -0.1603  0.5744  0.4692
   94MOL   C30543271   1.416   5.608   0.240 -1.0813  0.1777 -0.1320
   94MOL   O30643272   1.372   5.555   0.136 -0.7112 -0.2872 -0.1301
   94MOL   C30743273   1.499   5.733   0.242  0.3101  0.8434 -0.2512
   94MOL   C30843274   1.521   5.805   0.126  0.2524  0.7785  0.2639
   94MOL   C30943275   1.582   5.930   0.135 -0.3794 -0.2741 -0.5811
   94MOL   C31043276   1.641   5.980   0.258  0.1253  0.2907 -0.8206
   94MOL   C31143277   1.716   6.110   0.258 -0.1186 -0.0396 -0.0976
   94MOL   O31243278   1.734   6.174   0.155 -0.3488 -0.0584 -0.0510
   94MOL   O31343279   1.755   6.152   0.381  0.1443 -0.3968  0.0411
   94MOL   C31443280   1.612   5.902   0.375 -0.2465  0.0701  0.4623
   94MOL   C31543281   1.543   5.785   0.365 -0.3312  0.0165 -0.0226
   94MOL   H31643282   1.336   5.453   0.591 -0.9536  0.5797 -0.4442
   94MOL   H31743283   1.438   5.346   0.497 -0.5841 -0.9519  0.4239
   94MOL   H31843284   1.192   5.486   0.391  0.3384  1.8841 -0.8834
   94MOL   H31943285   1.296   5.379   0.291 -1.2933  0.4643 -0.8247
   94MOL   H32043286   1.498   5.771   0.026 -1.1016  3.6235 -0.4392
   94MOL   H32143287   1.599   5.984   0.043  0.9588 -0.2672 -0.3393
   94MOL   H32243288   1.642   5.936   0.472 -2.0866 -0.5650  1.2837
   94MOL   H32343289   1.521   5.736   0.459  1.1947 -0.6626  0.0002
   94MOL   O32443290   1.857   6.259   0.378  0.0481  0.0046  0.6218
   94MOL   C32543291   1.792   6.383   0.401  0.0329 -0.2475 -1.0120
   94MOL   C32643292   1.899   6.488   0.416 -0.0869  0.4822  0.0763
   94MOL   O32743293   1.899   6.539   0.549  0.1795 -1.0342  0.2774
   94MOL   C32843294   1.990   6.638   0.581  0.0282  0.3290 -0.0300
   94MOL   O32943295   2.067   6.692   0.502 -0.5817 -0.1639 -0.0101
   94MOL   C33043296   1.980   6.687   0.724 -0.9087  0.4591  0.9525
   94MOL   C33143297   2.057   6.795   0.767 -0.6177  0.3403  0.1160
   94MOL   C33243298   2.064   6.825   0.907 -0.6717  0.2390  0.4728
   94MOL   C33343299   1.986   6.750   0.994  0.8127 -0.2503  0.6050
   94MOL   C33443300   1.980   6.802   1.132  0.0211 -0.2517 -0.1419
   94MOL   O33543301   2.062   6.882   1.185  0.8155 -0.0041 -0.6683
   94MOL   O33643302   1.879   6.756   1.192 -0.2503 -0.3147 -0.7318
   94MOL   C33743303   1.919   6.634   0.953  0.7180 -0.1600  0.1695
   94MOL   C33843304   1.913   6.606   0.816 -0.3172 -0.3338 -0.2685
   94MOL   H33943305   1.726   6.412   0.320 -1.3746  1.5459  0.7359
   94MOL   H34043306   1.731   6.377   0.491 -0.5564  0.6155 -1.3470
   94MOL   H34143307   1.869   6.570   0.350  0.7401 -0.9216 -2.1111
   94MOL   H34243308   1.994   6.452   0.376  0.6296  1.8122  0.5541
   94MOL   H34343309   2.117   6.859   0.704  0.1137  0.9880  1.4439
   94MOL   H34443310   2.127   6.906   0.942 -0.0672 -0.8351  1.9229
   94MOL   H34543311   1.858   6.586   1.028 -0.7453  2.2567  0.5878
   94MOL   H34643312   1.856   6.522   0.779 -1.1384 -0.3429  0.9811
   94MOL   O34743313   1.865   6.793   1.343  0.3113 -0.3868  0.2158
   94MOL   C34843314   1.910   6.670   1.409 -0.2941  0.0946  0.6547
   94MOL   C34943315   1.913   6.709   1.558 -0.1556 -0.2424 -1.0907
   94MOL   O35043316   2.023   6.641   1.622 -0.6600 -0.0741 -0.3091
   94MOL   C35143317   2.011   6.507   1.651  0.6980  0.1250  0.1188
   94MOL   O35243318   1.908   6.451   1.635 -0.4745  0.2140  0.9299
   94MOL   C35343319   2.133   6.438   1.696 -0.0883 -1.0356 -0.4312
   94MOL   C35443320   2.134   6.316   1.764  0.7685  0.7645 -0.1044
   94MOL   C35543321   2.253   6.263   1.807 -0.1939 -0.6785  0.6570
   94MOL   C35643322   2.377   6.327   1.790 -0.0265  0.1822 -0.1849
   94MOL   C35743323   2.505   6.262   1.839  0.5148 -0.0349 -0.1076
   94MOL   O35843324   2.506   6.161   1.906 -0.0858 -0.2395  0.8383
   94MOL   O35943325   2.617   6.325   1.807 -0.0545  0.0047 -0.6535
   94MOL   C36043326   2.387   6.448   1.716  0.5145  0.5757 -0.4272
   94MOL   C36143327   2.263   6.502   1.671 -0.2928 -0.1610  0.0410
   94MOL   H36243328   1.851   6.578   1.399 -2.4724  1.6447 -1.3698
   94MOL   H36343329   2.009   6.642   1.375 -0.6375 -0.7437  0.3173
   94MOL   H36443330   1.817   6.694   1.606  0.0126 -0.3466 -0.7888
   94MOL   H36543331   1.932   6.816   1.572  2.4790 -0.8928  0.6665
   94MOL   H36643332   2.039   6.267   1.781  1.8895 -0.6445  2.4310
   94MOL   H36743333   2.256   6.167   1.856  4.8157  0.4980  2.9939
   94MOL   H36843334   2.477   6.491   1.676  0.0306  1.1306 -0.9287
   94MOL   H36943335   2.269   6.586   1.603  4.3583 -0.3003  0.1092
   94MOL   O37043336   2.745   6.255   1.848 -0.3684  0.4229  0.1209
   94MOL   C37143337   2.768   6.298   1.984  0.3370 -0.4566  0.4564
   94MOL   C37243338   2.799   6.449   1.982 -0.3767  0.4372  0.3550
   94MOL   O37343339   2.687   6.523   2.016  0.3017  0.0825  0.1313
   94MOL   C37443340   2.672   6.564   2.148 -0.1922  0.0017 -0.7143
   94MOL   O37543341   2.739   6.527   2.245 -0.6972 -0.2520  0.9858
   94MOL   C37643342   2.540   6.634   2.171 -0.2737 -0.0607  0.0792
   94MOL   C37743343   2.478   6.690   2.059 -0.4514  0.2147  0.2941
   94MOL   C37843344   2.355   6.756   2.070  0.5878 -0.7335 -0.1783
   94MOL   C37943345   2.297   6.779   2.198  0.4839  0.5657 -0.5658
   94MOL   C38043346   2.177   6.868   2.220 -0.0216 -0.5496 -0.0843
   94MOL   O38143347   2.123   6.933   2.131  0.1863  0.0316  0.4005
   94MOL   O38243348   2.142   6.886   2.349  0.2957 -0.1714  0.2397
   94MOL   C38343349   2.363   6.725   2.309 -0.0391 -1.4134 -0.0219
   94MOL   C38443350   2.482   6.651   2.297 -0.2803 -0.0028 -0.7330
   94MOL   H38543351   2.683   6.278   2.049  2.0260 -2.1493  2.1799
   94MOL   H38643352   2.847   6.241   2.032 -0.5677 -1.0515  1.2491
   94MOL   H38743353   2.827   6.479   1.881  1.5767  2.1239  1.3579
   94MOL   H38843354   2.880   6.470   2.053  0.6654 -0.8869 -0.4096
   94MOL   H38943355   2.515   6.677   1.958  1.8127  0.8595  1.0200
   94MOL   H39043356   2.304   6.789   1.981  0.4901  3.4842  1.3287
   94MOL   H39143357   2.321   6.730   2.409  0.1643  0.0601 -0.0038
   94MOL   H39243358   2.538   6.617   2.383  1.7994  2.1362 -1.2067
   94MOL   O39343359   2.020   6.974   2.372  0.0617 -0.1195 -0.8804
   94MOL   C39443360   1.898   6.896   2.379 -0.4202 -0.0691  0.1723
   94MOL   C39543361   1.776   6.987   2.372  0.3022 -0.7023 -0.7428
   94MOL   O39643362   1.655   6.918   2.395  0.3711  0.5703  0.0047
   94MOL   C39743363   1.610   6.904   2.512 -1.4270  0.3043 -0.3487
   94MOL   O39843364   1.665   6.948   2.617  0.2709  0.5821  0.6898
   94MOL   C39943365   1.473   6.840   2.513  0.2217  0.4040 -0.0070
   94MOL   C40043366   1.427   6.771   2.403  0.7314  1.0257  0.3609
   94MOL   C40143367   1.302   6.710   2.397  0.4225 -0.5467  0.0490
   94MOL   C40243368   1.218   6.715   2.512 -0.0615 -0.3704 -0.1626
   94MOL   C40343369   1.083   6.657   2.515 -0.5518  0.1924  1.0544
   94MOL   O40443370   1.005   6.660   2.606  0.5220 -0.3268  0.6684
   94MOL   O40543371   1.040   6.598   2.400  0.3305 -0.2439 -0.6752
   94MOL   C40643372   1.266   6.784   2.630 -0.1544 -0.0104 -0.2866
   94MOL   C40743373   1.391   6.843   2.628  0.0520 -0.4497 -0.2423
   94MOL   H40843374   1.902   6.813   2.308  1.8303 -0.1148  0.3249
   94MOL   H40943375   1.900   6.841   2.473 -1.4443  0.0867  0.2876
   94MOL   H41043376   1.772   7.036   2.274 -1.0145 -1.7362 -1.2291
   94MOL   H41143377   1.786   7.060   2.452 -4.7607  0.5478 -1.0827
   94MOL   H41243378   1.481   6.762   2.310 -1.7200 -0.9404 -0.9155
   94MOL   H41343379   1.279   6.663   2.302  3.4122 -1.3286 -0.3184
   94MOL   H41443380   1.213   6.792   2.724  2.4123 -0.7186  1.2738
   94MOL   H41543381   1.430   6.892   2.716  0.7272 -1.9236  0.3013
   94MOL   O41643382   0.901   6.524   2.408 -0.3220 -1.0159  0.1981
   94MOL   C41743383   0.807   6.604   2.342  0.1606  0.0214  1.2569
   94MOL   C41843384   0.839   6.610   2.185 -0.8817 -0.1366 -0.2664
   94MOL   O41943385   0.719   6.658   2.119 -0.3195  0.0896  0.9760
   94MOL   C42043386   0.726   6.720   2.001 -0.2180  0.2393  0.0291
   94MOL   O42143387   0.825   6.778   1.950  0.6101 -0.0098  1.0089
   94MOL   C42243388   0.598   6.706   1.917 -0.3789 -0.3715  0.1100
   94MOL   C42343389   0.589   6.776   1.797  0.2609 -0.3289  0.4663
   94MOL   C42443390   0.491   6.747   1.702  0.3992  0.3448  0.0313
   94MOL   C42543391   0.388   6.657   1.738 -1.0205  0.2299 -0.3301
   94MOL   C42643392   0.279   6.624   1.647  0.2835 -0.7609  0.1176
   94MOL   O42743393   0.259   6.689   1.543  0.3364 -0.3478 -0.4598
   94MOL   O42843394   0.195   6.522   1.679 -0.1333 -0.3359  0.4566
   94MOL   C42943395   0.394   6.585   1.863 -0.3948 -0.3895 -0.3101
   94MOL   C43043396   0.500   6.611   1.951  0.3661  0.0887  0.1924
   94MOL   H43143397   0.709   6.562   2.364 -0.5347  1.6367  1.2951
   94MOL   H43243398   0.794   6.705   2.381 -2.3624 -0.0447  0.6432
   94MOL   H43343399   0.876   6.515   2.147 -0.6208  0.0207 -0.3993
   94MOL   H43443400   0.921   6.678   2.164 -0.5097 -0.6593 -0.5075
   94MOL   H43543401   0.677   6.835   1.776  1.5474 -1.7145  1.8281
   94MOL   H43643402   0.477   6.802   1.610  0.6639  1.6569  0.7743
   94MOL   H43743403   0.312   6.522   1.894  0.6697 -0.2562  2.8969
   94MOL   H43843404   0.495   6.548   2.039  1.2560 -0.0366  0.1595
   94MOL   O43943405   0.068   6.519   1.598 -0.1634  0.0148  0.1265
   94MOL   C44043406   8.240   6.581   1.665 -0.2522  0.0303  0.2272
   94MOL   C44143407   8.101   6.547   1.611  0.6879 -0.2042  0.0852
   94MOL   O44243408   8.070   6.410   1.637  0.0277  0.1170 -0.5530
   94MOL   C44343409   7.957   6.354   1.585 -0.1849  0.0367 -0.1854
   94MOL   O44443410   7.871   6.420   1.523  0.0590 -0.1345  0.4595
   94MOL   C44543411   7.943   6.205   1.622 -0.2940  0.3242 -0.2982
   94MOL   C44643412   7.865   6.113   1.548 -0.0380 -0.1075  0.8383
   94MOL   C44743413   7.859   5.981   1.590 -0.8009 -0.3930  0.4025
   94MOL   C44843414   7.933   5.925   1.698 -1.0761  0.1041 -0.2443
   94MOL   C44943415   7.915   5.778   1.737  0.0479 -0.6948 -0.2287
   94MOL   O45043416   7.817   5.712   1.693 -0.7154  0.5030  0.0379
   94MOL   O45143417   8.007   5.732   1.826  0.0431  0.1887  0.1393
   94MOL   C45243418   8.022   6.012   1.765  0.4785 -0.1919  0.5699
   94MOL   C45343419   8.028   6.151   1.729  0.5453 -0.0671 -0.2845
   94MOL   H45443420   8.256   6.553   1.769  0.2227 -0.5747 -0.0072
   94MOL   H45543421   8.253   6.690   1.662 -1.1931  0.2118  2.0120
   94MOL   H45643422   8.094   6.553   1.502 -0.0685 -0.4808  0.1116
   94MOL   H45743423   8.028   6.597   1.674  1.2512 -0.6310  1.0806
   94MOL   H45843424   7.798   6.145   1.470 -0.3179 -3.1514 -0.2047
   94MOL   H45943425   7.796   5.913   1.534 -1.2029  0.1702  0.1723
   94MOL   H46043426   8.081   5.978   1.849 -1.5461 -1.3037  1.5730
   94MOL   H46143427   8.087   6.226   1.780 -0.3523 -0.4321  1.3216
   94MOL   H46243428   7.988   5.649   1.867 -0.3541  0.3314  0.2453
   95MOL     O143429   1.610   0.563   6.419 -0.8670  0.6468 -0.4349
   95MOL     C243430   1.478   0.522   6.380  0.4716  0.3915  0.4728
   95MOL     C343431   1.465   0.428   6.267  0.8394 -0.1019 -0.1896
   95MOL     O443432   1.469   0.482   6.131  0.7780  0.4106 -0.1247
   95MOL     C543433   1.380   0.572   6.086 -0.0910  0.0851 -0.3561
   95MOL     O643434   1.295   0.630   6.146 -0.0043  0.5760  0.5397
   95MOL     C743435   1.408   0.609   5.947  0.4685 -0.9458  0.9244
   95MOL     C843436   1.511   0.550   5.871  0.2607  1.1032  0.1740
   95MOL     C943437   1.531   0.572   5.736  0.1162 -0.0495  0.4239
   95MOL    C1043438   1.454   0.679   5.672 -0.0677  0.7755  0.0462
   95MOL    C1143439   1.476   0.708   5.533  0.6719 -0.3674  0.3116
   95MOL    O1243440   1.570   0.663   5.472  0.4806 -0.9087  0.2016
   95MOL    O1343441   1.390   0.793   5.484  0.1152 -0.3655  0.8282
   95MOL    C1443442   1.348   0.743   5.742  0.2312 -0.3635 -0.1458
   95MOL    C1543443   1.331   0.711   5.877  0.1318 -0.2002  0.1724
   95MOL    H1643444   1.425   0.481   6.466 -1.4161  1.8594  0.0458
   95MOL    H1743445   1.409   0.607   6.372  0.3838  0.0935 -2.8435
   95MOL    H1843446   1.360   0.402   6.285  1.0664 -1.2736 -0.5299
   95MOL    H1943447   1.518   0.334   6.285  0.2822 -0.5148 -0.6882
   95MOL    H2043448   1.562   0.466   5.915 -1.3403  0.4659  0.8423
   95MOL    H2143449   1.615   0.526   5.687  1.2439  0.9143  1.4257
   95MOL    H2243450   1.292   0.827   5.703 -0.7067 -1.3874 -1.0386
   95MOL    H2343451   1.259   0.772   5.930 -0.9954 -1.5551  0.2331
   95MOL    H2443452   1.631   0.638   6.365  2.4641 -0.3779 -0.6325
   95MOL    O2543453   1.410   0.831   5.343  0.0316  0.0106 -0.0378
   95MOL    C2643454   1.482   0.955   5.335 -0.5179 -0.3812 -0.6935
   95MOL    C2743455   1.510   0.997   5.189  0.2596 -0.0734  0.6769
   95MOL    O2843456   1.561   1.127   5.186 -0.1416  0.0085 -0.3840
   95MOL    C2943457   1.570   1.191   5.070  0.6574 -0.0271 -0.1895
   95MOL    O3043458   1.541   1.149   4.961 -0.2239  0.1339  0.3963
   95MOL    C3143459   1.641   1.321   5.081 -0.2348  0.5786 -0.0042
   95MOL    C3243460   1.650   1.392   5.204  0.0753 -0.3353  0.4209
   95MOL    C3343461   1.720   1.513   5.211  0.0340 -0.0964  0.5917
   95MOL    C3443462   1.799   1.566   5.106 -0.1222  0.5706  0.2158
   95MOL    C3543463   1.891   1.679   5.115 -0.1097  0.4731  0.0045
   95MOL    O3643464   1.965   1.712   5.023  0.5740 -0.1281 -0.3560
   95MOL    O3743465   1.886   1.739   5.242  0.1598 -0.3193 -0.0063
   95MOL    C3843466   1.803   1.487   4.989  0.5805 -0.3526 -0.0557
   95MOL    C3943467   1.723   1.368   4.972  0.1352 -0.0711  0.2165
   95MOL    H4043468   1.422   1.034   5.379 -0.5665  0.5328 -2.3396
   95MOL    H4143469   1.573   0.947   5.395  0.0492  3.0277 -0.9945
   95MOL    H4243470   1.414   1.005   5.138  0.4070  0.8713  0.5428
   95MOL    H4343471   1.566   0.922   5.133  0.4553  0.7348 -0.2167
   95MOL    H4443472   1.616   1.351   5.297  0.4482  0.0406  0.7249
   95MOL    H4543473   1.725   1.566   5.306  0.6397  0.9759 -0.0308
   95MOL    H4643474   1.866   1.515   4.906  0.7409  0.0462  0.1994
   95MOL    H4743475   1.733   1.305   4.885 -1.8214 -0.1395  0.0192
   95MOL    O4843476   1.985   1.850   5.262  0.0005 -0.1076  0.2500
   95MOL    C4943477   1.926   1.974   5.252  0.3714  0.0137 -0.0750
   95MOL    C5043478   2.034   2.079   5.275  0.0274  0.2179  0.8929
   95MOL    O5143479   2.097   2.106   5.149  0.0885 -0.5893 -0.0763
   95MOL    C5243480   2.227   2.107   5.135 -0.6593 -0.4589 -0.4566
   95MOL    O5343481   2.310   2.129   5.218  0.8788 -0.0626  0.0635
   95MOL    C5443482   2.268   2.103   4.993 -0.9543 -0.3783 -0.5359
   95MOL    C5543483   2.173   2.107   4.889  0.3135  0.9616 -0.0832
   95MOL    C5643484   2.217   2.077   4.756 -0.0087 -0.7887 -0.4106
   95MOL    C5743485   2.350   2.048   4.725  0.2727 -0.4924  0.2887
   95MOL    C5843486   2.387   2.021   4.580 -0.3438 -0.0508 -0.7033
   95MOL    O5943487   2.309   2.024   4.487 -0.6640 -0.5116 -0.3742
   95MOL    O6043488   2.520   2.010   4.560 -0.1341 -0.0625  0.6213
   95MOL    C6143489   2.448   2.054   4.829  0.2636 -0.2123  0.7446
   95MOL    C6243490   2.404   2.080   4.962 -0.0687  0.5730 -0.4963
   95MOL    H6343491   1.879   1.984   5.155  0.6318  0.6813 -0.1394
   95MOL    H6443492   1.848   1.993   5.326  0.6830 -3.0616  1.1285
   95MOL    H6543493   2.104   2.039   5.348  0.1741 -1.4828 -0.1482
   95MOL    H6643494   1.985   2.163   5.324 -4.0020 -1.2544 -0.3521
   95MOL    H6743495   2.068   2.126   4.907  0.2569 -0.9829  1.9299
   95MOL    H6843496   2.143   2.081   4.677  1.0646 -3.3837 -1.6267
   95MOL    H6943497   2.552   2.030   4.817  0.1497 -1.2322  1.7154
   95MOL    H7043498   2.471   2.052   5.041  0.9963 -0.2696 -1.6751
   95MOL    O7143499   2.556   1.995   4.409 -0.6517  0.5841 -0.2848
   95MOL    C7243500   2.549   1.857   4.368  0.1535  0.7530  0.2866
   95MOL    C7343501   2.570   1.851   4.217 -0.0744  0.2657  0.2770
   95MOL    O7443502   2.701   1.843   4.168 -0.1090 -0.3087  0.0912
   95MOL    C7543503   2.776   1.733   4.192  0.3455  0.0825  0.7192
   95MOL    O7643504   2.726   1.636   4.247 -0.5912 -0.0449  0.5090
   95MOL    C7743505   2.923   1.752   4.159 -0.1853  0.2160 -0.4064
   95MOL    C7843506   3.007   1.643   4.194 -0.4023 -0.8019 -0.1217
   95MOL    C7943507   3.148   1.659   4.178 -1.0388  0.6213  0.2097
   95MOL    C8043508   3.199   1.773   4.109  0.1945  0.6572  0.0361
   95MOL    C8143509   3.343   1.788   4.080  0.3560 -0.1407  0.0947
   95MOL    O8243510   3.385   1.899   4.042 -0.4143  0.8436 -0.6944
   95MOL    O8343511   3.422   1.682   4.112 -0.2668 -0.2495  0.4057
   95MOL    C8443512   3.107   1.874   4.065 -0.5471  0.1398 -0.4890
   95MOL    C8543513   2.968   1.868   4.093 -0.1781 -0.2498 -0.4414
   95MOL    H8643514   2.616   1.786   4.417  0.9160  0.6898 -0.8295
   95MOL    H8743515   2.448   1.822   4.392  0.6398  0.7082  2.3877
   95MOL    H8843516   2.537   1.947   4.175  0.3679  0.3223  0.0596
   95MOL    H8943517   2.519   1.767   4.170  2.5034  0.1956 -2.5089
   95MOL    H9043518   2.964   1.560   4.247 -2.0815 -0.1536 -0.4319
   95MOL    H9143519   3.211   1.575   4.203 -0.2710  0.8336 -0.9866
   95MOL    H9243520   3.139   1.967   4.021 -1.3670 -0.0356 -1.4882
   95MOL    H9343521   2.897   1.944   4.062  1.4200  1.5269  0.1708
   95MOL    O9443522   3.569   1.719   4.110 -0.5368  0.0845  0.1187
   95MOL    C9543523   3.631   1.681   3.985 -0.5010 -0.6661 -0.0868
   95MOL    C9643524   3.779   1.666   3.977 -0.4981 -0.0224 -0.2514
   95MOL    O9743525   3.848   1.796   3.966  0.2888 -0.6100 -0.1618
   95MOL    C9843526   3.903   1.851   4.076  0.0243 -0.3949 -0.1574
   95MOL    O9943527   3.921   1.787   4.180 -0.3273 -0.1130  0.1597
   95MOL   C10043528   3.936   1.991   4.059 -0.3003 -0.3196 -0.2329
   95MOL   C10143529   3.885   2.074   3.959  0.4701  0.2693 -0.1435
   95MOL   C10243530   3.932   2.204   3.936  0.1662  0.2260 -0.0682
   95MOL   C10343531   4.033   2.264   4.024  0.9892  0.8924  0.3899
   95MOL   C10443532   4.083   2.401   4.001 -0.2047 -0.9575 -0.3755
   95MOL   O10543533   4.056   2.474   3.906 -0.3064 -0.0859  0.1856
   95MOL   O10643534   4.165   2.447   4.095  0.1208  0.0859 -0.1424
   95MOL   C10743535   4.075   2.177   4.134  0.1554 -0.3777  0.3065
   95MOL   C10843536   4.036   2.046   4.147 -0.3804 -0.2701 -0.4961
   95MOL   H10943537   3.592   1.588   3.945 -1.3574 -0.5245  0.4049
   95MOL   H11043538   3.596   1.754   3.913  0.5962  2.9172  2.8371
   95MOL   H11143539   3.802   1.613   3.885 -0.4331  0.5291 -0.5601
   95MOL   H11243540   3.820   1.606   4.058 -1.1677 -0.0847  0.0475
   95MOL   H11343541   3.803   2.039   3.898 -0.6818  2.4695  0.0910
   95MOL   H11443542   3.897   2.266   3.855 -1.2228 -2.3139 -1.4768
   95MOL   H11543543   4.151   2.209   4.204  0.7188 -0.8686 -0.0763
   95MOL   H11643544   4.082   1.987   4.225  0.5794  0.7353 -0.2795
   95MOL   O11743545   4.186   2.596   4.103 -0.6964 -0.0575 -0.2055
   95MOL   C11843546   4.105   2.645   4.204  0.6262 -0.2411  0.3753
   95MOL   C11943547   3.979   2.680   4.127  0.1636 -0.6630  0.2105
   95MOL   O12043548   3.880   2.579   4.142 -0.0110  0.1162 -0.3213
   95MOL   C12143549   3.751   2.600   4.094 -0.0252 -0.0410  0.5041
   95MOL   O12243550   3.727   2.716   4.052 -0.2840 -0.1747  0.1989
   95MOL   C12343551   3.652   2.486   4.112 -0.1727 -0.3275 -0.1386
   95MOL   C12443552   3.514   2.508   4.119 -1.2122  0.0278  0.4375
   95MOL   C12543553   3.428   2.401   4.159  0.1695 -0.0020  0.0930
   95MOL   C12643554   3.478   2.271   4.181 -0.7386 -0.5341  0.3091
   95MOL   C12743555   3.380   2.165   4.217  0.9557 -0.1653 -0.1711
   95MOL   O12843556   3.258   2.164   4.200  0.5592 -0.8693 -0.1025
   95MOL   O12943557   3.435   2.056   4.278 -0.2335  0.0338 -0.3051
   95MOL   C13043558   3.617   2.245   4.166  0.4195  0.0357 -0.4641
   95MOL   C13143559   3.706   2.356   4.141 -0.1401  0.4864 -0.4741
   95MOL   H13243560   4.091   2.587   4.295  1.0417  0.1788  0.7122
   95MOL   H13343561   4.131   2.745   4.240 -1.5908  0.4026  0.2449
   95MOL   H13443562   3.999   2.719   4.027 -0.3897 -0.6920  0.0854
   95MOL   H13543563   3.928   2.764   4.175 -0.7724 -0.8769 -0.3957
   95MOL   H13643564   3.484   2.612   4.120  0.2753  0.4840  0.6972
   95MOL   H13743565   3.323   2.420   4.174 -0.1882 -2.6373  1.2222
   95MOL   H13843566   3.656   2.148   4.196  4.3208  2.5429  3.1176
   95MOL   H13943567   3.811   2.336   4.152 -0.0353  2.1909  1.9180
   95MOL   O14043568   3.344   1.943   4.335  0.3170  0.2009  0.1252
   95MOL   C14143569   3.321   1.957   4.469 -0.0495 -0.1002 -0.1584
   95MOL   C14243570   3.241   2.084   4.507  0.0187 -0.3634 -0.0904
   95MOL   O14343571   3.321   2.201   4.519 -0.3757  0.2460  0.2641
   95MOL   C14443572   3.255   2.317   4.553 -0.2791  0.1006  0.7166
   95MOL   O14543573   3.136   2.339   4.569  0.1603  0.3644 -0.1983
   95MOL   C14643574   3.359   2.431   4.572  0.1844  0.8224 -0.1450
   95MOL   C14743575   3.320   2.553   4.630 -0.4785 -0.5067 -0.7886
   95MOL   C14843576   3.408   2.660   4.638 -0.6159  0.6449 -0.6380
   95MOL   C14943577   3.530   2.654   4.566 -0.0989 -0.0234 -0.4574
   95MOL   C15043578   3.612   2.774   4.540  0.2221  0.2747 -0.5861
   95MOL   O15143579   3.601   2.880   4.602  0.1681  0.4280 -0.1080
   95MOL   O15243580   3.697   2.768   4.438 -0.2092 -0.0115  0.0312
   95MOL   C15343581   3.577   2.526   4.520  0.3375  0.6347 -0.6630
   95MOL   C15443582   3.495   2.413   4.526  0.3695  0.5090  0.4227
   95MOL   H15543583   3.280   1.863   4.505 -1.3641  0.0357 -1.2461
   95MOL   H15643584   3.419   1.961   4.517  1.1964  0.0810 -2.6557
   95MOL   H15743585   3.197   2.072   4.606  1.1493 -2.6150  0.1757
   95MOL   H15843586   3.152   2.105   4.449 -1.5010 -2.5485  1.3508
   95MOL   H15943587   3.219   2.558   4.667 -0.2193  0.0364 -0.1426
   95MOL   H16043588   3.366   2.749   4.682  0.0346  0.2766  0.7732
   95MOL   H16143589   3.673   2.523   4.470 -0.3458  1.4489 -2.0597
   95MOL   H16243590   3.530   2.320   4.482  1.2042  0.1133  1.9082
   95MOL   O16343591   3.784   2.893   4.427  0.1578 -0.1182  0.0920
   95MOL   C16443592   3.735   2.967   4.325  0.0464  0.7152 -0.3088
   95MOL   C16543593   3.814   3.095   4.298  0.0561 -0.8640 -0.5036
   95MOL   O16643594   3.826   3.178   4.418  0.4317  0.0176 -0.4111
   95MOL   C16743595   3.895   3.298   4.422  0.0315  0.1507  0.0243
   95MOL   O16843596   3.947   3.335   4.321 -0.1878 -0.1620 -0.0128
   95MOL   C16943597   3.901   3.363   4.552  0.1893 -0.3773  0.0732
   95MOL   C17043598   3.930   3.502   4.557  0.8710  0.2292  0.7780
   95MOL   C17143599   3.957   3.559   4.683  0.7061  0.3636 -0.1542
   95MOL   C17243600   3.942   3.489   4.799 -0.4980  0.1296 -0.5408
   95MOL   C17343601   3.972   3.554   4.933  0.4435 -0.2181  0.2201
   95MOL   O17443602   3.943   3.496   5.037  0.3010  0.0073  0.2977
   95MOL   O17543603   4.035   3.679   4.925  0.2468  0.5490  0.3414
   95MOL   C17643604   3.904   3.354   4.792 -0.4440 -0.6103 -0.3869
   95MOL   C17743605   3.881   3.284   4.671 -0.0305 -1.2375  0.4346
   95MOL   H17843606   3.713   2.921   4.229  3.6275 -0.6572 -0.5522
   95MOL   H17943607   3.639   3.001   4.363 -0.7968 -2.4523  0.5844
   95MOL   H18043608   3.755   3.160   4.234 -1.8278 -1.7280  0.3024
   95MOL   H18143609   3.909   3.088   4.244  1.3409  2.1440  1.2645
   95MOL   H18243610   3.930   3.568   4.471  2.1098 -0.2207  0.4243
   95MOL   H18343611   3.970   3.666   4.696  0.9357  0.3027  0.1220
   95MOL   H18443612   3.886   3.298   4.883  1.3771  2.0485  1.6785
   95MOL   H18543613   3.850   3.181   4.674 -0.8679 -1.0584 -1.3530
   95MOL   O18643614   4.080   3.727   5.056 -0.0817  0.8356 -0.7445
   95MOL   C18743615   4.222   3.710   5.068  0.5529  0.1950  0.1292
   95MOL   C18843616   4.266   3.729   5.212  0.2310  0.0399  0.0539
   95MOL   O18943617   4.234   3.860   5.261  0.4705  0.1630  0.0889
   95MOL   C19043618   4.127   3.879   5.338 -0.0270  0.0343  0.4724
   95MOL   O19143619   4.068   3.788   5.387 -0.3929 -0.3689  0.3647
   95MOL   C19243620   4.104   4.021   5.360 -0.0095 -0.2124  0.4081
   95MOL   C19343621   3.973   4.053   5.396 -0.0759 -0.2976  0.0780
   95MOL   C19443622   3.935   4.187   5.408  0.0429  0.1773 -0.4336
   95MOL   C19543623   4.026   4.290   5.371  0.0999 -0.8081 -0.5315
   95MOL   C19643624   3.997   4.426   5.390  0.0017 -0.6605  0.7965
   95MOL   O19743625   4.060   4.520   5.328  0.2992 -0.1969 -0.0784
   95MOL   O19843626   3.893   4.460   5.474  0.3255 -0.3809 -0.0009
   95MOL   C19943627   4.150   4.257   5.317 -0.3103 -0.0632  0.0028
   95MOL   C20043628   4.196   4.124   5.323 -0.1032  0.5184  0.0086
   95MOL   H20143629   4.251   3.611   5.032 -3.5852 -1.5186  1.1284
   95MOL   H20243630   4.264   3.777   4.992  1.5139  0.1518  0.6256
   95MOL   H20343631   4.375   3.722   5.211  0.2988  0.5692 -3.3219
   95MOL   H20443632   4.227   3.641   5.264 -2.1057  0.1458 -1.4393
   95MOL   H20543633   3.905   3.971   5.410 -2.2644  0.9078 -2.9861
   95MOL   H20643634   3.844   4.219   5.456  0.3061  2.6845 -1.5193
   95MOL   H20743635   4.202   4.343   5.277  0.5431 -0.3564  0.4704
   95MOL   H20843636   4.288   4.104   5.271  1.1520  0.9415  1.9915
   95MOL   O20943637   3.897   4.601   5.532 -0.5921  0.5564  0.1174
   95MOL   C21043638   3.965   4.594   5.655 -0.2400  0.3821  0.2304
   95MOL   C21143639   3.954   4.723   5.736  0.1970 -0.4663 -0.1480
   95MOL   O21243640   3.924   4.696   5.873  0.4233 -0.0814  0.2820
   95MOL   C21343641   3.800   4.727   5.914  0.1401 -0.8881  0.8632
   95MOL   O21443642   3.714   4.787   5.846  0.2245 -0.0025  0.2674
   95MOL   C21543643   3.781   4.690   6.057 -0.1563  0.7067 -0.7106
   95MOL   C21643644   3.850   4.585   6.124  0.5096 -0.1686 -0.1641
   95MOL   C21743645   3.825   4.564   6.265  0.5764  0.5426  0.3979
   95MOL   C21843646   3.728   4.644   6.339 -0.0805 -0.4048  0.5550
   95MOL   C21943647   3.707   4.617   6.480  0.1211 -0.9996 -0.5874
   95MOL   O22043648   3.676   4.714   6.552  0.5001  0.4057 -0.3177
   95MOL   O22143649   3.712   4.490   6.525 -0.0846 -0.1370 -0.0287
   95MOL   C22243650   3.665   4.749   6.274 -0.3608  0.0638 -0.6620
   95MOL   C22343651   3.694   4.775   6.134 -0.3272 -0.0884 -0.2322
   95MOL   H22443652   3.920   4.508   5.704  0.4846 -1.0669 -1.6188
   95MOL   H22543653   4.068   4.556   5.656 -1.3961 -2.8874  0.9075
   95MOL   H22643654   3.877   4.785   5.691 -2.1388 -1.9667  1.6897
   95MOL   H22743655   4.051   4.774   5.742 -0.3522  0.5072  0.5826
   95MOL   H22843656   3.920   4.522   6.072  1.9778  0.9404  0.4281
   95MOL   H22943657   3.871   4.482   6.318  0.1560  0.7193  1.0384
   95MOL   H23043658   3.588   4.798   6.332 -0.7187 -1.4980  0.1828
   95MOL   H23143659   3.657   4.860   6.080 -1.3836 -0.7123 -0.5132
   95MOL   O23243660   3.724   4.479   6.674 -0.3489  0.2540  0.1825
   95MOL   C23343661   3.598   4.454   6.730  0.0379 -0.5430 -0.0631
   95MOL   C23443662   3.624   4.419   6.870 -1.2454 -0.1613  0.2957
   95MOL   O23543663   3.630   4.283   6.870  0.0996  0.2941 -0.1201
   95MOL   C23643664   3.624   4.220   6.985 -0.1425 -0.8779  0.1712
   95MOL   O23743665   3.630   4.282   7.095 -0.6037  0.2317  0.0402
   95MOL   C23843666   3.609   4.079   6.978  0.2660 -0.6476 -0.2101
   95MOL   C23943667   3.618   3.998   7.087  0.0238  0.8361 -0.1243
   95MOL   C24043668   3.604   3.857   7.080  0.1734  0.1211  0.2341
   95MOL   C24143669   3.561   3.798   6.960 -0.6514  0.0553 -0.2571
   95MOL   C24243670   3.530   3.654   6.954 -0.4047 -0.1267 -0.5747
   95MOL   O24343671   3.539   3.574   7.047 -0.1303  0.5097  0.1301
   95MOL   O24443672   3.482   3.620   6.832  0.1977 -0.1327 -0.0574
   95MOL   C24543673   3.548   3.883   6.848 -0.2266  0.1269 -0.4560
   95MOL   C24643674   3.569   4.019   6.852 -0.6770 -1.0679 -0.0951
   95MOL   H24743675   3.534   4.541   6.715  1.3871  0.3735 -0.6306
   95MOL   H24843676   3.531   4.375   6.696 -2.0249  1.6092 -1.1425
   95MOL   H24943677   3.542   4.456   6.931  0.1208 -0.2083  2.2348
   95MOL   H25043678   3.706   4.477   6.915  0.1088 -0.6133 -1.5357
   95MOL   H25143679   3.648   4.038   7.183 -0.9308 -4.6078  2.6456
   95MOL   H25243680   3.624   3.798   7.168  0.5395  1.1555  0.8524
   95MOL   H25343681   3.527   3.840   6.751  0.2236 -0.8765 -0.1123
   95MOL   H25443682   3.553   4.075   6.761  2.0502 -1.5843 -0.9229
   95MOL   O25543683   3.442   3.473   6.829 -0.5936 -0.3304 -0.2072
   95MOL   C25643684   3.310   3.457   6.875 -0.2969 -0.1616 -0.1419
   95MOL   C25743685   3.265   3.308   6.859  0.7084  0.1236 -0.1457
   95MOL   O25843686   3.192   3.298   6.734  0.5530 -0.1805 -0.2811
   95MOL   C25943687   3.242   3.243   6.626  0.1723 -0.3092  0.0224
   95MOL   O26043688   3.350   3.187   6.624  0.4759  0.0236 -0.4858
   95MOL   C26143689   3.147   3.258   6.509  0.5870  0.6135  0.2867
   95MOL   C26243690   3.191   3.217   6.380 -0.3716 -0.0299 -0.0011
   95MOL   C26343691   3.104   3.216   6.275  0.8434  0.1423  0.6138
   95MOL   C26443692   2.974   3.265   6.283 -0.3760  0.6650 -0.3046
   95MOL   C26543693   2.877   3.252   6.177 -0.3173 -0.3256 -0.3209
   95MOL   O26643694   2.756   3.282   6.191 -0.4975  0.4303 -0.1385
   95MOL   O26743695   2.935   3.220   6.061  0.4774 -0.5211  1.0188
   95MOL   C26843696   2.927   3.316   6.406 -0.4583 -0.1764  0.0462
   95MOL   C26943697   3.017   3.311   6.518 -0.6589 -0.3775 -0.4022
   95MOL   H27043698   3.302   3.490   6.979  1.5763  1.2489 -0.4107
   95MOL   H27143699   3.251   3.526   6.815  0.7283 -0.5339 -1.6164
   95MOL   H27243700   3.202   3.276   6.942 -0.0036 -0.8538 -1.0346
   95MOL   H27343701   3.353   3.245   6.852  0.5373 -0.2719  1.2819
   95MOL   H27443702   3.290   3.176   6.370 -0.9336 -1.1293 -1.1384
   95MOL   H27543703   3.142   3.186   6.179  0.3891 -3.6172  1.5430
   95MOL   H27643704   2.829   3.352   6.432 -0.6389  0.9211 -2.0292
   95MOL   H27743705   2.974   3.337   6.613 -1.8256 -1.4687 -0.6214
   95MOL   O27843706   2.828   3.200   5.961  0.1461  0.8211 -0.2658
   95MOL   C27943707   2.841   3.301   5.860 -0.3216  0.4212 -0.3771
   95MOL   C28043708   2.702   3.284   5.789  0.2150 -0.5358  0.2390
   95MOL   O28143709   2.717   3.193   5.684 -0.1257 -0.5881 -0.4982
   95MOL   C28243710   2.676   3.066   5.693  0.6460  0.8897 -0.7241
   95MOL   O28343711   2.610   3.021   5.787  0.1116  0.3085  0.1398
   95MOL   C28443712   2.708   2.981   5.571 -0.2730  0.4066 -0.1845
   95MOL   C28543713   2.671   2.846   5.573 -0.0477  0.1710  0.5503
   95MOL   C28643714   2.699   2.754   5.460 -0.1112  0.6735  0.1051
   95MOL   C28743715   2.765   2.813   5.351  0.3501  0.4124 -0.6719
   95MOL   C28843716   2.795   2.720   5.232 -0.2052  0.0718  0.3594
   95MOL   O28943717   2.802   2.749   5.113  0.0916 -0.2987  0.3100
   95MOL   O29043718   2.815   2.592   5.277  1.0672 -0.2772  0.3188
   95MOL   C29143719   2.795   2.946   5.344 -1.1354  0.0255  0.3013
   95MOL   C29243720   2.763   3.034   5.450  0.4797  0.1441  0.0080
   95MOL   H29343721   2.861   3.398   5.906  0.6129 -0.2862  0.7316
   95MOL   H29443722   2.921   3.277   5.790 -0.2697  1.2041 -0.5940
   95MOL   H29543723   2.680   3.377   5.737  2.9775 -0.5396 -1.0141
   95MOL   H29643724   2.627   3.271   5.867 -0.4689  0.9861 -0.1421
   95MOL   H29743725   2.655   2.808   5.673 -0.0845 -0.5831  0.2586
   95MOL   H29843726   2.693   2.648   5.483  0.4050  0.3445 -1.2564
   95MOL   H29943727   2.840   2.993   5.258  0.9385  0.4449  1.5564
   95MOL   H30043728   2.772   3.141   5.449 -1.2492  0.3162  0.7520
   95MOL   O30143729   2.863   2.489   5.177 -0.3114 -0.0237  0.4475
   95MOL   C30243730   2.748   2.451   5.099  0.5742 -0.5411 -0.3759
   95MOL   C30343731   2.770   2.306   5.042  0.2128 -0.3513  0.0909
   95MOL   O30443732   2.758   2.229   5.167 -0.2418  0.1651 -0.4306
   95MOL   C30543733   2.772   2.095   5.172 -0.1572  0.3029  0.3604
   95MOL   O30643734   2.798   2.029   5.075  0.3989  0.1818  0.2768
   95MOL   C30743735   2.755   2.045   5.307 -0.6632  0.0739  0.0865
   95MOL   C30843736   2.785   1.909   5.332  0.4631 -0.2046  1.2316
   95MOL   C30943737   2.767   1.850   5.459 -0.3543  0.0971  0.2892
   95MOL   C31043738   2.724   1.930   5.567 -0.3681  0.4877 -0.2260
   95MOL   C31143739   2.719   1.871   5.706  0.0515  0.3377 -0.6449
   95MOL   O31243740   2.691   1.940   5.804  0.0728  0.7509  0.4588
   95MOL   O31343741   2.747   1.735   5.702  0.6111  0.3431 -0.0434
   95MOL   C31443742   2.701   2.070   5.549  0.3788  0.4143  0.0875
   95MOL   C31543743   2.721   2.124   5.423 -0.7833  0.1611  0.3390
   95MOL   H31643744   2.656   2.454   5.157  1.4854  0.6789  1.0474
   95MOL   H31743745   2.738   2.514   5.010  0.8397 -0.5549 -0.4159
   95MOL   H31843746   2.872   2.301   5.004 -0.3315  1.8659 -1.8148
   95MOL   H31943747   2.703   2.269   4.964 -0.2090  0.0508  0.2547
   95MOL   H32043748   2.816   1.843   5.252 -0.2789  0.7858  0.0980
   95MOL   H32143749   2.790   1.745   5.466  1.5880  0.6209  2.4946
   95MOL   H32243750   2.678   2.129   5.637  1.0966  0.0547  0.5157
   95MOL   H32343751   2.714   2.231   5.415 -0.2215  0.3293  2.0434
   95MOL   O32443752   2.745   1.663   5.843 -0.4865 -0.6359 -0.2739
   95MOL   C32543753   2.878   1.625   5.871  0.1723 -0.0130 -0.3075
   95MOL   C32643754   2.868   1.494   5.942 -0.9046 -0.4652  0.3104
   95MOL   O32743755   2.993   1.441   5.985 -0.5698 -0.9282 -0.4311
   95MOL   C32843756   3.053   1.346   5.913  0.0068 -0.3226 -0.3169
   95MOL   O32943757   2.999   1.300   5.813  0.3217  0.0041 -0.2631
   95MOL   C33043758   3.157   1.276   5.990 -0.3113 -0.0427 -0.3984
   95MOL   C33143759   3.218   1.343   6.098  0.3895  0.3870  0.4741
   95MOL   C33243760   3.326   1.298   6.165 -0.1686  0.4567 -0.1778
   95MOL   C33343761   3.388   1.175   6.122  0.8492 -0.0098 -0.4141
   95MOL   C33443762   3.521   1.135   6.171  0.4347  0.6283  0.0377
   95MOL   O33543763   3.582   1.034   6.134  0.0757 -0.4215 -0.1250
   95MOL   O33643764   3.578   1.227   6.258 -0.0993  0.2052 -0.4450
   95MOL   C33743765   3.334   1.106   6.015 -0.4346  0.0473  0.1633
   95MOL   C33843766   3.227   1.155   5.946  0.7656  0.7683 -1.1155
   95MOL   H33943767   2.938   1.615   5.780 -1.2633 -0.7029 -1.1845
   95MOL   H34043768   2.922   1.699   5.938 -0.7222 -0.6406  0.9794
   95MOL   H34143769   2.814   1.423   5.880  0.6695 -0.9486 -0.5353
   95MOL   H34243770   2.815   1.505   6.036 -0.3310 -0.2404  0.6109
   95MOL   H34343771   3.186   1.443   6.124  0.0203  0.5428 -0.5469
   95MOL   H34443772   3.367   1.365   6.239  1.6112  0.8203 -1.4528
   95MOL   H34543773   3.381   1.019   5.971 -0.6215  0.6719 -1.3291
   95MOL   H34643774   3.199   1.106   5.854  0.7789 -0.3792 -0.5060
   95MOL   O34743775   3.720   1.190   6.279 -0.1301 -0.5013 -0.4942
   95MOL   C34843776   3.796   1.281   6.207  0.1664 -0.2605 -0.3647
   95MOL   C34943777   3.797   1.259   6.059 -0.3082 -0.5550 -0.8883
   95MOL   O35043778   3.701   1.348   5.997 -0.1205 -0.6546 -0.0143
   95MOL   C35143779   3.740   1.479   5.971  0.2942  0.0915 -0.5850
   95MOL   O35243780   3.856   1.525   5.992  0.2148 -0.7216 -0.0717
   95MOL   C35343781   3.629   1.558   5.924  0.1147 -0.1597  0.0305
   95MOL   C35443782   3.500   1.509   5.888  0.3712  0.1412  0.7258
   95MOL   C35543783   3.392   1.591   5.864  0.0086  0.3266 -0.5473
   95MOL   C35643784   3.415   1.731   5.864 -0.2195 -0.2788 -0.4098
   95MOL   C35743785   3.304   1.824   5.833 -0.1299 -0.6306  0.5078
   95MOL   O35843786   3.305   1.949   5.848  0.4567  0.5055  0.3189
   95MOL   O35943787   3.202   1.758   5.778  0.4970 -0.2918  0.1667
   95MOL   C36043788   3.544   1.786   5.888 -0.1403  0.1488  0.6823
   95MOL   C36143789   3.647   1.699   5.913 -0.1234  0.7997 -0.2127
   95MOL   H36243790   3.755   1.378   6.238 -1.9036 -2.1210  3.0521
   95MOL   H36343791   3.898   1.262   6.242 -0.9565 -1.3799  2.4111
   95MOL   H36443792   3.769   1.157   6.031 -2.5122 -0.2222  0.0613
   95MOL   H36543793   3.899   1.294   6.044  0.0571 -0.3212  1.9190
   95MOL   H36643794   3.478   1.405   5.907  0.2461  0.3402  1.7107
   95MOL   H36743795   3.296   1.543   5.850  1.6773 -3.1541 -0.5709
   95MOL   H36843796   3.571   1.890   5.873  1.5100 -0.5326 -1.2984
   95MOL   H36943797   3.745   1.741   5.927  0.4190 -0.4889 -0.1715
   95MOL   O37043798   3.085   1.842   5.740  0.1048 -0.2368  0.4989
   95MOL   C37143799   3.106   1.881   5.608  0.3679  0.1168 -0.0998
   95MOL   C37243800   3.117   1.756   5.511  0.5108 -0.3948 -0.6736
   95MOL   O37343801   3.251   1.720   5.480 -0.8207 -0.2830 -0.2539
   95MOL   C37443802   3.274   1.617   5.409 -0.2180  0.1947 -0.4504
   95MOL   O37543803   3.183   1.540   5.373 -0.7923  0.0803 -0.2807
   95MOL   C37643804   3.423   1.587   5.388  0.0243 -0.0550  0.3756
   95MOL   C37743805   3.465   1.475   5.309  0.5760  0.1536  0.1608
   95MOL   C37843806   3.594   1.439   5.276 -0.2311 -0.2681 -0.2992
   95MOL   C37943807   3.698   1.529   5.314  0.0669  0.2399 -0.2707
   95MOL   C38043808   3.826   1.515   5.264 -0.1308  0.2662 -0.2083
   95MOL   O38143809   3.924   1.567   5.315 -0.2745  0.0190  0.0688
   95MOL   O38243810   3.830   1.446   5.146 -0.6709  0.1878  0.0324
   95MOL   C38343811   3.662   1.645   5.392  0.1759  0.2599 -0.2086
   95MOL   C38443812   3.530   1.673   5.436  0.0274  0.1202  0.2727
   95MOL   H38543813   3.017   1.933   5.571  0.5569 -0.7086 -1.7535
   95MOL   H38643814   3.188   1.952   5.597  1.4673 -0.9966  0.7879
   95MOL   H38743815   3.062   1.780   5.419  1.1201 -0.1229 -0.9715
   95MOL   H38843816   3.065   1.673   5.559  1.5273  0.0437  1.2184
   95MOL   H38943817   3.388   1.424   5.252  1.8730 -2.2103  0.4443
   95MOL   H39043818   3.608   1.347   5.222 -0.6034  0.6045 -1.9112
   95MOL   H39143819   3.747   1.707   5.416  0.0357  0.6484 -0.7120
   95MOL   H39243820   3.504   1.753   5.504  0.5545  0.5313 -0.0007
   95MOL   O39343821   3.973   1.427   5.080  0.2679  0.3806  0.3862
   95MOL   C39443822   4.044   1.314   5.143 -0.1632 -0.1015  0.2299
   95MOL   C39543823   4.183   1.304   5.077 -0.3884  0.1330  0.0175
   95MOL   O39643824   4.172   1.259   4.946  0.9567 -0.1519  0.1049
   95MOL   C39743825   4.282   1.237   4.879  0.3756  0.1028  0.3231
   95MOL   O39843826   4.397   1.224   4.917  0.1217 -0.1896  0.1142
   95MOL   C39943827   4.240   1.223   4.739 -0.0880  0.4041  0.4855
   95MOL   C40043828   4.108   1.248   4.696  0.2865  0.6165 -0.4113
   95MOL   C40143829   4.075   1.236   4.557 -0.5117  0.2145  0.4009
   95MOL   C40243830   4.173   1.188   4.462  0.1124 -0.3275 -0.8854
   95MOL   C40343831   4.137   1.169   4.316 -0.5116 -0.4217  0.4583
   95MOL   O40443832   4.218   1.121   4.238  0.0510  0.5751 -0.1718
   95MOL   O40543833   4.015   1.218   4.283  0.3528 -0.3008  0.3804
   95MOL   C40643834   4.303   1.158   4.514  0.3250 -0.4106  0.3662
   95MOL   C40743835   4.339   1.177   4.646 -0.6588  0.5618  0.6474
   95MOL   H40843836   4.053   1.324   5.251  0.7455  0.5997  0.1018
   95MOL   H40943837   3.979   1.228   5.127 -1.5705  0.9727  0.0918
   95MOL   H41043838   4.256   1.245   5.132  0.0642  0.2450 -0.4549
   95MOL   H41143839   4.223   1.405   5.083  2.3703 -0.7695 -1.9966
   95MOL   H41243840   4.031   1.270   4.767  0.5900 -0.0691  0.1423
   95MOL   H41343841   3.973   1.246   4.523  0.0898 -1.5708 -2.0104
   95MOL   H41443842   4.382   1.135   4.444  0.5774  1.7140 -0.0647
   95MOL   H41543843   4.441   1.150   4.670 -0.4072  0.8278 -0.1295
   95MOL   O41643844   4.003   1.242   4.138 -0.2692 -0.2282 -0.3054
   95MOL   C41743845   3.895   1.152   4.096 -0.2247 -0.1499  0.4533
   95MOL   C41843846   3.848   1.202   3.958 -0.2154 -0.6253 -0.0519
   95MOL   O41943847   3.711   1.190   3.928  0.1495 -0.3118 -0.1155
   95MOL   C42043848   3.624   1.266   3.999  0.2462 -1.0532  0.6112
   95MOL   O42143849   3.647   1.357   4.078 -0.3607  0.1873 -0.1865
   95MOL   C42243850   3.484   1.222   3.973  0.1209  0.2109  0.7474
   95MOL   C42343851   3.460   1.147   3.857  0.2122 -0.3584  0.7230
   95MOL   C42443852   3.324   1.110   3.825  0.2071  0.1970  0.3771
   95MOL   C42543853   3.214   1.143   3.912  0.1064 -0.1116  0.0542
   95MOL   C42643854   3.068   1.096   3.890 -0.5610 -0.0572  0.1228
   95MOL   O42743855   2.986   1.097   3.975 -0.2222  0.0664 -0.5136
   95MOL   O42843856   3.060   1.047   3.774  0.4055 -0.9389  0.3366
   95MOL   C42943857   3.244   1.219   4.023 -0.0794 -0.6095 -0.0267
   95MOL   C43043858   3.376   1.260   4.054  0.4686  0.2284 -0.2530
   95MOL   H43143859   3.948   1.057   4.084  1.1805  0.5342  1.1065
   95MOL   H43243860   3.810   1.138   4.162  0.2781 -0.5236  1.0279
   95MOL   H43343861   3.894   1.150   3.875 -2.2525 -3.5816  0.5979
   95MOL   H43443862   3.859   1.309   3.939 -0.4131 -0.3388  1.3635
   95MOL   H43543863   3.536   1.129   3.783  0.3374  0.5288  0.6316
   95MOL   H43643864   3.302   1.051   3.738 -1.7217 -0.8461  1.5469
   95MOL   H43743865   3.159   1.244   4.085 -1.0620 -0.6884 -1.3379
   95MOL   H43843866   3.389   1.334   4.132  2.1913  0.3674 -0.6541
   95MOL   O43943867   2.920   1.006   3.742  0.2269 -0.0178 -0.4884
   95MOL   C44043868   2.916   0.872   3.769 -0.8392 -0.1457  0.3792
   95MOL   C44143869   2.774   0.823   3.739 -0.9614  0.7008  0.7545
   95MOL   O44243870   2.746   0.686   3.759 -0.0300  0.1389  0.5589
   95MOL   C44343871   2.762   0.599   3.658 -0.2087  0.0570 -0.4539
   95MOL   O44443872   2.806   0.620   3.544  0.4571 -0.5253 -0.4320
   95MOL   C44543873   2.711   0.460   3.695 -0.1320 -0.1102 -0.1524
   95MOL   C44643874   2.747   0.348   3.618  0.2600 -0.2546 -0.7532
   95MOL   C44743875   2.702   0.220   3.648 -0.7640  0.4628 -0.2982
   95MOL   C44843876   2.619   0.201   3.763  0.0648 -0.1494  0.7304
   95MOL   C44943877   2.579   0.065   3.809  0.3595  0.0211  0.2304
   95MOL   O45043878   2.488   0.049   3.890 -0.0237 -0.1368 -0.4634
   95MOL   O45143879   2.639   8.236   3.748  0.2493 -0.1261  0.2247
   95MOL   C45243880   2.577   0.310   3.844 -0.5150 -0.1336 -0.0852
   95MOL   C45343881   2.624   0.440   3.805  0.3050  0.2410  0.5628
   95MOL   H45443882   2.979   0.808   3.707 -0.3366  0.3005  0.4243
   95MOL   H45543883   2.947   0.863   3.873 -0.0893  0.8327  0.2517
   95MOL   H45643884   2.742   0.850   3.639 -0.1465  1.0562  0.5902
   95MOL   H45743885   2.706   0.875   3.807 -2.5044  1.1594 -1.0872
   95MOL   H45843886   2.821   0.361   3.540  0.6941 -1.0131 -0.4721
   95MOL   H45943887   2.730   0.127   3.601 -1.2531  0.5666 -0.7966
   95MOL   H46043888   2.509   0.303   3.928 -2.4025  1.3621 -1.4650
   95MOL   H46143889   2.586   0.522   3.865 -0.8938  0.8215 -0.9660
   95MOL   H46243890   2.589   8.158   3.767 -1.1490  0.0747 -2.3475
   96MOL     O143891   4.755   8.271   7.199 -0.4834 -0.2748 -0.4836
   96MOL     C243892   4.648   0.090   7.173  0.2233  0.7874  0.2306
   96MOL     C343893   4.704   0.225   7.196 -0.3184  0.2309 -0.1174
   96MOL     O443894   4.724   0.233   7.333 -0.3326 -0.0645 -0.0711
   96MOL     C543895   4.628   0.291   7.407 -0.4507 -0.5852 -0.3227
   96MOL     O643896   4.517   0.327   7.360 -0.3193 -0.6849 -0.0364
   96MOL     C743897   4.667   0.317   7.548  0.3658 -0.1777  0.1413
   96MOL     C843898   4.794   0.284   7.595  0.2163 -0.1246 -0.0573
   96MOL     C943899   4.835   0.309   7.725 -0.3159 -0.1515 -0.0975
   96MOL    C1043900   4.747   0.358   7.822  0.1179  0.4747 -0.6558
   96MOL    C1143901   4.798   0.367   7.968  0.4434 -0.6312  0.2486
   96MOL    O1243902   4.912   0.331   7.996 -0.0678 -0.0472 -0.1388
   96MOL    O1343903   4.711   0.422   8.055 -0.0545 -0.4357 -0.3450
   96MOL    C1443904   4.622   0.397   7.773  0.2681 -0.4259 -0.4677
   96MOL    C1543905   4.575   0.373   7.642  0.0057  0.2817 -0.0478
   96MOL    H1643906   4.601   0.069   7.077 -1.1673 -2.7667  1.5829
   96MOL    H1743907   4.569   0.078   7.248  2.0074 -0.6795  1.9280
   96MOL    H1843908   4.620   0.286   7.162 -0.6784  0.5885  1.3670
   96MOL    H1943909   4.791   0.248   7.135 -0.5468 -0.1958 -0.6011
   96MOL    H2043910   4.869   0.246   7.527  0.1533  0.4370 -0.4426
   96MOL    H2143911   4.939   0.288   7.745  0.6256  1.6601 -2.7775
   96MOL    H2243912   4.546   0.436   7.840  0.2929  1.1631 -1.3603
   96MOL    H2343913   4.472   0.384   7.612 -0.6930 -2.5957  1.1257
   96MOL    H2443914   4.773   8.268   7.291  0.6580  3.6776 -0.5147
   96MOL    O2543915   4.712   0.338   8.184  0.0653 -0.0975  0.0842
   96MOL    C2643916   4.590   0.285   8.195  0.7667 -0.1330  0.3793
   96MOL    C2743917   4.584   0.198   0.041  0.1459 -0.4306  0.3357
   96MOL    O2843918   4.679   0.079   0.040 -0.0674 -0.3708 -0.3621
   96MOL    C2943919   4.783   0.090   0.119 -0.7454 -0.1160  0.5172
   96MOL    O3043920   4.785   0.172   0.214 -0.1135  0.2821 -0.1352
   96MOL    C3143921   4.887   8.263   0.091  0.5485  0.0425  0.7048
   96MOL    C3243922   4.875   8.168   8.265 -0.5084 -0.0475  0.2359
   96MOL    C3343923   4.975   8.069   8.242  0.2768  0.4739  0.0497
   96MOL    C3443924   5.097   8.079   0.038  0.3372 -0.3464 -0.2595
   96MOL    C3543925   5.213   7.985   0.003  0.2817 -0.2876  0.3128
   96MOL    O3643926   5.321   7.994   0.055 -0.3358 -0.7669  0.3044
   96MOL    O3743927   5.189   7.886   8.188  0.4046  0.0418  0.2597
   96MOL    C3843928   5.110   8.171   0.139 -1.1033  0.4392 -0.0319
   96MOL    C3943929   5.004   8.260   0.170 -0.4763 -0.1092  0.5089
   96MOL    H4043930   4.518   0.367   8.192 -0.1006 -0.9274 -0.9417
   96MOL    H4143931   4.575   0.225   8.105  1.3735 -0.0881  0.2494
   96MOL    H4243932   4.491   0.142   0.043  0.2346 -0.6319 -1.0108
   96MOL    H4343933   4.581   0.266   0.126 -1.7133 -1.6096  1.2311
   96MOL    H4443934   4.784   8.165   8.208 -0.5187  2.9225  0.0325
   96MOL    H4543935   4.964   7.993   8.166  0.6529  1.5611 -1.0996
   96MOL    H4643936   5.209   8.175   0.182 -0.8068 -3.0006 -0.2544
   96MOL    H4743937   5.036   0.065   0.235  0.8514 -1.1018  1.1019
   96MOL    O4843938   5.313   7.814   8.154 -0.0886 -0.2587 -0.2586
   96MOL    C4943939   5.322   7.693   8.237  0.3787  0.1323 -0.2067
   96MOL    C5043940   5.409   7.589   8.164 -0.7073 -0.1838  0.5460
   96MOL    O5143941   5.542   7.638   8.160  0.1253  0.0430  0.3548
   96MOL    C5243942   5.632   7.629   8.263  0.7820 -0.2478  0.2735
   96MOL    O5343943   5.629   7.530   0.062 -0.1016 -0.0990 -0.4460
   96MOL    C5443944   5.741   7.728   8.257  0.6685  0.1589  0.4080
   96MOL    C5543945   5.822   7.746   0.094 -0.2360 -0.1912  0.5496
   96MOL    C5643946   5.943   7.822   0.087 -0.0608  0.1106  0.3200
   96MOL    C5743947   5.969   7.895   8.244 -0.0731 -0.6523 -0.6485
   96MOL    C5843948   6.098   7.979   8.238 -0.1437  0.3875  1.0275
   96MOL    O5943949   6.193   7.962   0.037  0.0005  0.0317 -0.8640
   96MOL    O6043950   6.101   8.071   8.139  0.0437 -0.5132  0.4351
   96MOL    C6143951   5.880   7.885   8.137 -0.4906  0.5394 -0.0453
   96MOL    C6243952   5.766   7.804   8.140 -0.1825 -0.1355  0.1480
   96MOL    H6343953   5.358   7.720   0.061  1.7482 -3.3537  0.3368
   96MOL    H6443954   5.220   7.654   8.246 -0.5096  2.6965  1.4197
   96MOL    H6543955   5.371   7.590   8.062  0.1075 -0.8319  0.2318
   96MOL    H6643956   5.418   7.484   8.192 -0.9846 -0.3294  0.0915
   96MOL    H6743957   5.794   7.708   0.191 -1.5491  0.1076  0.2996
   96MOL    H6843958   5.995   7.822   0.182 -1.7987  1.8739  1.3177
   96MOL    H6943959   5.904   7.947   8.052 -1.4562  0.1974 -0.5617
   96MOL    H7043960   5.699   7.800   8.056  1.3687  3.6677 -1.3678
   96MOL    O7143961   6.235   8.147   8.132 -0.3298  0.5962  0.4020
   96MOL    C7243962   6.313   8.064   8.042 -0.2207 -0.4423 -0.3447
   96MOL    C7343963   6.445   8.135   8.002 -0.4702  0.5598 -0.4331
   96MOL    O7443964   6.439   8.223   7.888 -0.3280 -0.2729  0.2749
   96MOL    C7543965   6.475   8.181   7.762 -0.5218 -1.0210 -0.1237
   96MOL    O7643966   6.507   8.067   7.730  0.6130 -0.1012 -0.7301
   96MOL    C7743967   6.487   0.017   7.670  1.2793 -0.0556  0.8328
   96MOL    C7843968   6.521   0.005   7.531  0.0237 -0.0096 -0.4249
   96MOL    C7943969   6.530   0.110   7.436 -0.0920  0.3229  0.2718
   96MOL    C8043970   6.501   0.241   7.483 -0.4437  0.3454 -0.4893
   96MOL    C8143971   6.499   0.353   7.388 -0.5337  0.1772  0.2452
   96MOL    O8243972   6.529   0.336   7.270  0.5158 -0.2122  0.0080
   96MOL    O8343973   6.464   0.468   7.448 -0.2013  0.1140 -0.5497
   96MOL    C8443974   6.469   0.260   7.619  0.1404  0.8511 -0.1748
   96MOL    C8543975   6.462   0.152   7.710  0.0930  0.2075 -0.8008
   96MOL    H8643976   6.340   7.970   8.092  0.5261 -0.1506 -0.1963
   96MOL    H8743977   6.264   8.027   7.951 -0.2625 -1.4960  0.0923
   96MOL    H8843978   6.516   8.053   7.986 -1.5230 -0.3979 -0.2919
   96MOL    H8943979   6.481   8.184   8.092 -2.1332 -0.8652  1.0661
   96MOL    H9043980   6.546   8.178   7.506 -0.1420 -0.2627  0.4037
   96MOL    H9143981   6.559   0.090   7.334  0.7180  2.6889  0.0155
   96MOL    H9243982   6.443   0.360   7.648  1.4099  0.7170  1.4556
   96MOL    H9343983   6.442   0.192   7.809  1.0096  0.9676 -0.9163
   96MOL    O9443984   6.479   0.588   7.357  0.4242  0.6531  0.0961
   96MOL    C9543985   6.352   0.602   7.298  0.3808  0.6026 -0.2800
   96MOL    C9643986   6.246   0.672   7.390 -0.5128  0.5901 -0.6093
   96MOL    O9743987   6.185   0.566   7.461 -0.3214 -0.0701 -0.6561
   96MOL    C9843988   6.198   0.562   7.599 -0.4582  0.1347 -0.2982
   96MOL    O9943989   6.229   0.662   7.662  0.0405 -0.3409 -0.1718
   96MOL   C10043990   6.165   0.433   7.667  0.3800 -0.1945 -0.6419
   96MOL   C10143991   6.136   0.432   7.803  0.5630 -0.4778  0.0155
   96MOL   C10243992   6.103   0.303   7.863 -0.4411 -0.1281 -0.1112
   96MOL   C10343993   6.112   0.184   7.786  1.2714  0.4105  0.0190
   96MOL   C10443994   6.072   0.053   7.850  0.4647  0.2193 -0.1089
   96MOL   O10543995   6.026   0.036   7.965 -0.1610  0.1833 -0.0847
   96MOL   O10643996   6.089   8.218   7.764 -0.0059 -0.1919 -0.3189
   96MOL   C10743997   6.136   0.189   7.649 -0.0398  0.1366  0.4011
   96MOL   C10843998   6.164   0.312   7.587 -0.7590 -0.0053 -0.0149
   96MOL   H10943999   6.372   0.663   7.209  1.6052 -0.8917 -1.0511
   96MOL   H11044000   6.313   0.512   7.250  1.1093 -0.8969  1.8892
   96MOL   H11144001   6.167   0.710   7.324  1.1169  3.1803 -1.1574
   96MOL   H11244002   6.297   0.752   7.444  1.9430  1.3612 -3.9267
   96MOL   H11344003   6.129   0.514   7.873  0.5998 -2.3833  2.3294
   96MOL   H11444004   6.067   0.308   7.965  0.2720  2.8097  0.0506
   96MOL   H11544005   6.136   0.103   7.583 -0.2886 -0.6061  1.3609
   96MOL   H11644006   6.196   0.331   7.486  1.5010  0.0255  0.6710
   96MOL   O11744007   6.016   8.095   7.817 -0.1404  0.2226 -0.3027
   96MOL   C11844008   5.925   8.056   7.709 -0.7131 -0.2585  0.4649
   96MOL   C11944009   5.815   7.975   7.763  0.0260  1.1634  0.2518
   96MOL   O12044010   5.800   7.859   7.682  0.0148 -0.2002 -0.0631
   96MOL   C12144011   5.749   7.868   7.560 -0.1224  0.3313  0.3910
   96MOL   O12244012   5.714   7.974   7.509 -0.2841 -0.1685 -0.2197
   96MOL   C12344013   5.729   7.734   7.495 -0.0655  0.0279  0.0331
   96MOL   C12444014   5.678   7.726   7.361 -0.4501 -0.4050  0.2188
   96MOL   C12544015   5.677   7.602   7.297 -0.5244 -0.3842  0.8941
   96MOL   C12644016   5.718   7.484   7.356  1.4857  0.1726  0.1709
   96MOL   C12744017   5.715   7.350   7.285 -0.2987  0.2445  0.5103
   96MOL   O12844018   5.760   7.245   7.330 -0.2003  0.7789  0.2812
   96MOL   O12944019   5.638   7.349   7.171 -0.7332  0.3754 -0.7792
   96MOL   C13044020   5.753   7.491   7.489 -0.4109 -0.6178 -0.8236
   96MOL   C13144021   5.761   7.612   7.554 -0.4867  0.5084  0.6741
   96MOL   H13244022   5.887   8.148   7.664 -2.5767 -0.9137  0.6663
   96MOL   H13344023   5.993   7.998   7.646 -0.6818  1.6262 -1.2835
   96MOL   H13444024   5.720   8.026   7.775 -0.8963 -0.0804 -1.5020
   96MOL   H13544025   5.836   7.936   7.863 -1.4542 -1.0222 -0.2450
   96MOL   H13644026   5.639   7.814   7.312 -1.1149  0.5376  2.3483
   96MOL   H13744027   5.640   7.581   7.197 -1.6531  1.7083  0.8518
   96MOL   H13844028   5.776   7.398   7.538  2.1679 -0.5804 -1.8763
   96MOL   H13944029   5.808   7.599   7.650 -1.0234  1.4583  1.0639
   96MOL   O14044030   5.626   7.202   7.114 -0.0086  0.1619  0.4323
   96MOL   C14144031   5.716   7.200   7.002  0.5431 -0.0135  0.4041
   96MOL   C14244032   5.781   7.059   7.003 -0.0294  0.4347 -0.6969
   96MOL   O14344033   5.839   7.030   7.129  0.3063  0.3252 -0.1325
   96MOL   C14444034   5.961   7.066   7.171  0.1208  0.0964 -0.0030
   96MOL   O14544035   6.031   7.151   7.115  0.0533 -0.1080  0.1288
   96MOL   C14644036   5.990   7.005   7.304  0.0054  0.7550  0.9604
   96MOL   C14744037   5.903   6.909   7.366 -0.0394 -0.1356  0.8566
   96MOL   C14844038   5.939   6.853   7.491  0.3551 -0.4523  0.1952
   96MOL   C14944039   6.062   6.884   7.554 -0.1553 -0.2008  0.2295
   96MOL   C15044040   6.092   6.841   7.696 -0.1935  0.2689 -0.3680
   96MOL   O15144041   6.045   6.742   7.755 -0.4913  0.3503 -0.6767
   96MOL   O15244042   6.183   6.925   7.763 -0.0567  0.2690  0.2543
   96MOL   C15344043   6.149   6.972   7.488  0.9072  0.2016  0.0468
   96MOL   C15444044   6.107   7.045   7.376 -0.6361  0.2274 -0.6685
   96MOL   H15544045   5.668   7.227   6.908 -2.3605 -1.2078  1.4677
   96MOL   H15644046   5.789   7.279   7.014  1.6995 -0.4902 -3.0342
   96MOL   H15744047   5.859   7.068   6.927  1.9689 -2.4234  0.9315
   96MOL   H15844048   5.710   6.983   6.969  0.6214 -0.5236  0.0478
   96MOL   H15944049   5.811   6.875   7.321 -1.0866 -0.1647  2.9399
   96MOL   H16044050   5.872   6.787   7.545 -1.2548  0.8554 -0.1771
   96MOL   H16144051   6.238   7.004   7.540  0.3686  0.9141  0.5433
   96MOL   H16244052   6.175   7.121   7.340  2.9068 -2.1632  0.7128
   96MOL   O16344053   6.174   6.924   7.912  0.4529  0.4843  0.1974
   96MOL   C16444054   6.106   7.044   7.948 -0.3416  0.0274 -0.1908
   96MOL   C16544055   6.120   7.072   8.100  0.0783 -0.6652 -0.4263
   96MOL   O16644056   6.211   7.183   8.109  0.2434  0.0336  0.7251
   96MOL   C16744057   6.175   7.311   8.144 -0.1834  0.8149 -0.2526
   96MOL   O16844058   6.058   7.335   8.169 -0.3165  0.4241 -0.1600
   96MOL   C16944059   6.282   7.411   8.157  0.4830  0.2109 -0.1452
   96MOL   C17044060   6.257   7.530   8.239 -0.0652 -0.7091  0.1757
   96MOL   C17144061   6.368   7.620   8.266  0.0880  0.0366 -0.1715
   96MOL   C17244062   6.495   7.599   8.203 -0.1504  0.1368  0.0529
   96MOL   C17344063   6.604   7.701   8.208  0.3204  0.6782  0.2800
   96MOL   O17444064   6.719   7.668   8.177 -0.6634 -0.1659  0.0978
   96MOL   O17544065   6.571   7.827   8.248 -0.4296  0.3409 -0.2190
   96MOL   C17644066   6.518   7.474   8.135  0.5143 -0.1839 -0.0424
   96MOL   C17744067   6.412   7.384   8.108 -0.0080 -0.1495 -0.5702
   96MOL   H17844068   6.156   7.117   7.884  1.2292  0.3485  1.3585
   96MOL   H17944069   6.006   7.030   7.908  0.8265  0.3820 -3.3837
   96MOL   H18044070   6.162   6.983   8.145 -2.8584 -1.8187  0.1593
   96MOL   H18144071   6.020   7.100   8.134  0.5480 -1.0627  1.3173
   96MOL   H18244072   6.164   7.555   0.013  0.4550 -0.9335  1.2736
   96MOL   H18344073   6.353   7.708   0.052  0.2604  0.9217 -1.3675
   96MOL   H18444074   6.619   7.454   8.103  1.3945 -0.2913  2.6498
   96MOL   H18544075   6.423   7.290   8.056  1.7520  1.1369 -2.5909
   96MOL   O18644076   6.676   7.930   8.229  0.7675  0.5658  0.2653
   96MOL   C18744077   6.704   7.988   0.078 -0.1380 -0.3239  0.2809
   96MOL   C18844078   6.856   8.036   0.085  0.0174  0.0197 -0.2587
   96MOL   O18944079   6.886   8.122   0.186  0.0599 -0.2892 -0.2572
   96MOL   C19044080   6.907   8.249   0.165  0.0358  0.1029 -0.7636
   96MOL   O19144081   6.898   0.028   0.051  0.1252  0.5613  0.5284
   96MOL   C19244082   6.952   0.044   0.290  0.0095 -0.2077  0.5970
   96MOL   C19344083   6.982   8.256   0.412 -0.0634 -0.0419  0.2395
   96MOL   C19444084   7.038   0.060   0.512 -0.0877 -0.6041 -0.3620
   96MOL   C19544085   7.061   0.199   0.499  0.1895 -0.6021  0.4447
   96MOL   C19644086   7.131   0.275   0.601 -0.3388 -0.5066  0.0059
   96MOL   O19744087   7.133   0.397   0.608  0.2048  0.1064 -0.0925
   96MOL   O19844088   7.206   0.203   0.687 -0.7222 -0.2544 -0.1253
   96MOL   C19944089   7.013   0.264   0.383 -0.1302 -0.0296 -0.5609
   96MOL   C20044090   6.958   0.188   0.280  0.3491 -0.0410  0.1972
   96MOL   H20144091   6.639   8.075   0.092  0.7707  0.1625  1.5782
   96MOL   H20244092   6.678   7.916   0.156 -1.5203 -0.6263 -0.4415
   96MOL   H20344093   6.895   8.071   8.265 -1.6400  1.9014 -0.2924
   96MOL   H20444094   6.924   7.952   0.097  2.0271  1.7762  0.9880
   96MOL   H20544095   6.985   8.148   0.413  0.2817 -0.0429 -0.4731
   96MOL   H20644096   7.087   0.014   0.598  2.5161 -1.5780 -2.2982
   96MOL   H20744097   7.028   0.370   0.371  0.1736  0.2662  2.1370
   96MOL   H20844098   6.942   0.238   0.186  1.8720 -1.1309 -0.6631
   96MOL   O20944099   7.289   0.272   0.792  0.2785  0.0342 -0.8562
   96MOL   C21044100   7.214   0.264   0.916  0.0524  0.0290 -0.1469
   96MOL   C21144101   7.229   0.123   0.981 -0.3516  0.0975  0.2400
   96MOL   O21244102   7.168   0.018   0.908  0.2152 -0.5393 -0.3918
   96MOL   C21344103   7.034   0.011   0.905  0.6303  0.1131  0.2841
   96MOL   O21444104   6.959   0.081   0.973  0.1971 -0.2082  0.3025
   96MOL   C21544105   6.991   8.179   0.811  0.4591 -0.3210 -0.3711
   96MOL   C21644106   6.855   8.176   0.766 -0.2290 -0.4585  0.1108
   96MOL   C21744107   6.811   8.081   0.679 -0.3962  0.3032 -0.2172
   96MOL   C21844108   6.899   7.991   0.622 -0.2424  0.1326  0.4889
   96MOL   C21944109   6.860   7.882   0.524  0.1445 -0.0938  0.7830
   96MOL   O22044110   6.741   7.862   0.492 -0.1634 -0.2896  0.0472
   96MOL   O22144111   6.959   7.805   0.472 -0.5433  0.6440  0.3626
   96MOL   C22244112   7.034   7.992   0.661  0.5252  0.4078 -0.1853
   96MOL   C22344113   7.083   8.091   0.747  0.8074 -0.1353  0.3372
   96MOL   H22444114   7.258   0.342   0.978  0.4269 -0.2690 -0.0377
   96MOL   H22544115   7.108   0.293   0.911  0.1918  0.6951  0.5449
   96MOL   H22644116   7.190   0.120   1.083  0.1862 -4.0906  0.3912
   96MOL   H22744117   7.334   0.094   0.977 -1.0186 -2.5766  1.0327
   96MOL   H22844118   6.788   8.251   0.806  0.6925  0.1010  0.6170
   96MOL   H22944119   6.704   8.081   0.664 -0.2461  1.7133 -1.5010
   96MOL   H23044120   7.109   7.927   0.618 -0.7842 -0.2684 -1.4711
   96MOL   H23144121   7.188   8.110   0.768  0.1364  4.3426  0.0968
   96MOL   O23244122   6.901   7.690   0.399  0.3980 -0.4017  0.0484
   96MOL   C23344123   6.926   7.708   0.259  0.1362 -0.1710  0.1908
   96MOL   C23444124   7.086   7.703   0.224 -0.3042 -0.2342 -0.2492
   96MOL   O23544125   7.140   7.833   0.236 -0.4584  0.2019 -0.1172
   96MOL   C23644126   7.239   7.868   0.323  0.4232 -0.0491  0.0561
   96MOL   O23744127   7.278   7.783   0.402  0.3222 -0.1481 -0.4773
   96MOL   C23844128   7.280   8.007   0.312 -0.0478 -0.2098  0.1091
   96MOL   C23944129   7.217   8.098   0.218  0.1503  0.0843  0.1783
   96MOL   C24044130   7.248   8.235   0.231 -0.5123 -0.3050  0.0630
   96MOL   C24144131   7.336   0.021   0.326 -0.0139 -0.1252 -0.6697
   96MOL   C24244132   7.361   0.162   0.325 -0.7636 -0.5081  0.1193
   96MOL   O24344133   7.307   0.242   0.250 -0.1402 -0.0287 -0.4120
   96MOL   O24444134   7.449   0.196   0.426 -0.0983  0.0013  0.2587
   96MOL   C24544135   7.395   8.199   0.417 -0.9572 -0.2265 -0.8150
   96MOL   C24644136   7.368   8.061   0.412 -0.2864  0.0561 -0.2002
   96MOL   H24744137   6.885   7.615   0.221 -0.4189  0.1579 -0.0327
   96MOL   H24844138   6.873   7.794   0.216 -0.9418 -0.5931  0.6472
   96MOL   H24944139   7.110   7.647   0.134 -0.2582 -0.9554  0.2027
   96MOL   H25044140   7.125   7.629   0.294 -0.5468  0.1186  0.2653
   96MOL   H25144141   7.140   8.068   0.150  0.1677 -0.5666  0.4384
   96MOL   H25244142   7.203   0.030   0.162  1.4560  0.4526 -0.4927
   96MOL   H25344143   7.466   8.229   0.492  1.0494  0.4507 -2.9424
   96MOL   H25444144   7.419   7.993   0.478  0.9793  0.6443 -0.5539
   96MOL   O25544145   7.513   0.327   0.389 -0.0934  0.0161  0.6630
   96MOL   C25644146   7.465   0.428   0.478 -0.8020  0.0317  0.0750
   96MOL   C25744147   7.508   0.568   0.444  0.8327 -0.4426 -0.3541
   96MOL   O25844148   7.640   0.589   0.493  0.1798 -0.0462  0.1021
   96MOL   C25944149   7.697   0.707   0.499  0.3141  0.4843 -0.3242
   96MOL   O26044150   7.644   0.812   0.469  0.6138  0.7137 -0.0608
   96MOL   C26144151   7.832   0.702   0.560  0.5062  0.1136  0.1362
   96MOL   C26244152   7.874   0.819   0.626  0.3800  0.8681 -0.4289
   96MOL   C26344153   7.994   0.812   0.705  0.2003 -0.1976  0.0897
   96MOL   C26444154   8.072   0.697   0.714 -0.3550 -1.4676  0.8687
   96MOL   C26544155   8.197   0.690   0.799  0.5123 -0.0346  0.0877
   96MOL   O26644156   8.246   0.791   0.855  0.0197  0.4217  0.0850
   96MOL   O26744157   8.258   0.565   0.806 -0.2155  0.1337 -0.3415
   96MOL   C26844158   8.037   0.593   0.630  0.1116  0.0919  0.4847
   96MOL   C26944159   7.912   0.590   0.571 -0.2800  0.1377  0.3392
   96MOL   H27044160   7.356   0.425   0.481 -0.8150  0.7927  0.4576
   96MOL   H27144161   7.490   0.397   0.579 -0.5079 -0.9490 -0.2888
   96MOL   H27244162   7.456   0.657   0.480  0.6318 -0.9478  0.6184
   96MOL   H27344163   7.502   0.576   0.335 -1.2566 -1.5436 -0.3403
   96MOL   H27444164   7.809   0.905   0.634 -0.3047  0.3262 -0.1451
   96MOL   H27544165   8.015   0.904   0.757  0.0503  0.6309 -1.2690
   96MOL   H27644166   8.103   0.509   0.611  0.0302 -0.1563  1.2723
   96MOL   H27744167   7.887   0.497   0.520  0.3216  0.1677 -0.0186
   96MOL   O27844168   0.099   0.565   0.901  0.1650 -0.5301 -0.1164
   96MOL   C27944169   0.218   0.568   0.822 -0.5308  0.4353  0.0951
   96MOL   C28044170   0.324   0.464   0.868  0.1953 -0.0499 -0.8883
   96MOL   O28144171   0.286   0.334   0.840 -0.0485  0.1802  0.0733
   96MOL   C28244172   0.298   0.289   0.704  0.8685  0.3404  0.2070
   96MOL   O28344173   0.343   0.358   0.614 -0.5913  0.2321 -0.8498
   96MOL   C28444174   0.247   0.151   0.671  0.2448  0.0965  0.6389
   96MOL   C28544175   0.195   0.072   0.778  0.4243 -0.4520  0.5569
   96MOL   C28644176   0.147   8.214   0.748 -0.7629 -0.7340 -0.0768
   96MOL   C28744177   0.147   8.166   0.613  0.0849 -0.7943  0.6576
   96MOL   C28844178   0.089   8.033   0.587 -0.2162  0.1210  0.2992
   96MOL   O28944179   0.038   7.966   0.677 -0.6359 -0.0692 -0.3819
   96MOL   O29044180   0.096   7.996   0.461 -0.1611  0.4867 -0.0582
   96MOL   C29144181   0.183   8.256   0.511  0.2579  0.0473  0.1701
   96MOL   C29244182   0.243   0.105   0.539  0.2152 -0.2871  0.4390
   96MOL   H29344183   0.193   0.549   0.718 -0.0671  1.6039 -0.2384
   96MOL   H29444184   0.264   0.666   0.829  0.7662 -0.0608 -1.0428
   96MOL   H29544185   0.327   0.466   0.977  0.6033  1.3860 -0.9032
   96MOL   H29644186   0.423   0.478   0.826  0.6320  1.7260  0.6159
   96MOL   H29744187   0.185   0.117   0.876  1.1022  0.0981  0.3843
   96MOL   H29844188   0.115   8.142   0.822  1.1206 -2.4099 -0.8442
   96MOL   H29944189   0.172   8.218   0.411 -3.4771 -1.2872  1.0351
   96MOL   H30044190   0.275   0.164   0.454 -0.3541 -1.2558 -0.4694
   96MOL   O30144191   0.056   7.851   0.453 -1.0780  0.8812  0.3521
   96MOL   C30244192   0.176   7.771   0.448 -0.3667  0.1536 -0.5587
   96MOL   C30344193   0.235   7.792   0.309  0.0495  0.4901 -0.4699
   96MOL   O30444194   0.156   7.737   0.206 -0.2689 -0.2152  0.4145
   96MOL   C30544195   0.183   7.764   0.077 -0.4515  0.0380 -0.2563
   96MOL   O30644196   0.280   7.832   0.044 -0.1446 -0.0493 -0.2726
   96MOL   C30744197   0.079   7.708   8.262  0.0788 -0.4672 -0.0946
   96MOL   C30844198   0.078   7.742   8.127  0.3504 -0.2936 -0.6115
   96MOL   C30944199   8.250   7.688   8.043 -0.4988 -0.7484 -0.6590
   96MOL   C31044200   8.142   7.615   8.093 -0.6499  0.3399  0.4573
   96MOL   C31144201   8.043   7.568   7.997  0.5049 -0.0418  0.4770
   96MOL   O31244202   8.054   7.562   7.874  0.0367  0.5264  0.0724
   96MOL   O31344203   7.924   7.555   8.058  0.1552  0.3111  0.3510
   96MOL   C31444204   8.139   7.588   8.230  0.2656  0.5576  0.1098
   96MOL   C31544205   8.243   7.623   0.042 -0.3155 -0.1591 -0.2388
   96MOL   H31644206   0.241   7.806   0.528 -2.6285  1.4670  0.7722
   96MOL   H31744207   0.160   7.664   0.456 -1.0318  0.2001 -1.2342
   96MOL   H31844208   0.330   7.738   0.307 -0.3108 -0.2269  0.8903
   96MOL   H31944209   0.256   7.897   0.293  0.7275  0.4435  0.0865
   96MOL   H32044210   0.158   7.801   8.085 -0.6481  2.1755  0.8635
   96MOL   H32144211   8.246   7.716   7.939  0.4846  2.5807  0.1230
   96MOL   H32244212   8.057   7.531   8.272 -0.2920  0.3834 -1.1858
   96MOL   H32344213   8.240   7.619   0.150  1.9266  1.2133 -0.0726
   96MOL   O32444214   7.810   7.537   7.969 -0.2887 -0.2873 -0.3065
   96MOL   C32544215   7.745   7.662   7.947  0.1448  0.2624 -0.2560
   96MOL   C32644216   7.697   7.739   8.074  0.5618  0.1017 -0.3383
   96MOL   O32744217   7.797   7.809   8.143 -0.0362  0.1140 -0.5126
   96MOL   C32844218   7.815   7.939   8.110  1.1578 -0.1982  0.1444
   96MOL   O32944219   7.749   8.003   8.024 -0.2122  0.1598  0.2143
   96MOL   C33044220   7.914   8.005   8.190 -0.2281  0.5839  0.9004
   96MOL   C33144221   7.926   8.146   8.183  0.5553  0.0688  0.3975
   96MOL   C33244222   8.031   8.208   8.245 -0.3230  0.0601 -0.8314
   96MOL   C33344223   8.132   8.134   0.036 -0.1339 -0.1047 -0.4754
   96MOL   C33444224   8.251   8.198   0.102 -0.0153  0.6587 -0.5505
   96MOL   O33544225   0.048   8.144   0.187 -0.1616  0.4407  0.2068
   96MOL   O33644226   8.270   0.055   0.059 -0.2517 -0.2268  0.3851
   96MOL   C33744227   8.116   7.997   0.048  0.8619  0.9751 -0.7280
   96MOL   C33844228   8.007   7.929   8.264  0.0234  0.2333  0.0141
   96MOL   H33944229   7.819   7.719   7.891 -1.2810  0.0733 -2.3982
   96MOL   H34044230   7.661   7.644   7.879 -0.2681 -1.6835  0.7189
   96MOL   H34144231   7.651   7.670   8.145 -2.0175  0.3893 -1.6391
   96MOL   H34244232   7.619   7.804   8.032  0.8868  0.5771 -0.2026
   96MOL   H34344233   7.843   8.206   8.148 -0.5332 -0.3368  2.2021
   96MOL   H34444234   8.045   0.038   8.228  0.0792  0.2051  0.3824
   96MOL   H34544235   8.188   7.941   0.106 -1.3395 -0.3930  0.7838
   96MOL   H34644236   7.995   7.822   8.273  1.8524 -0.0627 -0.8646
   96MOL   O34744237   0.128   0.112   0.109  0.0588 -0.1196 -0.3733
   96MOL   C34844238   0.095   0.203   0.203  1.1540 -0.5473 -0.2646
   96MOL   C34944239   0.040   0.328   0.130 -0.5249 -0.2762  0.4089
   96MOL   O35044240   8.177   0.329   0.100 -0.0690  0.3685  0.3546
   96MOL   C35144241   8.083   0.359   0.195 -0.3923  0.3022  0.2720
   96MOL   O35244242   8.112   0.379   0.312  0.7307 -0.3898 -0.0285
   96MOL   C35344243   7.946   0.351   0.142 -0.8901 -0.2796  0.4133
   96MOL   C35444244   7.920   0.301   0.008 -0.0257  0.0034  0.4281
   96MOL   C35544245   7.793   0.274   8.231 -0.2346  0.0252 -0.2102
   96MOL   C35644246   7.686   0.335   0.028 -1.2133 -0.1313  0.2753
   96MOL   C35744247   7.553   0.331   8.242  0.2108 -0.0197 -0.3208
   96MOL   O35844248   7.452   0.366   0.024  0.0647  0.1152 -0.1638
   96MOL   O35944249   7.547   0.287   8.119 -0.0862  0.0409  0.3701
   96MOL   C36044250   7.709   0.389   0.159  0.2541 -0.1821  0.3426
   96MOL   C36144251   7.836   0.400   0.218 -0.3882  0.3187 -0.3933
   96MOL   H36244252   0.030   0.155   0.276  0.3865 -0.6144 -0.9826
   96MOL   H36344253   0.191   0.230   0.247  0.5656 -0.5694  1.0551
   96MOL   H36444254   0.105   0.361   0.049  0.8911 -0.7178  1.3333
   96MOL   H36544255   0.059   0.409   0.201  1.2375 -0.1805 -0.1531
   96MOL   H36644256   8.003   0.273   8.220  1.0706  1.1619  1.3409
   96MOL   H36744257   7.790   0.242   8.128 -1.2399 -1.3623  0.2269
   96MOL   H36844258   7.634   0.440   0.217 -0.7677 -0.5186 -0.6746
   96MOL   H36944259   7.845   0.425   0.323 -1.4190  0.0425 -0.2329
   96MOL   O37044260   7.409   0.261   8.059  0.2182  0.2007 -1.7606
   96MOL   C37144261   7.369   0.133   8.088  0.0094 -0.0391 -0.2968
   96MOL   C37244262   7.261   0.086   7.985  0.2052  0.2159 -0.3808
   96MOL   O37344263   7.262   8.221   7.986 -0.0614 -0.5787 -0.0261
   96MOL   C37444264   7.206   8.143   8.077 -0.4112  0.3107  0.0152
   96MOL   O37544265   7.138   8.183   8.168 -0.0829 -0.7615  0.1524
   96MOL   C37644266   7.236   7.998   8.050 -0.3988  0.6180 -0.1084
   96MOL   C37744267   7.177   7.901   8.130 -0.3051 -0.4154  0.1416
   96MOL   C37844268   7.206   7.765   8.116 -0.3921  0.3583 -0.4033
   96MOL   C37944269   7.293   7.720   8.013 -0.5692 -0.4104  0.0106
   96MOL   C38044270   7.314   7.573   7.987  0.5781 -0.2135  0.4596
   96MOL   O38144271   7.412   7.536   7.923 -0.1504  0.0703 -0.3308
   96MOL   O38244272   7.233   7.502   8.054  1.0322  0.0171 -0.5499
   96MOL   C38344273   7.352   7.821   7.928  0.5350 -0.4277  0.4091
   96MOL   C38444274   7.324   7.954   7.948  0.4235  0.1595 -0.0636
   96MOL   H38544275   7.457   0.071   8.074  2.1110  2.2309  2.1747
   96MOL   H38644276   7.342   0.115   8.192  1.9243 -1.3840 -0.0226
   96MOL   H38744277   7.285   0.123   7.885 -0.1976  1.4484 -0.0329
   96MOL   H38844278   7.163   0.119   8.020  0.2727  0.9503 -0.8903
   96MOL   H38944279   7.107   7.930   8.206 -2.2084 -2.5231 -0.7612
   96MOL   H39044280   7.167   7.701   8.193  0.3939 -0.2027 -0.4716
   96MOL   H39144281   7.413   7.799   7.842 -1.1758  0.8158 -1.1362
   96MOL   H39244282   7.379   8.023   7.884 -2.1457  1.5917 -0.8180
   96MOL   O39344283   7.243   7.351   8.026  0.6905  0.4002 -0.6032
   96MOL   C39444284   7.132   7.298   7.962 -0.1093 -0.3950  0.0898
   96MOL   C39544285   7.005   7.331   8.045 -0.8925 -0.0945 -0.6559
   96MOL   O39644286   6.890   7.318   7.968 -0.5258 -0.5353 -0.0609
   96MOL   C39744287   6.821   7.205   7.966  0.2487  0.3482  0.6535
   96MOL   O39844288   6.841   7.103   8.027 -0.7084 -0.2970 -0.7111
   96MOL   C39944289   6.708   7.217   7.870  0.5660 -0.2431  0.1463
   96MOL   C40044290   6.600   7.125   7.886 -0.5951 -0.0193 -0.3996
   96MOL   C40144291   6.489   7.146   7.801  0.3009  0.2753  0.4339
   96MOL   C40244292   6.484   7.244   7.699 -0.0077  0.6824  0.3869
   96MOL   C40344293   6.357   7.252   7.624  0.3739  0.7323  0.5830
   96MOL   O40444294   6.248   7.219   7.667  0.0933  0.0550 -0.4911
   96MOL   O40544295   6.373   7.273   7.499 -0.1607  0.1185 -0.0821
   96MOL   C40644296   6.591   7.335   7.685  0.5414  0.0262  0.0605
   96MOL   C40744297   6.703   7.320   7.775 -0.6532 -0.0369 -0.0612
   96MOL   H40844298   7.125   7.334   7.859  1.1229 -1.5232 -0.4096
   96MOL   H40944299   7.147   7.190   7.960  0.8597 -0.2511 -1.5937
   96MOL   H41044300   6.998   7.437   8.068 -0.9077 -0.3424  0.5065
   96MOL   H41144301   6.995   7.276   8.139 -0.0810  0.6142 -0.1478
   96MOL   H41244302   6.589   7.055   7.967 -1.3533  0.3347 -0.1923
   96MOL   H41344303   6.408   7.075   7.810 -1.4455  2.0780 -0.8705
   96MOL   H41444304   6.582   7.418   7.618  3.1288  0.8101  0.6081
   96MOL   H41544305   6.788   7.386   7.765 -1.0203  0.1889 -1.9569
   96MOL   O41644306   6.251   7.331   7.431  0.3018 -0.1489  0.2349
   96MOL   C41744307   6.279   7.464   7.402  0.0587  0.2265  1.1742
   96MOL   C41844308   6.150   7.546   7.378 -0.1666 -0.5452  0.7645
   96MOL   O41944309   6.178   7.680   7.350 -0.4683 -0.2104  0.3655
   96MOL   C42044310   6.153   7.781   7.436  0.2213 -1.2558  0.4927
   96MOL   O42144311   6.092   7.763   7.543 -0.0005  0.5386  0.1538
   96MOL   C42244312   6.195   7.920   7.386 -0.8413 -0.3016  0.7389
   96MOL   C42344313   6.240   7.931   7.248 -0.4448  0.3283 -0.3004
   96MOL   C42444314   6.253   8.060   7.189  0.4909  0.1206 -0.0522
   96MOL   C42544315   6.247   8.176   7.273  0.0342 -0.1955 -0.2041
   96MOL   C42644316   6.264   0.036   7.211 -0.3434  0.3930  0.0745
   96MOL   O42744317   6.235   0.134   7.277 -0.3117 -0.2502  0.2435
   96MOL   O42844318   6.323   0.046   7.084 -0.0351 -0.4352 -0.3269
   96MOL   C42944319   6.223   8.155   7.412  0.3987 -0.3554  0.1895
   96MOL   C43044320   6.200   8.031   7.470  1.1893 -0.0311 -0.0184
   96MOL   H43144321   6.325   7.519   7.485  0.4821  0.8998  0.5033
   96MOL   H43244322   6.356   7.469   7.325 -1.8447 -2.0426 -0.9510
   96MOL   H43344323   6.087   7.526   7.464  0.5338 -1.7275  1.0064
   96MOL   H43444324   6.091   7.505   7.296  1.5323  0.4635 -1.0188
   96MOL   H43544325   6.250   7.850   7.179 -2.0491  1.7927 -2.3263
   96MOL   H43644326   6.270   8.082   7.085 -0.2708  2.2094  0.2409
   96MOL   H43744327   6.219   8.239   7.480 -1.1099 -0.2903  0.0401
   96MOL   H43844328   6.171   8.028   7.574 -0.7854  1.4738 -0.4917
   96MOL   O43944329   6.363   0.186   7.047  0.6086 -0.1093  0.1946
   96MOL   C44044330   6.455   0.164   6.942  0.4122 -0.1970  0.2039
   96MOL   C44144331   6.581   0.113   7.009 -0.1602  0.3039  0.1936
   96MOL   O44244332   6.584   8.257   7.074 -0.0763  0.7710 -0.0355
   96MOL   C44344333   6.619   8.139   7.007  0.1027 -0.4478 -0.1138
   96MOL   O44444334   6.652   8.143   6.890 -0.1253 -0.2848 -0.2184
   96MOL   C44544335   6.612   8.017   7.091  0.0493  0.6071  0.0123
   96MOL   C44644336   6.589   8.028   7.230  0.6447 -0.4665 -0.3506
   96MOL   C44744337   6.596   7.919   7.317  0.3069  0.5596 -0.6270
   96MOL   C44844338   6.615   7.794   7.263 -0.0765 -0.4117 -0.6867
   96MOL   C44944339   6.620   7.669   7.354  1.1260 -0.0380  0.0907
   96MOL   O45044340   6.685   7.570   7.319 -0.1383 -0.1314  0.4189
   96MOL   O45144341   6.556   7.684   7.477 -0.4204  0.1309  0.3622
   96MOL   C45244342   6.652   7.781   7.126  0.3558  0.2984  0.4056
   96MOL   C45344343   6.651   7.890   7.039  0.2236 -0.2863  0.2644
   96MOL   H45444344   6.420   0.117   6.850 -0.5277  1.2124 -0.1761
   96MOL   H45544345   6.493   0.260   6.908  0.2739 -1.1660 -2.8246
   96MOL   H45644346   6.618   0.188   7.079 -1.4816  0.3791  0.8350
   96MOL   H45744347   6.661   0.120   6.936  0.6844  2.1618  1.2770
   96MOL   H45844348   6.576   8.124   7.277 -1.9032 -1.4695  1.1045
   96MOL   H45944349   6.569   7.942   7.419 -0.5956 -1.2496 -0.4388
   96MOL   H46044350   6.674   7.690   7.071 -1.9846  0.7105 -1.2870
   96MOL   H46144351   6.688   7.884   6.937 -2.1986  1.2439 -0.7698
   96MOL   H46244352   6.609   7.639   7.541 -1.5357  0.7377  1.7434
   97MOL     O144353   1.523   4.891   6.308 -0.0417 -0.3010  0.4016
   97MOL     C244354   1.493   4.752   6.285 -0.0245  0.4897 -0.2381
   97MOL     C344355   1.364   4.745   6.199 -0.0504 -0.2107 -0.4725
   97MOL     O444356   1.383   4.836   6.090  0.2080  1.2067 -0.4615
   97MOL     C544357   1.441   4.789   5.983 -0.1115 -0.5531  0.6115
   97MOL     O644358   1.484   4.674   5.972  0.3211  0.0970  0.1872
   97MOL     C744359   1.439   4.895   5.872  0.8407  0.7812 -0.1745
   97MOL     C844360   1.435   4.854   5.739  0.0580  0.1782  0.6625
   97MOL     C944361   1.431   4.950   5.637 -0.2589 -0.9643  0.3903
   97MOL    C1044362   1.426   5.093   5.667 -0.5852 -0.0503 -0.2301
   97MOL    C1144363   1.407   5.195   5.560  1.2321  0.0665 -0.2156
   97MOL    O1244364   1.407   5.315   5.583 -0.1911  0.2460 -1.0702
   97MOL    O1344365   1.388   5.143   5.442 -0.2971  0.0096 -0.0459
   97MOL    C1444366   1.423   5.125   5.804  0.0774 -0.1417  0.6415
   97MOL    C1544367   1.431   5.029   5.901  0.2753 -0.2996 -0.0501
   97MOL    H1644368   1.582   4.701   6.248  0.8480  0.9474  1.1828
   97MOL    H1744369   1.471   4.708   6.382  0.4448 -0.4264 -0.5389
   97MOL    H1844370   1.282   4.782   6.261 -0.1093  0.9502 -1.2324
   97MOL    H1944371   1.328   4.652   6.155  0.2407 -0.9669  0.8571
   97MOL    H2044372   1.443   4.753   5.700  1.0916  0.2553  0.6590
   97MOL    H2144373   1.431   4.914   5.535  0.3946 -3.3720  1.2218
   97MOL    H2244374   1.423   5.229   5.833  1.5159 -0.0407  0.3414
   97MOL    H2344375   1.441   5.059   6.004  0.0557  2.3242 -0.7554
   97MOL    H2444376   1.608   4.903   6.270  0.8420  0.4049  2.5403
   97MOL    O2544377   1.319   5.235   5.349 -0.2393 -0.4554  0.1602
   97MOL    C2644378   1.188   5.196   5.334  0.6940 -0.6612 -0.5061
   97MOL    C2744379   1.125   5.281   5.233  0.2973  0.4824  1.0973
   97MOL    O2844380   1.153   5.247   5.099  0.5142  0.1594  0.5371
   97MOL    C2944381   1.259   5.304   5.037 -0.1270 -0.1772  0.1141
   97MOL    O3044382   1.330   5.390   5.083 -0.6707  0.3106 -0.3360
   97MOL    C3144383   1.285   5.245   4.902  0.1280  0.9256 -0.4368
   97MOL    C3244384   1.229   5.122   4.862  0.0699  0.1017  0.1505
   97MOL    C3344385   1.246   5.072   4.731  0.1099 -0.0874  0.2949
   97MOL    C3444386   1.322   5.154   4.643  0.9663  0.4330 -0.6228
   97MOL    C3544387   1.321   5.111   4.501 -0.4171 -0.1340  0.3852
   97MOL    O3644388   1.248   5.026   4.447  0.5084 -0.0342 -0.5576
   97MOL    O3744389   1.394   5.198   4.421  0.3126  1.0652  0.0140
   97MOL    C3844390   1.398   5.263   4.691  0.1314 -0.2633  0.1687
   97MOL    C3944391   1.378   5.317   4.818  0.0416  0.3019 -0.6584
   97MOL    H4044392   1.169   5.093   5.306  2.4426 -2.0468  3.0404
   97MOL    H4144393   1.139   5.226   5.427  0.8310 -0.8320 -0.3793
   97MOL    H4244394   1.142   5.387   5.247  1.5873  0.4879 -0.3759
   97MOL    H4344395   1.017   5.286   5.246 -0.0358 -0.9809 -0.7858
   97MOL    H4444396   1.166   5.062   4.926  0.3070 -0.1902  0.1077
   97MOL    H4544397   1.192   4.987   4.693  1.2950 -0.7909  0.1457
   97MOL    H4644398   1.473   5.308   4.627 -1.3350  0.6374 -0.9460
   97MOL    H4744399   1.433   5.405   4.846  1.7158 -1.0216  0.3298
   97MOL    O4844400   1.403   5.176   4.281 -0.1871 -0.4093  0.4171
   97MOL    C4944401   1.518   5.091   4.262  0.4738 -0.4111  0.5589
   97MOL    C5044402   1.654   5.155   4.300 -0.7622 -0.6883  0.0328
   97MOL    O5144403   1.758   5.057   4.288  0.5751 -0.3643  0.0408
   97MOL    C5244404   1.768   4.966   4.387 -0.0468 -0.7436 -0.2271
   97MOL    O5344405   1.687   4.962   4.486 -0.0812 -0.0501  0.0459
   97MOL    C5444406   1.877   4.865   4.367 -0.6335  0.5684 -0.0602
   97MOL    C5544407   1.910   4.771   4.461 -0.1844  0.2355  0.4226
   97MOL    C5644408   2.023   4.685   4.455  0.0651 -0.0650  0.0245
   97MOL    C5744409   2.109   4.693   4.344 -1.2197 -1.2660  0.2173
   97MOL    C5844410   2.229   4.614   4.337  0.1906 -0.1296 -0.3651
   97MOL    O5944411   2.240   4.502   4.391  0.3000 -0.1596 -0.0995
   97MOL    O6044412   2.320   4.671   4.261  0.3958  0.0097 -0.4674
   97MOL    C6144413   2.075   4.792   4.249 -0.5778  0.7408 -0.5775
   97MOL    C6244414   1.961   4.870   4.259 -0.0340 -0.8889  0.2601
   97MOL    H6344415   1.496   5.002   4.319  0.4077  0.6209  2.1804
   97MOL    H6444416   1.524   5.071   4.155  0.8523  0.3029  0.4368
   97MOL    H6544417   1.654   5.200   4.399 -1.6234 -1.1705  0.2526
   97MOL    H6644418   1.661   5.240   4.232 -1.5092 -0.7534 -0.1272
   97MOL    H6744419   1.854   4.746   4.550 -2.1716 -0.9642 -1.1442
   97MOL    H6844420   2.033   4.608   4.531  0.6690  0.6181  0.6355
   97MOL    H6944421   2.121   4.801   4.152 -1.0933 -1.4602 -1.0661
   97MOL    H7044422   1.941   4.943   4.183 -0.1213 -1.0611  0.1167
   97MOL    O7144423   2.444   4.589   4.241  0.2442 -0.0539 -0.3122
   97MOL    C7244424   2.549   4.668   4.299 -0.4554 -0.3269  0.5252
   97MOL    C7344425   2.594   4.797   4.225 -0.4240  0.4212 -0.1557
   97MOL    O7444426   2.517   4.899   4.285 -0.8165  0.3993 -0.4986
   97MOL    C7544427   2.445   4.987   4.216  0.2486  0.0530 -1.2979
   97MOL    O7644428   2.459   5.005   4.099 -0.1366 -0.2310  0.3620
   97MOL    C7744429   2.340   5.048   4.305  0.0577 -0.1096 -0.0626
   97MOL    C7844430   2.330   5.036   4.447  0.5671 -0.2771  0.5294
   97MOL    C7944431   2.228   5.106   4.518  1.2093 -1.6576 -0.0166
   97MOL    C8044432   2.121   5.165   4.451  0.5752 -0.1208  0.0100
   97MOL    C8144433   2.003   5.220   4.520  0.4682  0.1739  0.1311
   97MOL    O8244434   1.920   5.294   4.471  0.5777  0.2955  0.1586
   97MOL    O8344435   2.007   5.197   4.654  0.4971  0.2634 -0.7553
   97MOL    C8444436   2.129   5.182   4.302 -0.5607 -0.7074 -0.3287
   97MOL    C8544437   2.245   5.133   4.236 -0.2160  0.7139  0.4640
   97MOL    H8644438   2.555   4.681   4.407 -0.0416 -0.3843  0.5097
   97MOL    H8744439   2.634   4.601   4.284 -0.3873 -0.5693  1.8954
   97MOL    H8844440   2.578   4.779   4.119  1.1144 -0.6455 -0.2248
   97MOL    H8944441   2.701   4.812   4.237 -0.6434  0.3799  2.1422
   97MOL    H9044442   2.407   4.984   4.502  0.2919 -1.5351 -0.2537
   97MOL    H9144443   2.218   5.099   4.625 -1.3817 -0.9372 -0.1590
   97MOL    H9244444   2.050   5.246   4.263 -1.5895 -1.5417  0.3502
   97MOL    H9344445   2.260   5.140   4.129 -0.2461 -1.0788  0.3329
   97MOL    O9444446   1.888   5.241   4.737 -0.3117 -0.8460  0.2745
   97MOL    C9544447   1.800   5.128   4.767 -0.2289 -0.0255 -0.1041
   97MOL    C9644448   1.854   5.052   4.886  0.3031  0.1698  0.1166
   97MOL    O9744449   1.992   5.021   4.865  0.0574 -0.6827  0.4743
   97MOL    C9844450   2.031   4.908   4.813 -0.0461 -0.3120  0.3260
   97MOL    O9944451   1.956   4.816   4.791 -0.5861 -0.0606 -0.2955
   97MOL   C10044452   2.179   4.909   4.795 -0.5802 -0.2991  0.4528
   97MOL   C10144453   2.263   5.014   4.842  0.4416  0.7727 -0.0041
   97MOL   C10244454   2.404   5.000   4.836 -0.2752 -0.6426  0.0217
   97MOL   C10344455   2.460   4.885   4.776 -0.6044  0.7308  0.1186
   97MOL   C10444456   2.606   4.883   4.751 -0.2128  0.0593  0.0258
   97MOL   O10544457   2.681   4.785   4.754  0.2152 -0.8330  0.1066
   97MOL   O10644458   2.657   5.013   4.734 -0.0075 -0.4091 -0.2143
   97MOL   C10744459   2.376   4.779   4.736  0.2355 -0.4447 -0.2480
   97MOL   C10844460   2.238   4.794   4.734  0.5570 -0.2059  0.0636
   97MOL   H10944461   1.696   5.154   4.785 -0.0268  1.1437 -0.6225
   97MOL   H11044462   1.812   5.075   4.672 -1.9878 -0.1653 -0.2562
   97MOL   H11144463   1.807   4.959   4.918  0.4310 -0.6999 -2.1505
   97MOL   H11244464   1.866   5.122   4.969 -0.1486 -0.2094  0.5040
   97MOL   H11344465   2.211   5.092   4.897 -1.4896  0.1079 -0.8592
   97MOL   H11444466   2.466   5.082   4.869 -0.6934 -0.0535 -0.6560
   97MOL   H11544467   2.413   4.699   4.674 -1.4677 -1.5566  0.1301
   97MOL   H11644468   2.169   4.722   4.692  0.6301 -0.6004  0.6119
   97MOL   O11744469   2.806   5.024   4.748  0.1780 -0.2250  0.2773
   97MOL   C11844470   2.828   5.087   4.869  0.5151 -0.0773 -0.6568
   97MOL   C11944471   2.979   5.083   4.884 -0.3896 -0.1648 -0.1184
   97MOL   O12044472   3.007   4.942   4.901  0.3682 -0.2675  0.4432
   97MOL   C12144473   3.083   4.872   4.808  1.1450 -0.0252  0.3590
   97MOL   O12244474   3.120   4.921   4.704 -0.0252 -0.6342 -0.0693
   97MOL   C12344475   3.125   4.735   4.851  0.1965  0.1538 -1.1212
   97MOL   C12444476   3.183   4.646   4.763 -0.3159 -0.0983 -0.6723
   97MOL   C12544477   3.213   4.509   4.803 -0.2778 -0.3875 -0.1137
   97MOL   C12644478   3.174   4.467   4.936 -0.0190 -0.1554  0.5805
   97MOL   C12744479   3.185   4.328   4.978 -0.1985  1.0123 -0.0867
   97MOL   O12844480   3.126   4.287   5.075  0.2513 -0.0740 -0.5048
   97MOL   O12944481   3.267   4.244   4.892  0.0390 -0.2450 -0.5436
   97MOL   C13044482   3.108   4.558   5.021 -0.1204  0.1438  0.1789
   97MOL   C13144483   3.090   4.687   4.984 -0.3705  0.0682 -0.4014
   97MOL   H13244484   2.793   5.190   4.866 -0.5997 -0.3563  1.6235
   97MOL   H13344485   2.783   5.044   4.958 -1.0551  0.7354 -1.0389
   97MOL   H13444486   3.019   5.151   4.960  2.8689 -0.6346 -1.3063
   97MOL   H13544487   3.030   5.128   4.799 -2.0699  2.6057  0.2769
   97MOL   H13644488   3.207   4.677   4.663  0.0610 -0.3111 -0.6482
   97MOL   H13744489   3.263   4.437   4.740  1.3110  0.8601 -0.3192
   97MOL   H13844490   3.086   4.528   5.122 -1.8317  2.1831  0.4665
   97MOL   H13944491   3.042   4.759   5.049  1.7825  0.5676  0.6836
   97MOL   O14044492   3.259   4.097   4.932 -0.0818 -0.1693  0.3448
   97MOL   C14144493   3.142   4.039   4.867  0.1371  0.1577 -0.1956
   97MOL   C14244494   3.149   3.899   4.930 -0.6980 -0.1031 -0.1108
   97MOL   O14344495   3.024   3.849   4.959 -0.0784 -0.1031 -0.6732
   97MOL   C14444496   2.960   3.891   5.069 -0.5132  0.0230 -0.4308
   97MOL   O14544497   3.018   3.951   5.160 -0.0021  0.0616  0.3183
   97MOL   C14644498   2.818   3.852   5.071 -0.1769 -0.3477  0.4481
   97MOL   C14744499   2.745   3.852   5.192 -0.5030  0.0202 -0.4835
   97MOL   C14844500   2.606   3.814   5.196  0.7226  0.1974 -0.3489
   97MOL   C14944501   2.546   3.771   5.074 -0.1217  0.3150 -0.2943
   97MOL   C15044502   2.405   3.722   5.074  0.6944  0.1683 -0.5217
   97MOL   O15144503   2.345   3.689   4.969 -0.0494  0.1331  0.3870
   97MOL   O15244504   2.353   3.720   5.198  0.0759 -0.3489  0.0853
   97MOL   C15344505   2.615   3.771   4.955  0.1721  0.1501 -0.2612
   97MOL   C15444506   2.748   3.819   4.953  0.7718 -0.3614  0.2218
   97MOL   H15544507   3.045   4.085   4.884  0.8612  1.2974  0.9042
   97MOL   H15644508   3.151   4.041   4.759 -0.0547 -1.3259 -0.2535
   97MOL   H15744509   3.225   3.889   5.007  0.8191 -1.2051 -1.6998
   97MOL   H15844510   3.189   3.839   4.848 -1.0456 -1.0034  0.3690
   97MOL   H15944511   2.791   3.881   5.285  0.8856  1.4078 -1.5841
   97MOL   H16044512   2.544   3.825   5.284  1.7146 -2.1229  0.6722
   97MOL   H16144513   2.567   3.736   4.866  2.1259 -1.3324 -0.7506
   97MOL   H16244514   2.793   3.814   4.856 -0.3678 -1.6248 -0.2648
   97MOL   O16344515   2.219   3.649   5.195  0.8215 -0.0882 -0.1438
   97MOL   C16444516   2.240   3.515   5.234 -0.2569  0.0156  0.3537
   97MOL   C16544517   2.202   3.421   5.122 -0.1744  0.4134 -0.0714
   97MOL   O16644518   2.294   3.398   5.017  0.4243 -0.8525  0.0150
   97MOL   C16744519   2.268   3.322   4.912 -0.1793  0.2565  0.6012
   97MOL   O16844520   2.157   3.269   4.904  0.1051 -0.0114  0.3273
   97MOL   C16944521   2.387   3.298   4.827  0.1186 -0.1946 -0.1454
   97MOL   C17044522   2.505   3.370   4.836  0.5462  0.9433 -0.7075
   97MOL   C17144523   2.605   3.351   4.737 -0.1954 -0.2519 -0.4560
   97MOL   C17244524   2.594   3.254   4.632  0.4304 -0.1349  0.2759
   97MOL   C17344525   2.705   3.239   4.532  0.2965  0.1094 -0.4012
   97MOL   O17444526   2.702   3.184   4.419 -0.0569 -0.0633 -0.5916
   97MOL   O17544527   2.818   3.272   4.589 -0.6477 -0.0698  0.2081
   97MOL   C17644528   2.478   3.175   4.627  0.9059  0.3849  0.0944
   97MOL   C17744529   2.380   3.196   4.728 -0.3943 -0.2600 -0.0825
   97MOL   H17844530   2.341   3.495   5.270  0.1181  0.5959 -0.3621
   97MOL   H17944531   2.175   3.499   5.320  0.4557  0.2244  0.9386
   97MOL   H18044532   2.102   3.429   5.080  0.1265 -2.3637 -1.4402
   97MOL   H18144533   2.192   3.325   5.173  0.4771 -0.6676 -1.9345
   97MOL   H18244534   2.518   3.446   4.912  0.0599  1.2290 -0.9093
   97MOL   H18344535   2.699   3.400   4.758 -0.4821  0.4412 -0.7957
   97MOL   H18444536   2.454   3.092   4.563 -0.7683  0.9215  0.0238
   97MOL   H18544537   2.294   3.131   4.729 -0.4532 -0.1811  0.1911
   97MOL   O18644538   2.942   3.247   4.514 -0.3268  0.0992 -0.7655
   97MOL   C18744539   3.013   3.136   4.574  0.4347 -0.0134  0.1445
   97MOL   C18844540   3.082   3.161   4.706  0.5405  0.1117 -0.5038
   97MOL   O18944541   2.995   3.227   4.803  0.6544 -0.7038 -0.5054
   97MOL   C19044542   2.895   3.147   4.858 -0.4579 -0.0760  0.2629
   97MOL   O19144543   2.868   3.027   4.823 -0.3275 -0.6181  0.7183
   97MOL   C19244544   2.832   3.212   4.970 -0.0935 -0.3907 -0.5248
   97MOL   C19344545   2.865   3.350   4.999  0.6646 -0.1277  0.8848
   97MOL   C19444546   2.792   3.413   5.103 -0.6172  0.2218  0.4704
   97MOL   C19544547   2.702   3.333   5.182 -0.0339 -0.0331  1.0139
   97MOL   C19644548   2.623   3.398   5.292  0.4218  0.3470  0.5153
   97MOL   O19744549   2.528   3.344   5.359 -0.3383  0.0209  0.1023
   97MOL   O19844550   2.673   3.523   5.308  0.2023 -0.0757 -0.2890
   97MOL   C19944551   2.669   3.200   5.152  0.7705 -0.2442  0.4946
   97MOL   C20044552   2.743   3.143   5.044  0.3052  0.3478 -0.5657
   97MOL   H20144553   2.958   3.043   4.587  0.7671 -0.2005  0.1901
   97MOL   H20244554   3.087   3.110   4.499 -0.9184  0.7934 -1.5169
   97MOL   H20344555   3.169   3.219   4.674 -1.2878  2.7827 -0.8126
   97MOL   H20444556   3.127   3.069   4.743 -1.1061 -2.0704 -3.6512
   97MOL   H20544557   2.938   3.409   4.944  0.1319  0.7002  1.0538
   97MOL   H20644558   2.820   3.515   5.122 -0.3660  0.6102 -1.8381
   97MOL   H20744559   2.598   3.143   5.210 -2.0272 -1.1494 -3.6047
   97MOL   H20844560   2.737   3.036   5.028  2.8811  0.0199  0.4632
   97MOL   O20944561   2.619   3.596   5.423  0.0171  0.5020  0.1081
   97MOL   C21044562   2.725   3.648   5.499  0.0607 -0.3945  0.4358
   97MOL   C21144563   2.823   3.546   5.562 -0.5037  0.8723 -0.1717
   97MOL   O21244564   2.924   3.550   5.472  0.4159 -0.0097 -0.1015
   97MOL   C21344565   2.972   3.436   5.428  0.0572 -0.2052  0.1241
   97MOL   O21444566   2.963   3.332   5.482 -0.0640  0.1898  0.4157
   97MOL   C21544567   3.057   3.457   5.309 -0.8002  0.1400  0.4205
   97MOL   C21644568   3.095   3.345   5.228 -0.1510  0.2142 -0.6911
   97MOL   C21744569   3.165   3.360   5.105  0.3495 -0.4946 -0.4197
   97MOL   C21844570   3.196   3.490   5.060 -1.2856  0.2239 -0.2288
   97MOL   C21944571   3.269   3.512   4.934  0.0172 -1.0736 -0.4151
   97MOL   O22044572   3.248   3.607   4.859  0.0655  0.7827 -0.3327
   97MOL   O22144573   3.351   3.404   4.897  0.1075 -0.0867 -0.0929
   97MOL   C22244574   3.174   3.602   5.145  0.8096 -0.5140 -0.8441
   97MOL   C22344575   3.101   3.589   5.267  0.7166 -0.6229 -0.1988
   97MOL   H22444576   2.775   3.723   5.437  1.2491 -0.0342  1.8069
   97MOL   H22544577   2.682   3.700   5.584 -0.4507 -0.8629  0.4661
   97MOL   H22644578   2.771   3.452   5.576  0.6581  0.3134  0.4182
   97MOL   H22744579   2.846   3.580   5.663  0.1673  0.1053 -0.0664
   97MOL   H22844580   3.061   3.245   5.252  0.8992  0.7293  3.1888
   97MOL   H22944581   3.192   3.274   5.046  2.1933 -0.2274  0.0017
   97MOL   H23044582   3.219   3.696   5.118  0.3916 -0.0343  0.1116
   97MOL   H23144583   3.085   3.675   5.331 -0.0301 -0.2730 -0.8623
   97MOL   O23244584   3.416   3.427   4.759  0.6959  0.5340 -0.1478
   97MOL   C23344585   3.530   3.498   4.788  0.0370  0.1157  0.0731
   97MOL   C23444586   3.582   3.567   4.654 -0.1580  0.2957  0.4296
   97MOL   O23544587   3.507   3.684   4.627 -0.4206 -0.1454 -0.5032
   97MOL   C23644588   3.532   3.804   4.680 -0.0918 -0.2163 -0.4612
   97MOL   O23744589   3.603   3.819   4.781  0.4309  0.1953  0.4442
   97MOL   C23844590   3.458   3.918   4.609  0.2879 -0.1798  0.4677
   97MOL   C23944591   3.387   3.901   4.488  0.6608  0.9750 -0.5286
   97MOL   C24044592   3.314   4.002   4.432 -1.2084  0.2128  0.1657
   97MOL   C24144593   3.311   4.134   4.493  0.3423  0.0307  0.2792
   97MOL   C24244594   3.241   4.239   4.421  0.4259  0.3174 -0.3987
   97MOL   O24344595   3.169   4.218   4.318  0.2695 -0.0166 -0.3302
   97MOL   O24444596   3.254   4.353   4.480  0.0490  0.5592  0.3251
   97MOL   C24544597   3.396   4.159   4.605  0.3982 -0.0150 -0.1885
   97MOL   C24644598   3.460   4.049   4.664  0.2114  0.4423 -0.2882
   97MOL   H24744599   3.525   3.576   4.864 -0.7796  0.4474 -0.3079
   97MOL   H24844600   3.605   3.424   4.816 -1.1689 -1.3088 -0.4411
   97MOL   H24944601   3.566   3.498   4.571 -2.8455 -1.4671  2.3187
   97MOL   H25044602   3.686   3.596   4.670 -0.3294  1.3059 -0.2529
   97MOL   H25144603   3.375   3.801   4.449 -3.4854  1.0379  0.3809
   97MOL   H25244604   3.261   3.981   4.341 -0.9545 -0.1536  0.0983
   97MOL   H25344605   3.396   4.248   4.666 -1.1779 -1.6374  2.2460
   97MOL   H25444606   3.514   4.074   4.754 -1.5327 -0.5954  1.0788
   97MOL   O25544607   3.198   4.467   4.404  0.6366  0.3667 -0.5647
   97MOL   C25644608   3.298   4.556   4.373 -0.0665  0.3768  0.2891
   97MOL   C25744609   3.395   4.517   4.262 -0.1357 -0.6022  0.5119
   97MOL   O25844610   3.477   4.402   4.302 -0.2246 -0.0996  0.7178
   97MOL   C25944611   3.600   4.424   4.347 -0.0351  1.0231 -0.0304
   97MOL   O26044612   3.651   4.536   4.366  0.5046 -0.4356  0.0961
   97MOL   C26144613   3.679   4.297   4.345  0.8107  0.5028 -0.6651
   97MOL   C26244614   3.814   4.295   4.350 -0.0651  0.1744  0.5013
   97MOL   C26344615   3.889   4.178   4.362  0.5266 -0.5745 -0.5619
   97MOL   C26444616   3.823   4.052   4.373  0.4754 -0.6586  0.7601
   97MOL   C26544617   3.885   3.920   4.403 -0.1304  0.7380 -0.0706
   97MOL   O26644618   3.815   3.823   4.444  0.5794 -0.0690  0.9838
   97MOL   O26744619   4.014   3.903   4.377 -0.2079 -0.7247 -0.5620
   97MOL   C26844620   3.684   4.052   4.338 -0.3743  0.1548  0.1471
   97MOL   C26944621   3.613   4.172   4.341  0.5556  0.3239 -0.7681
   97MOL   H27044622   3.256   4.650   4.337 -0.9160  0.3444  1.1827
   97MOL   H27144623   3.352   4.567   4.467  0.0645  0.5952  0.1905
   97MOL   H27244624   3.464   4.597   4.234 -0.3779 -0.1428  1.2014
   97MOL   H27344625   3.348   4.491   4.168 -0.9358  1.2892  0.3694
   97MOL   H27444626   3.874   4.385   4.348  2.0392 -1.2215 -1.6094
   97MOL   H27544627   3.992   4.188   4.392 -0.1499 -0.2294  1.7387
   97MOL   H27644628   3.629   3.959   4.329 -2.6230  1.6195 -1.6691
   97MOL   H27744629   3.506   4.169   4.331  0.5268  0.6991 -0.5920
   97MOL   O27844630   4.080   3.986   4.268 -0.3492  0.0640  0.6045
   97MOL   C27944631   4.057   3.913   4.152 -0.0598  0.4948 -0.1294
   97MOL   C28044632   4.116   3.987   4.029  1.1518  0.5352  0.6668
   97MOL   O28144633   4.034   4.098   4.009 -0.2572  0.1521  0.4163
   97MOL   C28244634   3.913   4.070   3.946 -0.0509  0.3272 -0.2807
   97MOL   O28344635   3.882   3.949   3.908 -0.4817 -0.2876  0.2072
   97MOL   C28444636   3.826   4.192   3.935  0.0143  0.1780  0.3183
   97MOL   C28544637   3.849   4.308   4.019  0.2099 -0.2492  0.1975
   97MOL   C28644638   3.759   4.415   4.016 -0.9760 -0.4819 -0.2916
   97MOL   C28744639   3.642   4.410   3.931 -0.7621  0.6527 -0.4843
   97MOL   C28844640   3.551   4.527   3.924  0.2971  0.0005 -0.6974
   97MOL   O28944641   3.563   4.629   3.996 -0.0674  0.1515 -0.0129
   97MOL   O29044642   3.456   4.516   3.820 -0.1864  0.1936  0.2150
   97MOL   C29144643   3.620   4.298   3.845 -0.5512  0.6770 -0.9757
   97MOL   C29244644   3.709   4.190   3.854  0.2375 -0.0182  0.1892
   97MOL   H29344645   4.107   3.816   4.157 -0.9765  0.0883  2.0274
   97MOL   H29444646   3.950   3.898   4.138 -0.7603  2.6490  2.4217
   97MOL   H29544647   4.125   3.922   3.941 -0.3504  0.7824  0.3180
   97MOL   H29644648   4.222   4.001   4.046  1.7254 -2.6592  0.0059
   97MOL   H29744649   3.939   4.322   4.077  0.3753 -0.5574  0.0178
   97MOL   H29844650   3.792   4.501   4.072  1.5713 -0.5939 -1.5559
   97MOL   H29944651   3.530   4.292   3.785 -0.2856  0.8889 -1.4066
   97MOL   H30044652   3.698   4.096   3.802  0.5102 -0.0923  0.2610
   97MOL   O30144653   3.344   4.615   3.836  0.4604  0.1700  0.0912
   97MOL   C30244654   3.225   4.547   3.840  0.3257 -0.1404  0.6518
   97MOL   C30344655   3.150   4.587   3.967 -0.1910  1.0554  0.0959
   97MOL   O30444656   3.105   4.719   3.957 -0.5437 -0.2782  0.1665
   97MOL   C30544657   3.186   4.819   4.002  0.6345 -0.1472  0.5721
   97MOL   O30644658   3.279   4.804   4.081 -0.0943 -0.0164  0.1040
   97MOL   C30744659   3.139   4.955   3.949 -0.7629 -0.2648 -0.3459
   97MOL   C30844660   3.046   4.959   3.843 -0.3615 -0.0900 -0.8762
   97MOL   C30944661   2.992   5.085   3.810  0.2135 -0.3640  0.4398
   97MOL   C31044662   3.031   5.202   3.872 -0.7132  0.6423 -0.3392
   97MOL   C31144663   2.993   5.338   3.819 -0.2374 -0.2144 -0.7110
   97MOL   O31244664   3.038   5.446   3.868 -0.0878 -0.5832  0.7752
   97MOL   O31344665   2.900   5.334   3.724 -0.5783 -0.7890 -0.0524
   97MOL   C31444666   3.118   5.193   3.986  0.7921 -0.6561  0.0118
   97MOL   C31544667   3.170   5.069   4.020  0.0447 -0.0202  0.1632
   97MOL   H31644668   3.154   4.575   3.763 -0.6340 -0.5154  1.3923
   97MOL   H31744669   3.245   4.441   3.826  1.3969 -0.0115  1.1374
   97MOL   H31844670   3.209   4.560   4.054  0.4724  3.2501  0.3470
   97MOL   H31944671   3.057   4.529   3.967 -0.6833  1.8388  0.1772
   97MOL   H32044672   3.021   4.875   3.780 -0.3947 -1.6454  1.1468
   97MOL   H32144673   2.921   5.093   3.729  1.3094  0.5802 -0.4589
   97MOL   H32244674   3.153   5.278   4.044  0.1174 -0.2189 -0.2124
   97MOL   H32344675   3.231   5.054   4.109  0.5699 -2.4649 -0.5570
   97MOL   O32444676   2.853   5.464   3.670  0.3829 -0.4508 -0.0924
   97MOL   C32544677   2.715   5.474   3.704 -1.0286 -0.0917  1.0066
   97MOL   C32644678   2.649   5.585   3.629 -0.5363  0.5528  0.4191
   97MOL   O32744679   2.665   5.704   3.713  0.3331  0.0240  0.0507
   97MOL   C32844680   2.579   5.798   3.702 -0.1299  0.3559 -0.1060
   97MOL   O32944681   2.479   5.792   3.631  0.1159  0.2255  0.1670
   97MOL   C33044682   2.614   5.919   3.789  0.2876  0.2942 -0.1001
   97MOL   C33144683   2.534   6.035   3.793  0.5450 -0.1594 -0.4094
   97MOL   C33244684   2.573   6.143   3.870  0.1469 -0.7521 -0.7485
   97MOL   C33344685   2.685   6.142   3.954 -0.7239 -0.0779 -0.1371
   97MOL   C33444686   2.723   6.250   4.047 -0.6402 -0.0378 -0.5472
   97MOL   O33544687   2.815   6.244   4.128  0.2320  0.2405  0.2373
   97MOL   O33644688   2.646   6.357   4.037  0.1111  0.1623  0.6753
   97MOL   C33744689   2.770   6.035   3.949 -0.3620  0.8087 -0.3977
   97MOL   C33844690   2.733   5.919   3.870 -0.5335  0.1281  0.5891
   97MOL   H33944691   2.663   5.383   3.672  0.3153 -0.4236 -0.2990
   97MOL   H34044692   2.704   5.489   3.811  1.0802 -1.0304  1.3750
   97MOL   H34144693   2.543   5.571   3.610 -0.6820  1.5484  0.4669
   97MOL   H34244694   2.711   5.592   3.539  0.5889  0.2628  1.1609
   97MOL   H34344695   2.442   6.036   3.737  1.4004 -0.1184 -1.8386
   97MOL   H34444696   2.511   6.231   3.873  1.2456  0.0037  0.3344
   97MOL   H34544697   2.854   6.022   4.015  0.6430 -0.1135 -1.8455
   97MOL   H34644698   2.804   5.838   3.882 -2.4014 -1.7707 -0.8505
   97MOL   O34744699   2.694   6.480   4.117  0.1142  0.5366  0.2049
   97MOL   C34844700   2.730   6.572   4.012 -0.3639 -0.1694 -0.2573
   97MOL   C34944701   2.698   6.721   4.049 -0.4651  0.6259 -0.1260
   97MOL   O35044702   2.775   6.768   4.160  0.2100 -0.6414  0.0722
   97MOL   C35144703   2.729   6.767   4.287  0.6554 -0.4448  0.3556
   97MOL   O35244704   2.619   6.712   4.316 -0.1506  0.0150  0.0175
   97MOL   C35344705   2.822   6.836   4.383  0.0672  0.1631 -0.1363
   97MOL   C35444706   2.943   6.895   4.342  0.3865 -0.1110 -0.6558
   97MOL   C35544707   3.021   6.964   4.437  0.0835 -0.0653  0.7333
   97MOL   C35644708   2.977   6.972   4.574  0.1514 -0.4470 -0.7393
   97MOL   C35744709   3.059   7.053   4.666 -0.2454 -0.2701 -0.3116
   97MOL   O35844710   3.018   7.111   4.766  0.2171 -0.8737  0.2876
   97MOL   O35944711   3.185   7.060   4.623  0.7280  0.1103 -0.0897
   97MOL   C36044712   2.854   6.918   4.618  0.1152  0.7317 -0.2135
   97MOL   C36144713   2.784   6.839   4.519 -0.2434 -0.4507 -0.1920
   97MOL   H36244714   2.833   6.560   3.979 -0.2520 -1.0181  0.4006
   97MOL   H36344715   2.665   6.556   3.926  1.7004  0.5489 -1.9897
   97MOL   H36444716   2.591   6.742   4.057 -0.9180 -1.5248 -0.4037
   97MOL   H36544717   2.740   6.779   3.966  0.3165  0.2323 -0.0126
   97MOL   H36644718   2.970   6.898   4.238 -0.9700 -0.1528 -1.0112
   97MOL   H36744719   3.104   7.018   4.395 -1.4740 -0.1940 -2.7300
   97MOL   H36844720   2.812   6.915   4.718  2.0752  0.6264  0.6316
   97MOL   H36944721   2.688   6.798   4.546 -0.1688 -0.6926 -0.2924
   97MOL   O37044722   3.277   7.127   4.722  0.1611 -0.0242  0.0924
   97MOL   C37144723   3.359   7.031   4.787  0.4291 -0.0935  0.3193
   97MOL   C37244724   3.478   7.007   4.690 -0.3537 -0.4913  0.2624
   97MOL   O37344725   3.434   6.937   4.574 -0.3164 -0.5342 -0.2615
   97MOL   C37444726   3.495   6.963   4.461 -0.6759  0.0436  0.3628
   97MOL   O37544727   3.587   7.040   4.449 -0.1660  0.3405 -0.2754
   97MOL   C37644728   3.453   6.866   4.356 -0.4768  0.3054  0.6394
   97MOL   C37744729   3.540   6.833   4.248  0.6043  0.1173 -0.2505
   97MOL   C37844730   3.499   6.739   4.155  0.0532 -0.0573  0.1627
   97MOL   C37944731   3.368   6.685   4.148 -0.2491  0.2234  0.1137
   97MOL   C38044732   3.320   6.612   4.024 -0.6057 -0.6610 -0.2280
   97MOL   O38144733   3.404   6.552   3.950 -0.1218  0.2841 -0.3942
   97MOL   O38244734   3.185   6.621   4.009 -0.1657 -0.1910  0.5728
   97MOL   C38344735   3.280   6.720   4.252  0.5058 -0.2300 -0.2314
   97MOL   C38444736   3.325   6.800   4.361  0.1315  0.4110 -0.2302
   97MOL   H38544737   3.398   7.080   4.877 -0.4678  1.8683 -0.3186
   97MOL   H38644738   3.313   6.940   4.823  1.8072 -1.2195 -0.6944
   97MOL   H38744739   3.556   6.949   4.739 -0.6413 -1.8009 -0.8085
   97MOL   H38844740   3.513   7.108   4.667 -0.1781 -1.0615 -2.1300
   97MOL   H38944741   3.642   6.868   4.247  0.4048  0.7221  0.2494
   97MOL   H39044742   3.567   6.735   4.071 -0.3269 -1.8129 -0.0896
   97MOL   H39144743   3.176   6.690   4.262  0.6607 -1.4194 -1.9891
   97MOL   H39244744   3.252   6.831   4.435  0.2198  2.8031 -1.0913
   97MOL   O39344745   3.124   6.515   3.918  1.2164  0.0150 -0.8971
   97MOL   C39444746   3.092   6.398   3.983  0.3730  0.3439 -0.5941
   97MOL   C39544747   3.045   6.305   3.875 -0.1848 -0.4206 -0.2175
   97MOL   O39644748   2.929   6.359   3.819  0.1257  0.2414  0.7068
   97MOL   C39744749   2.899   6.311   3.699  1.1399 -0.1505 -0.8109
   97MOL   O39844750   2.929   6.197   3.659 -0.1147 -0.1730 -0.0962
   97MOL   C39944751   2.810   6.407   3.626 -0.2889 -0.8276 -0.6673
   97MOL   C40044752   2.720   6.361   3.530 -0.4325  0.8980 -0.1484
   97MOL   C40144753   2.627   6.445   3.466  0.0088 -0.3888  0.0442
   97MOL   C40244754   2.631   6.582   3.488 -0.1465 -0.3779  0.0576
   97MOL   C40344755   2.537   6.670   3.417  0.6217 -0.7554  0.2401
   97MOL   O40444756   2.442   6.625   3.351 -0.2022 -0.0250  0.6973
   97MOL   O40544757   2.566   6.798   3.430 -0.0408 -0.0814  0.0787
   97MOL   C40644758   2.724   6.630   3.583  0.6600 -0.0643  0.2366
   97MOL   C40744759   2.815   6.548   3.654 -0.0159 -0.1115  0.7032
   97MOL   H40844760   3.189   6.359   4.015 -2.1524 -3.9981  2.3885
   97MOL   H40944761   3.019   6.416   4.063 -1.0821 -2.2689 -1.2800
   97MOL   H41044762   3.010   6.208   3.911 -0.4544 -0.8017 -1.4461
   97MOL   H41144763   3.117   6.291   3.794 -0.9523 -0.1481 -0.9601
   97MOL   H41244764   2.712   6.258   3.500 -0.2954  1.4787 -2.3036
   97MOL   H41344765   2.561   6.409   3.388 -0.2826  0.4706 -0.1067
   97MOL   H41444766   2.736   6.735   3.602  1.0606 -0.4041  1.9910
   97MOL   H41544767   2.889   6.591   3.718 -1.2589  0.3107  1.8707
   97MOL   O41644768   2.472   6.890   3.355  0.0963 -0.1659  0.1818
   97MOL   C41744769   2.370   6.923   3.446  0.1436  0.4000  0.3712
   97MOL   C41844770   2.261   6.817   3.468 -0.2387 -0.8254 -0.0436
   97MOL   O41944771   2.271   6.737   3.590  0.3244 -0.2551  0.2132
   97MOL   C42044772   2.164   6.727   3.674  0.3406  0.3053 -0.8510
   97MOL   O42144773   2.048   6.747   3.634 -0.3044  0.5247 -0.2049
   97MOL   C42244774   2.197   6.685   3.813 -0.1388  0.3004  0.2030
   97MOL   C42344775   2.310   6.615   3.837 -0.3699 -0.1473 -0.5566
   97MOL   C42444776   2.345   6.575   3.968  0.1533  0.1025 -0.9553
   97MOL   C42544777   2.262   6.610   4.078  0.3202 -0.2576  0.2896
   97MOL   C42644778   2.284   6.574   4.219 -0.3120  0.5738 -0.4344
   97MOL   O42744779   2.210   6.614   4.315  0.6177 -0.0146  0.5367
   97MOL   O42844780   2.388   6.496   4.240  0.1439  0.6313 -0.4403
   97MOL   C42944781   2.148   6.686   4.047 -0.3741 -0.9644  0.1452
   97MOL   C43044782   2.117   6.726   3.916 -0.8438  0.1940  0.6697
   97MOL   H43144783   2.416   6.950   3.541  1.4921 -1.9221  0.4093
   97MOL   H43244784   2.334   7.019   3.407  1.1175  0.8165  0.4950
   97MOL   H43344785   2.259   6.749   3.383 -0.8947 -0.6877 -0.1475
   97MOL   H43444786   2.165   6.869   3.462 -0.3912 -1.1367 -0.2888
   97MOL   H43544787   2.378   6.583   3.760  0.4206 -3.0421  1.2982
   97MOL   H43644788   2.435   6.516   3.979 -1.1323 -2.4038 -3.1573
   97MOL   H43744789   2.091   6.725   4.130 -2.2777 -0.1183 -1.5142
   97MOL   H43844790   2.025   6.781   3.906 -0.1758  1.3481  0.7463
   97MOL   O43944791   2.415   6.459   4.383  0.0519 -0.1465 -0.4960
   97MOL   C44044792   2.364   6.325   4.407 -0.5876  0.4451  0.2194
   97MOL   C44144793   2.485   6.223   4.408 -0.2986 -0.1490  0.2886
   97MOL   O44244794   2.449   6.099   4.357  0.2813  0.8063 -0.2500
   97MOL   C44344795   2.429   6.085   4.229  0.3939  0.3840  0.0806
   97MOL   O44444796   2.435   6.185   4.158 -0.2935 -0.2292 -0.1485
   97MOL   C44544797   2.387   5.949   4.199  0.9184  0.2550  0.0879
   97MOL   C44644798   2.420   5.844   4.285  0.0662  0.5979 -0.7273
   97MOL   C44744799   2.400   5.712   4.248  0.8697 -0.3645 -0.7011
   97MOL   C44844800   2.338   5.680   4.125  0.0401  0.7272  0.1187
   97MOL   C44944801   2.310   5.537   4.088  0.5566  0.0134  0.4974
   97MOL   O45044802   2.357   5.443   4.150  0.7704  0.1178 -0.5755
   97MOL   O45144803   2.236   5.522   3.973 -0.4492  0.3439  0.6138
   97MOL   C45244804   2.291   5.787   4.044 -0.1174  0.2566  0.5160
   97MOL   C45344805   2.318   5.920   4.077 -0.3239 -0.1492 -0.4226
   97MOL   H45444806   2.330   6.334   4.510 -2.1204  0.7220 -0.3073
   97MOL   H45544807   2.282   6.294   4.343  0.5454 -0.4483 -0.8298
   97MOL   H45644808   2.523   6.208   4.509  3.0934  1.3011 -0.7085
   97MOL   H45744809   2.580   6.256   4.366 -1.7076  2.9511 -0.6550
   97MOL   H45844810   2.463   5.862   4.383 -2.3781  2.2370  0.0956
   97MOL   H45944811   2.436   5.627   4.304 -0.1671 -1.0774 -1.0838
   97MOL   H46044812   2.239   5.763   3.953 -2.9922 -2.2089  2.7108
   97MOL   H46144813   2.290   6.000   4.010  1.8236 -0.5162 -1.8143
   97MOL   H46244814   2.225   5.433   3.944  2.9994 -0.1583  0.5902
   98MOL     O144815   0.208   3.266   6.230 -0.0148  0.3848  0.7427
   98MOL     C244816   0.150   3.317   6.345 -0.0210  0.2663 -0.5046
   98MOL     C344817   0.239   3.291   6.470  0.0701  0.3417 -0.2825
   98MOL     O444818   0.162   3.284   6.585 -0.2252  0.7583 -0.1727
   98MOL     C544819   0.108   3.163   6.618  0.2061  0.2009  0.3762
   98MOL     O644820   0.098   3.067   6.542 -0.6493  0.5101 -0.4060
   98MOL     C744821   0.044   3.166   6.762  0.0016 -0.3119  0.5168
   98MOL     C844822   8.239   3.065   6.807 -0.3149  0.1311  0.1528
   98MOL     C944823   8.188   3.067   6.935  0.3126  0.4256 -0.8970
   98MOL    C1044824   8.226   3.166   7.025 -0.5958 -0.1181  0.0881
   98MOL    C1144825   8.181   3.155   7.165 -0.3598 -0.1948  0.1118
   98MOL    O1244826   8.122   3.054   7.211  0.1065  0.2634  0.1004
   98MOL    O1344827   8.202   3.269   7.234  0.2387 -0.0268  0.3657
   98MOL    C1444828   0.020   3.279   6.971 -0.4672 -0.1762 -0.1413
   98MOL    C1544829   0.073   3.275   6.843 -1.1122  0.5588  1.2724
   98MOL    H1644830   0.137   3.424   6.330  1.7190  0.0872 -3.6447
   98MOL    H1744831   0.054   3.265   6.349  0.7990 -1.1705  1.7196
   98MOL    H1844832   0.309   3.375   6.467  1.1075 -0.5433 -1.8315
   98MOL    H1944833   0.302   3.203   6.455  1.0571  1.0521 -0.3951
   98MOL    H2044834   8.220   2.984   6.738  0.5675 -0.1258  0.1922
   98MOL    H2144835   8.132   2.978   6.959  0.1652 -0.3952 -3.9998
   98MOL    H2244836   0.044   3.357   7.041  0.1768 -1.2892  0.8952
   98MOL    H2344837   0.124   3.359   6.799 -0.6183 -0.5130 -0.2285
   98MOL    H2444838   0.237   3.340   6.180  0.8925  0.7072  1.7361
   98MOL    O2544839   8.172   3.266   7.381 -0.1865  0.5232  0.2073
   98MOL    C2644840   8.034   3.298   7.404  0.1312 -0.1984  0.2024
   98MOL    C2744841   7.997   3.262   7.540 -0.6700  0.0997  0.3586
   98MOL    O2844842   7.890   3.337   7.587 -0.3475 -0.5030 -0.2973
   98MOL    C2944843   7.761   3.314   7.550 -0.9224  0.0749  0.4369
   98MOL    O3044844   7.728   3.242   7.456  0.4123 -0.7924  0.0617
   98MOL    C3144845   7.663   3.385   7.634 -0.4379  0.3154 -0.4565
   98MOL    C3244846   7.525   3.366   7.618  0.5731 -0.2464 -0.8994
   98MOL    C3344847   7.437   3.426   7.708 -0.0680  0.1063 -0.1292
   98MOL    C3444848   7.481   3.507   7.813 -0.4211  0.1126  0.0842
   98MOL    C3544849   7.393   3.553   7.928 -0.0954 -0.3773  0.2561
   98MOL    O3644850   7.286   3.495   7.946 -0.0714  1.2820  0.0370
   98MOL    O3744851   7.443   3.651   8.003  0.5934  0.5912 -0.1646
   98MOL    C3844852   7.613   3.549   7.813 -0.5361 -0.2923 -0.0294
   98MOL    C3944853   7.706   3.481   7.728 -0.5769  0.7678  0.0626
   98MOL    H4044854   8.029   3.407   7.397 -0.8516 -0.2013  0.7669
   98MOL    H4144855   7.960   3.258   7.335  1.3337 -0.4718 -0.9372
   98MOL    H4244856   8.087   3.285   7.596 -2.7902  2.5480  2.8764
   98MOL    H4344857   7.981   3.157   7.563  2.1664 -0.4267  0.0867
   98MOL    H4444858   7.500   3.297   7.539  0.3712  0.1698 -1.2018
   98MOL    H4544859   7.332   3.406   7.721 -0.6096  2.2663 -0.9436
   98MOL    H4644860   7.653   3.627   7.877  0.3653 -0.0203 -0.9086
   98MOL    H4744861   7.808   3.511   7.743  0.4643 -1.9781 -1.2180
   98MOL    O4844862   7.365   3.698   8.114  0.3871 -0.0010  0.2084
   98MOL    C4944863   7.316   3.825   8.079  0.3075  0.4111  0.8630
   98MOL    C5044864   7.426   3.933   8.087  1.0193 -0.0480  0.3598
   98MOL    O5144865   7.505   3.918   7.972 -0.2339  0.6585  0.0859
   98MOL    C5244866   7.639   3.887   7.994  0.4017 -0.3635  0.4019
   98MOL    O5344867   7.682   3.841   8.095 -0.5546  0.8853 -0.0458
   98MOL    C5444868   7.725   3.929   7.877  0.1364 -0.0272 -0.1806
   98MOL    C5544869   7.670   4.006   7.773 -0.3530 -0.0662 -0.6252
   98MOL    C5644870   7.753   4.033   7.661  0.0180 -0.1893 -0.1830
   98MOL    C5744871   7.894   4.000   7.664  0.2218 -0.0513 -0.3415
   98MOL    C5844872   7.991   4.053   7.555  0.4947  0.6469  0.2448
   98MOL    O5944873   8.116   4.053   7.567  0.3661  0.3170 -0.1179
   98MOL    O6044874   7.925   4.090   7.442  0.2812 -0.0335  0.4365
   98MOL    C6144875   7.948   3.938   7.773  0.7614  0.0419 -0.3950
   98MOL    C6244876   7.865   3.904   7.878 -0.7447 -0.1046  0.0207
   98MOL    H6344877   7.268   3.822   7.982  2.0281 -2.3643  0.0560
   98MOL    H6444878   7.240   3.847   8.154  0.1530  1.3469  0.4356
   98MOL    H6544879   7.480   3.911   8.179 -0.6826 -1.0398  1.1514
   98MOL    H6644880   7.385   4.033   8.078  2.1027  0.2485 -1.6151
   98MOL    H6744881   7.570   4.047   7.772 -1.0069 -1.6399 -1.1395
   98MOL    H6844882   7.717   4.082   7.571 -1.2365  0.5540  0.7200
   98MOL    H6944883   8.055   3.925   7.767  0.7108  0.1915 -1.8451
   98MOL    H7044884   7.915   3.856   7.961  0.5134  1.4214  0.1578
   98MOL    O7144885   8.009   4.170   7.346  0.5611  0.3198  0.0056
   98MOL    C7244886   8.059   4.082   7.251  0.0834 -0.2994  0.4210
   98MOL    C7344887   8.151   4.146   7.151  0.2058 -0.1431  0.4098
   98MOL    O7444888   0.005   4.123   7.200  0.4195  0.1649  0.2326
   98MOL    C7544889   0.111   4.095   7.115  0.6956 -0.0911  0.3243
   98MOL    O7644890   0.099   4.090   6.989 -0.1563  0.0161 -0.1779
   98MOL    C7744891   0.241   4.081   7.186  0.6453  0.8707  0.1047
   98MOL    C7844892   0.251   4.091   7.325 -0.1113  0.0584 -0.0063
   98MOL    C7944893   0.374   4.070   7.390 -1.3129 -0.1441  0.0212
   98MOL    C8044894   0.489   4.038   7.313  0.0833  0.0954 -0.3263
   98MOL    C8144895   0.621   4.037   7.386 -0.1503 -0.5443  0.1074
   98MOL    O8244896   0.635   4.042   7.509  0.1401 -0.2921 -0.2522
   98MOL    O8344897   0.741   4.037   7.304  0.1778  0.1646  0.6464
   98MOL    C8444898   0.489   4.036   7.174 -0.2868  0.1112  0.0224
   98MOL    C8544899   0.361   4.058   7.118  0.2081 -0.1732  0.3507
   98MOL    H8644900   8.105   3.993   7.293  1.4786 -0.5537 -1.5809
   98MOL    H8744901   7.970   4.049   7.197 -1.5926  0.6278  2.5353
   98MOL    H8844902   8.119   4.247   7.128 -0.9204 -0.3864  0.8582
   98MOL    H8944903   8.129   4.085   7.063 -0.4990 -1.4502  1.4655
   98MOL    H9044904   0.171   4.132   7.384 -1.3872  0.2277 -1.8108
   98MOL    H9144905   0.376   4.088   7.496  0.9359  3.5718 -0.5464
   98MOL    H9244906   0.571   4.015   7.106 -0.2471 -0.1262  0.1460
   98MOL    H9344907   0.345   4.067   7.011  1.5246  3.2855  0.3746
   98MOL    O9444908   0.874   4.073   7.375  0.1601 -0.3731  0.5498
   98MOL    C9544909   0.893   4.211   7.374 -0.6057 -0.4357  0.0105
   98MOL    C9644910   1.010   4.248   7.464 -0.2085 -0.1127 -0.0304
   98MOL    O9744911   0.993   4.208   7.599 -0.7819 -0.3683  0.2542
   98MOL    C9844912   0.927   4.288   7.682  0.1926  0.2214 -0.3874
   98MOL    O9944913   0.901   4.409   7.664  0.2666  0.1763  0.0862
   98MOL   C10044914   0.886   4.213   7.803 -0.4420  0.1039  0.7448
   98MOL   C10144915   0.891   4.072   7.800  0.3811 -0.9545  1.3052
   98MOL   C10244916   0.862   3.995   7.918  0.2252 -0.3514  0.1321
   98MOL   C10344917   0.820   4.062   8.036  0.0568  0.0559 -0.0861
   98MOL   C10444918   0.787   3.991   8.166 -0.7613  0.1258 -0.3464
   98MOL   O10544919   0.712   4.034   8.252  0.1828 -0.4426 -0.6190
   98MOL   O10644920   0.850   3.876   8.177 -0.5561 -0.3131 -0.4740
   98MOL   C10744921   0.813   4.204   8.033 -0.6160  0.8258 -0.7939
   98MOL   C10844922   0.849   4.278   7.920  0.0762  0.2975  0.0587
   98MOL   H10944923   0.916   4.256   7.277  1.3329  1.3586  1.2403
   98MOL   H11044924   0.799   4.244   7.418 -0.0023 -2.0564  2.5798
   98MOL   H11144925   1.027   4.356   7.457  0.1297 -0.0647  1.4160
   98MOL   H11244926   1.101   4.200   7.427  0.8039  0.7609  1.3063
   98MOL   H11344927   0.906   4.018   7.707 -0.9770 -0.6880  0.9112
   98MOL   H11444928   0.870   3.888   7.923  0.0746 -0.4141 -0.9769
   98MOL   H11544929   0.781   4.254   8.123  0.2387  1.2968 -0.7433
   98MOL   H11644930   0.838   4.385   7.928 -1.8701  0.1032  0.0819
   98MOL   O11744931   0.854   3.821   0.048 -0.4134 -0.1956  0.2314
   98MOL   C11844932   0.989   3.822   0.092  0.2251 -0.3522 -0.3171
   98MOL   C11944933   0.991   3.719   0.204 -0.5566  0.2297 -0.5358
   98MOL   O12044934   0.939   3.773   0.323  0.1306  0.3828  0.6445
   98MOL   C12144935   0.814   3.751   0.362  0.1331 -0.5948 -0.5543
   98MOL   O12244936   0.733   3.692   0.294  0.0229  0.0625  0.4987
   98MOL   C12344937   0.785   3.810   0.492  0.2428 -0.8552  0.4452
   98MOL   C12444938   0.657   3.787   0.547  0.6753  0.6152  0.2123
   98MOL   C12544939   0.621   3.839   0.673 -0.3461 -0.8143  0.5767
   98MOL   C12644940   0.714   3.916   0.751 -0.6261  0.1665  0.2731
   98MOL   C12744941   0.677   3.964   0.890  0.9897  0.1351  0.4859
   98MOL   O12844942   0.561   3.942   0.937 -0.9181 -0.1281 -0.2091
   98MOL   O12944943   0.772   4.027   0.952 -0.1470  0.0288 -0.3503
   98MOL   C13044944   0.844   3.938   0.698 -0.6444  0.1072 -0.3797
   98MOL   C13144945   0.877   3.894   0.561 -0.5224  0.8299  0.2552
   98MOL   H13244946   1.040   3.773   0.009 -0.6867 -1.1812 -0.3933
   98MOL   H13344947   1.033   3.919   0.114  1.1212 -0.4756 -1.5269
   98MOL   H13444948   1.089   3.679   0.230  0.0079  0.3833 -2.3382
   98MOL   H13544949   0.930   3.635   0.172 -1.0490  0.0420  0.8902
   98MOL   H13644950   0.581   3.739   0.487  2.4265  0.1002 -1.6599
   98MOL   H13744951   0.518   3.846   0.703 -0.8879  1.5976 -1.6188
   98MOL   H13844952   0.920   3.989   0.756 -0.3981 -0.1429 -0.4820
   98MOL   H13944953   0.976   3.924   0.528  0.0336 -1.7866 -0.5814
   98MOL   O14044954   0.747   4.046   1.098  0.3834  0.8277 -0.1299
   98MOL   C14144955   0.703   4.179   1.117 -0.4017  0.4849 -0.5446
   98MOL   C14244956   0.739   4.227   1.257  0.7444  0.2041 -0.8634
   98MOL   O14344957   0.746   4.372   1.259 -0.5278 -0.1288  0.1794
   98MOL   C14444958   0.640   4.445   1.275  0.1820  0.6294 -0.3033
   98MOL   O14544959   0.527   4.398   1.299  0.3924  0.4001 -0.3477
   98MOL   C14644960   0.667   4.591   1.252  1.1803 -0.3600  0.6928
   98MOL   C14744961   0.566   4.663   1.185 -0.7833 -0.0990 -0.1256
   98MOL   C14844962   0.586   4.795   1.141 -0.1928 -0.0501 -0.1005
   98MOL   C14944963   0.709   4.859   1.167  0.3646 -0.8975  0.0467
   98MOL   C15044964   0.724   5.001   1.121 -0.1399 -0.1004  0.3932
   98MOL   O15144965   0.828   5.058   1.136  0.0347  0.0365  0.0711
   98MOL   O15244966   0.613   5.050   1.060 -0.2029 -0.3424  0.6388
   98MOL   C15344967   0.808   4.790   1.234  0.0235  0.3093 -0.4692
   98MOL   C15444968   0.794   4.653   1.270 -0.3634  0.2473 -0.9676
   98MOL   H15544969   0.743   4.236   1.033 -0.6269 -1.7586 -2.2148
   98MOL   H15644970   0.594   4.178   1.110 -0.2809 -0.2943 -2.7671
   98MOL   H15744971   0.834   4.184   1.290  0.9409 -0.8430 -2.7016
   98MOL   H15844972   0.661   4.191   1.324  0.0543  0.5767 -1.4679
   98MOL   H15944973   0.477   4.614   1.150 -0.3702 -1.4885  0.7422
   98MOL   H16044974   0.507   4.842   1.085 -2.5869 -0.5375  2.6968
   98MOL   H16144975   0.902   4.837   1.259 -0.3661  0.9195 -0.1343
   98MOL   H16244976   0.873   4.604   1.324 -0.6940  0.6534 -0.1117
   98MOL   O16344977   0.632   5.185   0.988  0.0087  0.2287  0.5508
   98MOL   C16444978   0.649   5.157   0.845 -0.0072  0.0247  0.8930
   98MOL   C16544979   0.800   5.152   0.813  0.3163 -0.6320  0.4771
   98MOL   O16644980   0.854   5.023   0.844 -0.2118  0.2781  1.0392
   98MOL   C16744981   0.897   4.930   0.761 -0.3235  0.8321 -0.4168
   98MOL   O16844982   0.890   4.943   0.637 -0.2434 -0.4639  0.3450
   98MOL   C16944983   0.941   4.807   0.830 -0.6337  0.3258  0.0339
   98MOL   C17044984   1.000   4.807   0.956 -0.3878  0.2406  0.1446
   98MOL   C17144985   1.038   4.679   1.013  0.1814 -0.2777  0.4646
   98MOL   C17244986   1.009   4.552   0.952  0.4969  0.2656 -0.2871
   98MOL   C17344987   1.037   4.414   1.012  0.0146 -0.2686  0.1276
   98MOL   O17444988   1.012   4.307   0.952  0.3731  0.3633 -0.9311
   98MOL   O17544989   1.080   4.418   1.143 -0.5861 -0.5045 -0.0886
   98MOL   C17644990   0.949   4.565   0.825 -0.2852  0.0211 -0.5971
   98MOL   C17744991   0.918   4.687   0.767 -0.3805  0.0139  0.3412
   98MOL   H17844992   0.592   5.068   0.821 -0.4031  0.2433  1.0224
   98MOL   H17944993   0.604   5.236   0.784 -0.7188  0.0271  1.4168
   98MOL   H18044994   0.846   5.231   0.873  1.4421  0.3612 -1.6387
   98MOL   H18144995   0.826   5.179   0.711  1.1961  0.6699  1.0358
   98MOL   H18244996   1.008   4.895   1.018  2.0141 -1.5112  2.4507
   98MOL   H18344997   1.084   4.672   1.111  0.2216  0.3490  0.4905
   98MOL   H18444998   0.926   4.478   0.764  0.3849 -2.2521  2.2910
   98MOL   H18544999   0.866   4.670   0.673 -2.2457 -0.6111  1.4525
   98MOL   O18645000   1.115   4.283   1.206 -0.1880 -0.3475 -0.0196
   98MOL   C18745001   1.248   4.250   1.187  0.6277 -0.7741 -0.3891
   98MOL   C18845002   1.272   4.100   1.192 -0.3211 -0.1328  0.7351
   98MOL   O18945003   1.408   4.058   1.182 -0.0658  0.1207  0.8509
   98MOL   C19045004   1.474   4.041   1.065 -0.2845 -0.3825  0.6273
   98MOL   O19145005   1.424   4.060   0.955  0.4602  0.4182  0.3032
   98MOL   C19245006   1.613   4.003   1.078 -0.7374 -0.1225 -0.1197
   98MOL   C19345007   1.685   3.990   1.198  0.9448  0.1718  0.4289
   98MOL   C19445008   1.825   3.962   1.200  0.5321 -0.1649  0.7157
   98MOL   C19545009   1.898   3.949   1.078 -0.8535  0.2863 -0.1692
   98MOL   C19645010   2.044   3.912   1.072 -0.0318  0.1421 -0.4547
   98MOL   O19745011   2.120   3.913   1.170 -0.0176 -0.2598  0.3542
   98MOL   O19845012   2.085   3.891   0.947  0.0415 -0.3284  0.0664
   98MOL   C19945013   1.824   3.947   0.958  0.3357  0.1427 -0.1784
   98MOL   C20045014   1.686   3.969   0.958  0.3260  0.2943 -0.1617
   98MOL   H20145015   1.294   4.294   1.098 -0.1957 -1.4041 -1.1379
   98MOL   H20245016   1.309   4.294   1.266  0.3931  2.3998 -1.9067
   98MOL   H20345017   1.207   4.052   1.118  0.7299 -0.8550  0.2671
   98MOL   H20445018   1.237   4.067   1.290  0.1559  1.5113  1.4815
   98MOL   H20545019   1.624   4.016   1.284 -0.8809 -0.4142 -0.6503
   98MOL   H20645020   1.861   3.947   1.300  0.1681 -2.1793  0.5665
   98MOL   H20745021   1.865   3.917   0.863 -1.8821 -1.0156 -0.8042
   98MOL   H20845022   1.632   3.958   0.865 -0.8790 -0.0737  0.5574
   98MOL   O20945023   2.226   3.854   0.918  0.1535  0.5308 -0.8145
   98MOL   C21045024   2.230   3.710   0.914  0.5441  0.2444 -0.1868
   98MOL   C21145025   2.368   3.671   0.874 -1.1724 -0.2524  1.1063
   98MOL   O21245026   2.387   3.656   0.734  0.0045 -0.2428  0.6460
   98MOL   C21345027   2.443   3.754   0.660 -0.0857 -0.4095 -0.5734
   98MOL   O21445028   2.468   3.871   0.705 -0.1894  0.9725  0.4017
   98MOL   C21545029   2.478   3.706   0.523 -0.0805  0.2470 -0.1848
   98MOL   C21645030   2.525   3.797   0.425  0.6648 -0.2768  0.1509
   98MOL   C21745031   2.555   3.749   0.296 -0.4699  0.1158 -0.1879
   98MOL   C21845032   2.545   3.611   0.261  0.0789 -0.0134 -0.1124
   98MOL   C21945033   2.570   3.560   0.123 -0.0251 -0.6432 -0.1820
   98MOL   O22045034   2.617   3.452   0.097 -0.3273  0.0582 -0.5960
   98MOL   O22145035   2.554   3.657   0.032 -0.4820 -0.1828 -0.1747
   98MOL   C22245036   2.505   3.521   0.362  0.5303 -0.0313  0.3061
   98MOL   C22345037   2.469   3.570   0.490 -0.0804  0.3551 -0.7623
   98MOL   H22445038   2.197   3.661   1.006  1.9183 -1.0560 -0.3618
   98MOL   H22545039   2.163   3.669   0.837 -1.1499  2.3976  0.0832
   98MOL   H22645040   2.393   3.574   0.918  1.8846 -0.1626 -0.3044
   98MOL   H22745041   2.447   3.735   0.913  0.3835 -1.1461 -0.5341
   98MOL   H22845042   2.521   3.902   0.450 -1.3329 -0.1034 -0.7663
   98MOL   H22945043   2.587   3.819   0.220  1.0729  0.1518  0.4777
   98MOL   H23045044   2.503   3.416   0.336 -2.6227 -0.5150  2.2498
   98MOL   H23145045   2.434   3.495   0.560  0.1952  2.6199  1.8924
   98MOL   O23245046   2.613   3.638   8.169  0.0340  0.1208  0.5404
   98MOL   C23345047   2.523   3.573   8.095  0.6636  0.1716 -0.1402
   98MOL   C23445048   2.558   3.427   8.082 -0.2040  0.6612 -0.4972
   98MOL   O23545049   2.526   3.368   7.961  0.1086 -0.4761 -0.2178
   98MOL   C23645050   2.398   3.353   7.929 -0.2923 -0.0688 -0.6127
   98MOL   O23745051   2.301   3.404   7.989  0.7615 -0.6201  0.3311
   98MOL   C23845052   2.386   3.275   7.802  0.0609  0.1191  0.7031
   98MOL   C23945053   2.492   3.220   7.733 -0.1414 -0.1605 -0.3925
   98MOL   C24045054   2.482   3.143   7.613 -0.5819  0.2688 -0.1306
   98MOL   C24145055   2.352   3.126   7.564  0.5641  0.3036 -0.1833
   98MOL   C24245056   2.339   3.068   7.429  0.5192  0.0776 -0.6661
   98MOL   O24345057   2.416   2.982   7.381  0.2000 -0.2856  0.4206
   98MOL   O24445058   2.221   3.114   7.359 -0.4583  0.5048  0.3394
   98MOL   C24545059   2.238   3.175   7.630 -0.5234 -0.3689  0.0760
   98MOL   C24645060   2.261   3.253   7.746 -0.5516 -0.6894  0.2907
   98MOL   H24745061   2.425   3.603   8.132 -0.3183 -1.0613 -1.6709
   98MOL   H24845062   2.527   3.608   7.992 -1.4616 -0.8928 -0.6321
   98MOL   H24945063   2.512   3.381   8.170 -0.3992 -1.4279 -1.6664
   98MOL   H25045064   2.666   3.423   8.088 -0.1852  2.0823  0.3679
   98MOL   H25145065   2.590   3.232   7.777 -0.0845  1.0270 -0.8210
   98MOL   H25245066   2.577   3.116   7.569 -0.0477 -1.4662  2.0195
   98MOL   H25345067   2.140   3.149   7.593 -1.0317  1.5449  0.0319
   98MOL   H25445068   2.174   3.294   7.795 -0.7382 -0.1473 -0.4797
   98MOL   O25545069   2.187   3.050   7.222 -0.2662  0.3476  0.0847
   98MOL   C25645070   2.108   2.939   7.253 -0.0497 -0.0170  0.0378
   98MOL   C25745071   2.117   2.827   7.146 -0.7126 -0.0950  0.2040
   98MOL   O25845072   2.254   2.778   7.135  0.2430 -0.0065  0.1161
   98MOL   C25945073   2.297   2.677   7.216 -0.2685 -0.5573 -0.1643
   98MOL   O26045074   2.210   2.615   7.286 -0.3962  0.8022  0.0030
   98MOL   C26145075   2.441   2.660   7.218 -0.0549  0.6144 -0.4009
   98MOL   C26245076   2.494   2.542   7.278  0.5067 -0.0496  0.0753
   98MOL   C26345077   2.631   2.517   7.277 -0.2932  0.2091 -0.8014
   98MOL   C26445078   2.717   2.612   7.222  0.0470  0.4091  0.1922
   98MOL   C26545079   2.864   2.581   7.223 -0.4874 -0.0169  0.8115
   98MOL   O26645080   2.919   2.482   7.268  0.1292  0.6342  0.0141
   98MOL   O26745081   2.931   2.673   7.154  0.1048 -0.3865  0.2910
   98MOL   C26845082   2.671   2.730   7.170  0.7635 -0.1490  0.2880
   98MOL   C26945083   2.530   2.749   7.169  0.2688  0.5849 -0.0951
   98MOL   H27045084   2.135   2.887   7.345  0.5393 -0.1272 -0.1940
   98MOL   H27145085   2.000   2.952   7.255  0.2475  2.6872 -0.4139
   98MOL   H27245086   2.102   2.869   7.046 -1.7115  0.0356  0.4013
   98MOL   H27345087   2.042   2.751   7.168 -2.2285  1.4025  0.3151
   98MOL   H27445088   2.418   2.477   7.318 -1.2908  0.5714 -2.1751
   98MOL   H27545089   2.662   2.421   7.315 -1.8788 -1.0976 -2.7304
   98MOL   H27645090   2.719   2.806   7.110  1.2153 -1.3009 -0.8328
   98MOL   H27745091   2.493   2.838   7.121 -0.6206  1.5507  2.3453
   98MOL   O27845092   3.077   2.665   7.166 -0.1804 -0.7160 -0.3609
   98MOL   C27945093   3.131   2.772   7.244 -0.2395  0.2617 -0.7641
   98MOL   C28045094   3.079   2.805   7.385 -0.2114 -0.3226 -0.0805
   98MOL   O28145095   2.965   2.886   7.382  0.2918 -0.0908  0.3839
   98MOL   C28245096   2.985   3.012   7.412 -0.2133  0.2164  0.8283
   98MOL   O28345097   3.070   3.052   7.491  0.0306  0.8401  0.0727
   98MOL   C28445098   2.879   3.103   7.355  0.5483  0.2749 -0.2334
   98MOL   C28545099   2.765   3.049   7.294  0.3316 -0.4028  0.1885
   98MOL   C28645100   2.684   3.138   7.219  0.5011 -0.3647 -0.1944
   98MOL   C28745101   2.705   3.278   7.230  0.0979 -0.2649 -0.5259
   98MOL   C28845102   2.631   3.382   7.157 -0.2047 -0.6503  0.9643
   98MOL   O28945103   2.661   3.500   7.147  0.2710 -0.4711  0.0467
   98MOL   O29045104   2.514   3.337   7.110 -0.1072  0.2747 -0.0803
   98MOL   C29145105   2.815   3.330   7.298  0.3562 -0.1110 -0.3175
   98MOL   C29245106   2.905   3.241   7.358  0.2382 -0.0061  0.1419
   98MOL   H29345107   3.237   2.755   7.262 -0.5007 -0.6384 -0.0573
   98MOL   H29445108   3.125   2.868   7.193 -1.3590  0.5231 -0.1409
   98MOL   H29545109   3.160   2.841   7.449  1.3920 -2.8453 -0.6132
   98MOL   H29645110   3.056   2.711   7.435 -1.3389 -0.1657 -0.2992
   98MOL   H29745111   2.747   2.943   7.291  1.8407 -0.6520 -0.2390
   98MOL   H29845112   2.600   3.103   7.160  1.2773 -0.3023 -1.3402
   98MOL   H29945113   2.834   3.436   7.306 -2.2277  0.4402 -1.1879
   98MOL   H30045114   2.996   3.281   7.401  1.0192 -1.1607 -0.4083
   98MOL   O30145115   2.442   3.432   7.026  0.2301 -0.2545 -0.5390
   98MOL   C30245116   2.357   3.511   7.107  0.0800 -0.2561  0.1583
   98MOL   C30345117   2.255   3.576   7.007  0.0615 -0.1385 -0.2699
   98MOL   O30445118   2.315   3.680   6.936 -0.0090  0.2448  0.4211
   98MOL   C30545119   2.355   3.654   6.806 -0.0070 -0.1768  0.3432
   98MOL   O30645120   2.334   3.546   6.742 -0.2170 -0.1302 -0.0983
   98MOL   C30745121   2.413   3.771   6.737  0.7073 -0.3403  0.8404
   98MOL   C30845122   2.427   3.901   6.800  0.1046  0.1107  0.0210
   98MOL   C30945123   2.472   4.011   6.729  0.1658 -0.0819 -0.3618
   98MOL   C31045124   2.505   3.994   6.593 -0.6074 -0.6464 -0.6394
   98MOL   C31145125   2.562   4.112   6.512 -0.1833 -0.1810 -0.5967
   98MOL   O31245126   2.641   4.105   6.417  0.0536  0.5607  0.4143
   98MOL   O31345127   2.511   4.231   6.556 -0.1263  0.7363  0.3617
   98MOL   C31445128   2.493   3.868   6.527 -0.4855 -0.0970  0.0906
   98MOL   C31545129   2.454   3.756   6.603 -0.1010  0.0223 -1.0215
   98MOL   H31645130   2.303   3.456   7.184  1.7693 -3.1634 -0.6412
   98MOL   H31745131   2.420   3.588   7.153  0.4634 -0.3642 -0.1814
   98MOL   H31845132   2.175   3.627   7.060  0.0114  0.8139 -1.2180
   98MOL   H31945133   2.194   3.506   6.950 -1.0697  1.2418 -0.7817
   98MOL   H32045134   2.399   3.902   6.904 -0.1876 -1.7411 -0.0106
   98MOL   H32145135   2.479   4.108   6.777 -0.8127  0.0481 -0.4662
   98MOL   H32245136   2.524   3.861   6.424  2.6331  0.2363  0.9556
   98MOL   H32345137   2.437   3.661   6.555  1.9192 -0.3324 -1.1030
   98MOL   O32445138   2.580   4.349   6.503 -0.0803  0.0369  0.3642
   98MOL   C32545139   2.668   4.405   6.607 -0.0632  0.2615  0.2457
   98MOL   C32645140   2.733   4.538   6.554 -0.3911  0.6339  0.0816
   98MOL   O32745141   2.809   4.509   6.435 -0.0588 -0.0370 -0.3505
   98MOL   C32845142   2.876   4.620   6.375  0.3626 -0.3120 -0.3036
   98MOL   O32945143   2.853   4.734   6.416  0.4423 -0.2981 -0.1142
   98MOL   C33045144   2.978   4.577   6.274 -0.3256 -0.0462  0.6702
   98MOL   C33145145   3.028   4.678   6.186  0.0221 -0.0343  0.4708
   98MOL   C33245146   3.132   4.644   6.096 -0.6689  0.1599 -0.7465
   98MOL   C33345147   3.190   4.516   6.096  0.9295  0.5260 -0.2696
   98MOL   C33445148   3.298   4.482   5.999 -0.4340 -0.2820  0.3801
   98MOL   O33545149   3.345   4.559   5.914 -0.1406 -0.1523 -0.1150
   98MOL   O33645150   3.349   4.353   6.009  0.0602 -0.2967  0.5744
   98MOL   C33745151   3.137   4.417   6.180  0.6147 -0.4591  0.6160
   98MOL   C33845152   3.029   4.446   6.264 -0.6964 -0.6537  0.8882
   98MOL   H33945153   2.597   4.432   6.685 -0.0037  2.7320 -0.5349
   98MOL   H34045154   2.750   4.342   6.642 -0.6180 -0.6337 -0.0457
   98MOL   H34145155   2.798   4.585   6.628  0.3169  1.7487 -1.2265
   98MOL   H34245156   2.655   4.611   6.534 -0.2654  0.8296  0.3000
   98MOL   H34345157   2.983   4.776   6.184 -0.0243 -0.0707 -0.5371
   98MOL   H34445158   3.176   4.715   6.028  0.6842 -0.1777 -0.2402
   98MOL   H34545159   3.177   4.317   6.173  1.6490  0.0295 -0.5933
   98MOL   H34645160   2.983   4.365   6.320 -1.8984 -1.1619 -0.8039
   98MOL   O34745161   3.442   4.325   5.900  0.0995  0.0470 -0.1513
   98MOL   C34845162   3.577   4.349   5.945  0.4536 -0.0069  0.8328
   98MOL   C34945163   3.665   4.388   5.834  0.1638  0.5634 -0.5056
   98MOL   O35045164   3.726   4.268   5.781  0.3176 -0.1277  0.2591
   98MOL   C35145165   3.823   4.203   5.850  0.1515 -0.2818  0.2186
   98MOL   O35245166   3.867   4.259   5.949  0.0323  0.0898 -0.4339
   98MOL   C35345167   3.869   4.076   5.798  0.2223 -0.2521  0.4080
   98MOL   C35445168   3.965   4.000   5.871 -0.1451 -0.0879 -0.6585
   98MOL   C35545169   3.990   3.870   5.835  0.0552  0.7819  0.7826
   98MOL   C35645170   3.933   3.811   5.721  0.6467 -1.0535 -0.5012
   98MOL   C35745171   3.988   3.677   5.675 -0.5063 -0.1681 -0.8409
   98MOL   O35845172   4.097   3.637   5.714  0.3769 -0.2496  0.2362
   98MOL   O35945173   3.898   3.612   5.600 -0.2586  0.5530  0.1558
   98MOL   C36045174   3.844   3.894   5.646  0.2086  0.5383 -0.5425
   98MOL   C36145175   3.808   4.019   5.683 -0.4845 -0.3069 -0.1151
   98MOL   H36245176   3.568   4.440   6.005 -1.0099  0.8687 -0.6598
   98MOL   H36345177   3.623   4.275   6.010  0.7174 -0.6891 -0.1205
   98MOL   H36445178   3.746   4.450   5.873 -1.2719 -0.1334  3.8346
   98MOL   H36545179   3.613   4.435   5.751  1.6879 -0.6253 -2.1689
   98MOL   H36645180   4.011   4.053   5.953 -0.5224  1.4513 -1.4210
   98MOL   H36745181   4.070   3.822   5.889  0.6612  0.1215 -0.6844
   98MOL   H36845182   3.799   3.838   5.565  3.3462 -1.6845 -0.8471
   98MOL   H36945183   3.739   4.077   5.624 -2.6355 -2.6487 -0.0205
   98MOL   O37045184   3.943   3.471   5.568  0.5519 -0.1284 -0.3776
   98MOL   C37145185   3.997   3.475   5.435  0.6699  0.2121  0.3318
   98MOL   C37245186   4.024   3.329   5.388  0.6046 -0.0229 -0.0122
   98MOL   O37345187   3.912   3.282   5.315  0.3427 -0.1353 -0.8226
   98MOL   C37445188   3.812   3.223   5.383 -0.7108 -0.2738  0.0882
   98MOL   O37545189   3.824   3.190   5.504 -0.2537 -0.0745 -0.1171
   98MOL   C37645190   3.702   3.190   5.293  0.6679 -0.1914  0.1625
   98MOL   C37745191   3.698   3.223   5.154 -0.2050 -0.5483  0.4003
   98MOL   C37845192   3.599   3.174   5.072  0.6908  0.6608 -0.3167
   98MOL   C37945193   3.488   3.104   5.126 -0.1215  0.4134 -0.0798
   98MOL   C38045194   3.372   3.077   5.044 -0.1891 -0.4759  0.4341
   98MOL   O38145195   3.372   3.091   4.919  0.6152 -0.2483  0.2570
   98MOL   O38245196   3.267   3.046   5.118  0.5395 -0.1904  0.5171
   98MOL   C38345197   3.486   3.076   5.263 -0.5891  0.1785 -0.0665
   98MOL   C38445198   3.591   3.118   5.343 -0.2673  0.4661 -0.1162
   98MOL   H38545199   3.923   3.525   5.372 -0.4235 -0.1286  1.3195
   98MOL   H38645200   4.085   3.538   5.444  0.3348  0.4032  2.5568
   98MOL   H38745201   4.066   3.271   5.470  2.3164  2.2067  0.7390
   98MOL   H38845202   4.104   3.334   5.315  1.5448 -3.1889  0.7547
   98MOL   H38945203   3.777   3.282   5.109  0.2882 -2.8463 -1.8320
   98MOL   H39045204   3.598   3.194   4.966  1.2706 -4.4705 -1.4429
   98MOL   H39145205   3.409   3.024   5.319 -1.2330  1.0593 -0.1349
   98MOL   H39245206   3.599   3.092   5.448 -0.6760 -0.4250 -0.2979
   98MOL   O39345207   3.145   3.015   5.032 -0.1712  0.2641  0.3664
   98MOL   C39445208   3.124   2.873   5.033 -0.1546 -0.8309  0.1514
   98MOL   C39545209   3.218   2.774   4.959  0.2771 -0.2833  0.9930
   98MOL   O39645210   3.205   2.638   5.014 -0.2110 -0.4897  0.0554
   98MOL   C39745211   3.125   2.558   4.949 -0.1244 -0.1022  0.4787
   98MOL   O39845212   3.061   2.592   4.850  0.5245  0.0255  0.1487
   98MOL   C39945213   3.136   2.418   4.992 -0.3602  1.6851 -0.5661
   98MOL   C40045214   3.093   2.314   4.904 -0.8403 -0.6428 -0.2883
   98MOL   C40145215   3.112   2.177   4.925  0.5728  0.1502  0.2639
   98MOL   C40245216   3.159   2.139   5.053  0.6320  0.3889 -0.3858
   98MOL   C40345217   3.187   1.993   5.079 -0.0203  0.0779 -0.6077
   98MOL   O40445218   3.228   1.950   5.190  0.3611 -0.1210  0.2477
   98MOL   O40545219   3.164   1.913   4.970 -0.1040 -0.6691  0.0196
   98MOL   C40645220   3.192   2.239   5.153  0.8595  0.1224  0.2881
   98MOL   C40745221   3.192   2.377   5.117 -0.2333 -0.0701  0.1276
   98MOL   H40845222   3.132   2.843   5.137 -1.7133 -0.9905  0.2351
   98MOL   H40945223   3.021   2.845   5.011 -0.3009 -0.2203  0.0610
   98MOL   H41045224   3.319   2.802   4.990  0.2065 -1.0180  1.9027
   98MOL   H41145225   3.210   2.772   4.850  2.5873 -3.8460  0.8091
   98MOL   H41245226   3.045   2.345   4.812 -0.8565  0.0269 -0.0575
   98MOL   H41345227   3.067   2.106   4.857 -1.5783  1.3784  0.3670
   98MOL   H41445228   3.252   2.206   5.236  1.9236  0.5183 -0.3091
   98MOL   H41545229   3.224   2.452   5.188 -0.0154 -0.6688  0.6703
   98MOL   O41645230   3.231   1.782   4.987 -0.1716 -0.2057 -0.3987
   98MOL   C41745231   3.123   1.691   4.990  0.2016  0.0411 -0.6357
   98MOL   C41845232   3.074   1.650   4.847  0.1263  0.2258 -0.0076
   98MOL   O41945233   3.011   1.763   4.787  0.0800 -0.1071  0.0579
   98MOL   C42045234   3.000   1.772   4.652 -0.0045 -0.4504  0.1657
   98MOL   O42145235   3.054   1.685   4.578  0.8187 -0.0164  0.0220
   98MOL   C42245236   2.946   1.903   4.610  0.6173  0.0659 -0.5006
   98MOL   C42345237   2.946   1.927   4.471  0.2224  0.0529 -0.0153
   98MOL   C42445238   2.900   2.048   4.424  0.5524 -0.8729 -0.2484
   98MOL   C42545239   2.848   2.148   4.503 -0.2860  0.9576 -0.3762
   98MOL   C42645240   2.822   2.290   4.444 -0.6921  0.2686  0.0519
   98MOL   O42745241   2.815   2.309   4.325  0.2913 -0.0624 -0.4183
   98MOL   O42845242   2.811   2.388   4.539  0.6398 -0.0978 -0.4392
   98MOL   C42945243   2.837   2.121   4.642  0.0457 -0.0229  0.1116
   98MOL   C43045244   2.882   1.999   4.695 -0.8716  0.0692  0.5833
   98MOL   H43145245   3.165   1.603   5.039  1.0667  1.0597  0.4987
   98MOL   H43245246   3.040   1.737   5.043  0.5715 -0.2899  0.2337
   98MOL   H43345247   3.009   1.564   4.840 -1.1811  1.3080 -1.5893
   98MOL   H43445248   3.165   1.628   4.791 -1.3940 -1.5343 -1.8645
   98MOL   H43545249   3.000   1.862   4.404  0.8589 -1.7961  2.2497
   98MOL   H43645250   2.910   2.074   4.319  1.5672  2.8784  0.6986
   98MOL   H43745251   2.795   2.205   4.695 -1.6512 -1.1617  0.6093
   98MOL   H43845252   2.885   1.986   4.802  0.7148  1.3820  0.7185
   98MOL   O43945253   2.809   2.525   4.489 -0.0027  0.4226  0.3929
   98MOL   C44045254   2.930   2.588   4.514  0.2126  0.1103 -0.4633
   98MOL   C44145255   2.940   2.739   4.485 -0.0387 -0.0011  0.9932
   98MOL   O44245256   2.951   2.764   4.342  0.4691  0.5621 -0.3083
   98MOL   C44345257   3.057   2.726   4.275 -0.4128  0.9693  0.0212
   98MOL   O44445258   3.152   2.676   4.328 -0.4531 -0.2946 -0.5903
   98MOL   C44545259   3.039   2.756   4.128 -0.2814 -0.4059 -0.3835
   98MOL   C44645260   3.117   2.697   4.030  0.5944  0.3732  0.2526
   98MOL   C44745261   3.120   2.746   3.896 -0.6320  0.2337  0.1449
   98MOL   C44845262   3.020   2.839   3.862 -0.1604  0.5452 -0.3215
   98MOL   C44945263   3.023   2.886   3.718 -0.0442 -0.0180 -0.2141
   98MOL   O45045264   3.088   2.828   3.634  0.1962  0.3361  0.3823
   98MOL   O45145265   2.944   2.991   3.689  0.7828  0.4635 -0.3918
   98MOL   C45245266   2.918   2.879   3.953 -0.0291 -0.2174 -0.5811
   98MOL   C45345267   2.934   2.845   4.087  0.2238 -0.5987  0.1790
   98MOL   H45445268   2.936   2.572   4.621  1.1741  0.7261 -0.4170
   98MOL   H45545269   3.013   2.527   4.480  0.7544  0.0640  0.9411
   98MOL   H45645270   3.028   2.781   4.532  1.7462  0.8806 -2.9109
   98MOL   H45745271   2.852   2.793   4.522 -0.3985  1.5928 -2.0226
   98MOL   H45845272   3.194   2.628   4.060  2.0980  1.5740 -0.7633
   98MOL   H45945273   3.196   2.720   3.825 -0.6728  0.1772  0.1213
   98MOL   H46045274   2.846   2.953   3.923 -0.5984 -1.1502 -1.5282
   98MOL   H46145275   2.865   2.896   4.153  0.8323 -0.0512  0.3934
   98MOL   H46245276   2.930   2.996   3.595 -2.5744  0.9127  0.0996
   99MOL     O145277   1.430   4.062   2.008  0.0791 -0.1065  0.5842
   99MOL     C245278   1.308   4.115   2.041 -0.5005 -0.4553 -0.0224
   99MOL     C345279   1.235   4.163   1.915 -0.0761 -0.2119  0.3171
   99MOL     O445280   1.248   4.300   1.890 -0.1623  0.0345 -0.0483
   99MOL     C545281   1.372   4.356   1.875 -0.1698  0.7400 -0.2771
   99MOL     O645282   1.479   4.296   1.870 -0.2559  0.3547  0.3420
   99MOL     C745283   1.362   4.501   1.887  0.3682  0.1855 -0.5418
   99MOL     C845284   1.246   4.562   1.947  0.8473 -0.1892 -0.4017
   99MOL     C945285   1.233   4.700   1.961  1.1465 -0.1864 -0.3558
   99MOL    C1045286   1.328   4.787   1.906 -0.1344  0.8868 -0.6992
   99MOL    C1145287   1.303   4.933   1.923 -0.1055  0.0746  0.3998
   99MOL    O1245288   1.199   4.986   1.962  0.3019 -0.7901  0.5386
   99MOL    O1345289   1.414   5.001   1.877 -0.0389  0.4491  0.5629
   99MOL    C1445290   1.435   4.733   1.837 -0.5307 -1.2356 -0.2433
   99MOL    C1545291   1.458   4.589   1.830  0.2759  0.0202 -1.1298
   99MOL    H1645292   1.240   4.049   2.096 -0.2822 -1.0653 -0.4797
   99MOL    H1745293   1.329   4.200   2.106  2.2156 -1.1698  0.0757
   99MOL    H1845294   1.128   4.150   1.930 -0.0798  0.1528  0.6220
   99MOL    H1945295   1.268   4.108   1.827  1.3583  1.7603 -0.4234
   99MOL    H2045296   1.162   4.499   1.973 -0.5799  1.1532 -1.7293
   99MOL    H2145297   1.140   4.747   1.990  1.2226  1.4601 -2.6230
   99MOL    H2245298   1.512   4.790   1.787 -0.4859 -1.3449 -0.2975
   99MOL    H2345299   1.549   4.557   1.782  0.0344 -2.2549 -0.1345
   99MOL    H2445300   1.480   4.123   1.956 -0.5112 -0.8815 -0.9186
   99MOL    O2545301   1.393   5.149   1.871 -0.6336  0.2936  0.5314
   99MOL    C2645302   1.375   5.190   1.735 -0.5411 -0.8464  0.5048
   99MOL    C2745303   1.373   5.338   1.732 -0.0290 -0.2321  0.8229
   99MOL    O2845304   1.371   5.391   1.599 -0.0205 -0.0380 -0.0967
   99MOL    C2945305   1.487   5.431   1.544 -0.0943 -0.2971  0.0971
   99MOL    O3045306   1.595   5.423   1.605 -0.0213 -0.0479 -0.2892
   99MOL    C3145307   1.474   5.467   1.401  0.0529  0.0039 -0.0365
   99MOL    C3245308   1.577   5.542   1.336 -0.5142 -0.2144 -0.7724
   99MOL    C3345309   1.569   5.579   1.203  0.2509  0.0610  0.1953
   99MOL    C3445310   1.453   5.559   1.125  0.2429 -0.5230 -0.3762
   99MOL    C3545311   1.454   5.601   0.980 -0.1944  0.3944  0.2142
   99MOL    O3645312   1.557   5.637   0.921  0.3767 -0.2992 -0.3502
   99MOL    O3745313   1.332   5.588   0.926  0.0888  0.0624  0.4072
   99MOL    C3845314   1.343   5.498   1.192  0.3185  0.3543 -0.1579
   99MOL    C3945315   1.351   5.454   1.327  0.5729  0.1035  0.2280
   99MOL    H4045316   1.462   5.154   1.680 -0.2306 -0.1092  0.5206
   99MOL    H4145317   1.288   5.142   1.690 -0.3149 -0.3275 -0.4981
   99MOL    H4245318   1.455   5.373   1.795 -0.1807  0.3044  0.7260
   99MOL    H4345319   1.286   5.379   1.783 -0.7653  0.4706 -0.9669
   99MOL    H4445320   1.667   5.557   1.394 -1.2771 -2.7179  1.1114
   99MOL    H4545321   1.657   5.627   1.163  0.6512  0.1252  1.1335
   99MOL    H4645322   1.252   5.476   1.138  0.4940  0.4116 -0.4814
   99MOL    H4745323   1.262   5.410   1.369  0.1989  1.5122  0.9473
   99MOL    O4845324   1.321   5.639   0.782  1.1667  0.0787  0.3419
   99MOL    C4945325   1.252   5.765   0.797  0.3014  0.0769  0.1725
   99MOL    C5045326   1.114   5.734   0.844  0.4101  1.8479 -0.4814
   99MOL    O5145327   1.009   5.755   0.746  0.0532 -0.2022 -0.0408
   99MOL    C5245328   0.973   5.670   0.640 -0.0540 -0.5857  0.2595
   99MOL    O5345329   1.045   5.577   0.597  0.2294 -0.4739  0.6810
   99MOL    C5445330   0.833   5.691   0.590 -0.4715  0.2254 -0.0073
   99MOL    C5545331   0.743   5.775   0.655 -0.2261 -0.1172  0.5489
   99MOL    C5645332   0.614   5.797   0.602  0.2369  0.2761  0.0510
   99MOL    C5745333   0.577   5.743   0.478  0.5077  0.4336 -0.0070
   99MOL    C5845334   0.444   5.773   0.419  0.6306  0.8083  0.6506
   99MOL    O5945335   0.362   5.850   0.465 -0.1575 -0.1673  0.3676
   99MOL    O6045336   0.417   5.691   0.312  0.2478  0.0500 -0.3053
   99MOL    C6145337   0.664   5.653   0.412  0.3744 -0.6379  0.1975
   99MOL    C6245338   0.794   5.628   0.468  0.4739  0.4148 -0.0218
   99MOL    H6345339   1.291   5.829   0.875  0.8326 -3.1476  2.6461
   99MOL    H6445340   1.248   5.808   0.697  0.6693 -1.0884 -0.3594
   99MOL    H6545341   1.088   5.779   0.940 -0.8125  1.6622 -0.7152
   99MOL    H6645342   1.104   5.626   0.860  1.9018  2.0115  1.9200
   99MOL    H6745343   0.761   5.826   0.748 -2.6669 -1.1067  1.5802
   99MOL    H6845344   0.544   5.857   0.658  1.0898  1.0873  0.2615
   99MOL    H6945345   0.647   5.612   0.313  1.0378  0.5203 -0.4066
   99MOL    H7045346   0.863   5.559   0.422 -0.2058  0.0725 -0.5477
   99MOL    O7145347   0.268   5.698   0.269  0.0375  0.2596 -0.3139
   99MOL    C7245348   0.270   5.785   0.147  0.0927  0.2832 -0.2599
   99MOL    C7345349   0.141   5.808   0.064  0.3233 -0.3351  0.0324
   99MOL    O7445350   0.184   5.863   8.216  0.0802 -0.3297 -0.1462
   99MOL    C7545351   0.093   5.913   8.135 -0.4953 -0.3155 -0.2405
   99MOL    O7645352   8.244   5.901   8.151 -0.5807  0.2754 -0.0156
   99MOL    C7745353   0.150   5.982   8.016 -0.1141  0.3648  0.0304
   99MOL    C7845354   0.062   6.033   7.921  0.2399  0.5042 -0.1790
   99MOL    C7945355   0.116   6.090   7.805 -0.1379 -0.3536  0.6145
   99MOL    C8045356   0.256   6.098   7.784  0.4079 -0.3183  0.3861
   99MOL    C8145357   0.300   6.170   7.660 -0.2781 -0.1476  0.3917
   99MOL    O8245358   0.220   6.208   7.576 -0.3719  0.3732  0.0605
   99MOL    O8345359   0.431   6.175   7.652 -0.5987 -0.2095  0.4939
   99MOL    C8445360   0.341   6.031   7.876  0.0593 -0.3034 -0.0950
   99MOL    C8545361   0.290   5.981   7.995  0.8742  0.2352 -0.4699
   99MOL    H8645362   0.325   5.878   0.163  1.2971 -0.5499  0.5300
   99MOL    H8745363   0.338   5.730   0.081  1.8766  2.9527 -0.7294
   99MOL    H8845364   0.067   5.868   0.116 -1.9811 -1.7015 -1.5798
   99MOL    H8945365   0.099   5.711   0.039  0.2621 -0.1327 -0.6756
   99MOL    H9045366   8.231   6.038   7.942  0.7190  0.1555  2.5453
   99MOL    H9145367   0.046   6.145   7.744 -1.3006 -0.4618  1.8306
   99MOL    H9245368   0.447   6.044   7.860  0.3358  0.4837  2.1502
   99MOL    H9345369   0.360   5.949   8.070  2.3001  0.6616 -1.5689
   99MOL    O9445370   0.478   6.206   7.510  0.2071  0.1059 -0.3126
   99MOL    C9545371   0.500   6.345   7.484  0.3085 -0.7741  0.1418
   99MOL    C9645372   0.639   6.366   7.543  1.3705  0.2852  0.2467
   99MOL    O9745373   0.671   6.503   7.519 -0.1994  0.2461 -0.2520
   99MOL    C9845374   0.716   6.539   7.403 -0.8237 -0.1703 -0.4481
   99MOL    O9945375   0.737   6.464   7.306  0.4224  0.6727 -0.0269
   99MOL   C10045376   0.758   6.683   7.404  0.6567 -0.3636 -0.0820
   99MOL   C10145377   0.752   6.763   7.529  0.8108  0.3905  0.9360
   99MOL   C10245378   0.789   6.899   7.524 -0.9213 -0.5187 -0.5564
   99MOL   C10345379   0.837   6.960   7.411  0.8424  0.3990 -0.2140
   99MOL   C10445380   0.890   7.099   7.421  0.2034  0.5550 -0.6460
   99MOL   O10545381   0.884   7.168   7.527  0.0304 -0.0827  0.1329
   99MOL   O10645382   0.953   7.142   7.315  0.1255 -0.0849 -0.1403
   99MOL   C10745383   0.848   6.882   7.289  0.4966 -0.0099 -0.0805
   99MOL   C10845384   0.812   6.745   7.289  0.8782  0.4622 -0.1086
   99MOL   H10945385   0.496   6.368   7.377  1.1411  1.2621  0.5193
   99MOL   H11045386   0.421   6.403   7.532 -0.0811  0.1439 -1.5609
   99MOL   H11145387   0.708   6.292   7.505  2.0346  2.0469 -2.0757
   99MOL   H11245388   0.640   6.346   7.650  0.0210 -0.7427  0.0802
   99MOL   H11345389   0.723   6.731   7.628 -0.7422 -1.2295 -0.0164
   99MOL   H11445390   0.779   6.943   7.622  0.1747 -2.2121  0.3366
   99MOL   H11545391   0.898   6.930   7.207  1.0878  0.0463  0.3127
   99MOL   H11645392   0.822   6.692   7.196 -0.7017  0.5611 -0.3634
   99MOL   O11745393   0.995   7.295   7.327 -0.1839 -0.4934  0.4405
   99MOL   C11845394   1.136   7.303   7.334 -0.2865 -0.6305 -0.1006
   99MOL   C11945395   1.179   7.452   7.337  0.3555  0.5587 -0.1019
   99MOL   O12045396   1.314   7.475   7.374 -0.4248 -0.0475  0.1468
   99MOL   C12145397   1.413   7.436   7.288  0.4368 -0.8435  0.4708
   99MOL   O12245398   1.395   7.392   7.172 -0.3384  0.2254  0.8396
   99MOL   C12345399   1.547   7.461   7.350 -0.1462  0.3059 -0.0772
   99MOL   C12445400   1.669   7.435   7.277 -0.1387 -0.8127  0.4154
   99MOL   C12545401   1.795   7.454   7.335 -0.0137  0.6207 -0.0947
   99MOL   C12645402   1.809   7.509   7.465 -0.5970  0.3008 -0.1375
   99MOL   C12745403   1.942   7.564   7.503 -0.1596 -0.1089 -0.0258
   99MOL   O12845404   2.035   7.563   7.426 -0.7558  0.5278 -0.2553
   99MOL   O12945405   1.945   7.626   7.622  0.0741 -0.3359  0.2882
   99MOL   C13045406   1.694   7.532   7.539 -0.2043 -0.2567 -0.5817
   99MOL   C13145407   1.566   7.507   7.483 -0.1219  0.4193 -0.4743
   99MOL   H13245408   1.176   7.246   7.418  0.3526 -0.7836 -0.5056
   99MOL   H13345409   1.179   7.252   7.248 -0.4612 -0.6503 -0.1749
   99MOL   H13445410   1.108   7.501   7.404 -0.2699 -0.2207 -0.1856
   99MOL   H13545411   1.168   7.492   7.236  1.2163  1.0692  0.0035
   99MOL   H13645412   1.657   7.396   7.177 -2.0099 -0.7756  0.6162
   99MOL   H13745413   1.880   7.430   7.272  0.6241  0.3150  0.8736
   99MOL   H13845414   1.694   7.576   7.637 -1.8390  0.4961 -0.8927
   99MOL   H13945415   1.483   7.529   7.549  1.2080  2.6824  0.4992
   99MOL   O14045416   2.006   7.767   7.623 -0.2605 -0.1939 -0.3424
   99MOL   C14145417   1.907   7.870   7.597  0.1795  0.1477 -0.6839
   99MOL   C14245418   1.959   8.015   7.600  0.9995  0.9059  0.3587
   99MOL   O14345419   2.071   8.022   7.517  0.6035 -0.0967  0.1932
   99MOL   C14445420   2.116   8.133   7.476  0.4200 -0.1911  0.6569
   99MOL   O14545421   2.074   8.233   7.518  0.1901  0.4152 -0.7422
   99MOL   C14645422   2.239   8.117   7.393  0.1040 -0.0055  0.2136
   99MOL   C14745423   2.279   7.987   7.365 -0.2722 -0.6097 -0.1457
   99MOL   C14845424   2.386   7.973   7.273  0.1502  0.1718 -0.1017
   99MOL   C14945425   2.447   8.084   7.212 -0.2389 -0.4102  0.2444
   99MOL   C15045426   2.551   8.061   7.104  0.4030  0.5532 -0.1070
   99MOL   O15145427   2.632   8.140   7.065 -0.6619  0.1021  0.5047
   99MOL   O15245428   2.551   7.937   7.051  0.4847 -0.1638 -0.4166
   99MOL   C15345429   2.406   8.211   7.249  0.4329 -0.2935  0.6113
   99MOL   C15445430   2.301   8.231   7.343 -0.6000 -0.8239  0.0500
   99MOL   H15545431   1.880   7.842   7.495  1.1631  0.2848 -0.9907
   99MOL   H15645432   1.821   7.862   7.663  0.8331  2.4234  0.4922
   99MOL   H15745433   1.962   8.055   7.701 -1.8245  0.9737  0.4613
   99MOL   H15845434   1.877   8.063   7.546 -1.1661 -2.7184  0.2246
   99MOL   H15945435   2.235   7.891   7.390  0.4226 -1.0383 -0.5389
   99MOL   H16045436   2.421   7.872   7.256 -0.3405 -0.3355  1.7040
   99MOL   H16145437   2.445   0.021   7.195  1.2668 -1.4432 -0.6306
   99MOL   H16245438   2.259   0.053   7.364  0.5458 -0.4249  0.5524
   99MOL   O16345439   2.656   7.912   6.950  0.0316  0.8605 -0.5194
   99MOL   C16445440   2.599   7.926   6.818  0.6096 -0.2315 -0.2071
   99MOL   C16545441   2.471   7.840   6.808  0.4303 -0.0127 -0.3411
   99MOL   O16645442   2.353   7.905   6.859 -0.3141 -0.4842 -0.2597
   99MOL   C16745443   2.247   7.931   6.777 -0.3272 -0.6614 -0.6881
   99MOL   O16845444   2.250   7.919   6.655  0.6195 -0.1170 -0.7748
   99MOL   C16945445   2.134   7.985   6.858  0.5419 -0.5040  0.8420
   99MOL   C17045446   2.152   8.025   6.987  0.3569 -0.0670 -0.6158
   99MOL   C17145447   2.044   8.091   7.052  0.7065  0.1341  0.3801
   99MOL   C17245448   1.925   8.106   6.987  0.7705  0.1694 -0.0201
   99MOL   C17345449   1.805   8.159   7.061 -0.0763 -0.2137  0.5549
   99MOL   O17445450   1.820   8.231   7.156  0.7144 -0.1793 -0.0454
   99MOL   O17545451   1.680   8.122   7.011 -0.1277  0.8468  0.4968
   99MOL   C17645452   1.908   8.077   6.852 -0.0343  0.2171  0.0519
   99MOL   C17745453   2.013   8.008   6.789  0.0281 -0.1440 -0.2231
   99MOL   H17845454   2.575   8.030   6.795  1.5340 -0.0276 -0.2755
   99MOL   H17945455   2.683   7.907   6.752 -0.2993 -0.4314 -1.3179
   99MOL   H18045456   2.470   7.739   6.848 -0.8063 -0.1428 -0.6871
   99MOL   H18145457   2.448   7.825   6.703 -3.0819  2.8259 -0.0945
   99MOL   H18245458   2.239   8.012   7.049 -0.8426 -2.9225  0.5551
   99MOL   H18345459   2.039   8.123   7.155 -2.5089  0.6206  0.1200
   99MOL   H18445460   1.811   8.096   6.808 -0.4086 -1.0852  0.2873
   99MOL   H18545461   2.007   7.977   6.685  1.3104 -0.4106 -0.2308
   99MOL   O18645462   1.568   8.212   7.070  0.4823  0.1021 -0.1974
   99MOL   C18745463   1.490   8.135   7.162 -0.4520  0.1997 -0.1171
   99MOL   C18845464   1.557   8.103   7.300  0.0673  0.1706  0.6677
   99MOL   O18945465   1.477   7.998   7.367  0.4565 -0.3084  0.7391
   99MOL   C19045466   1.516   7.947   7.480  0.1946 -0.5383  0.3780
   99MOL   O19145467   1.620   7.971   7.534 -0.2532  0.3016 -0.1794
   99MOL   C19245468   1.410   7.847   7.529 -0.0005  0.3082 -0.1418
   99MOL   C19345469   1.273   7.852   7.485 -0.3061  0.0534 -0.6106
   99MOL   C19445470   1.177   7.765   7.545  0.0300  0.6464  0.3774
   99MOL   C19545471   1.206   7.679   7.654  0.8686  0.0498  0.2534
   99MOL   C19645472   1.107   7.590   7.721  0.5886 -0.3060 -0.3221
   99MOL   O19745473   1.146   7.527   7.821  0.4779 -0.2633 -1.0777
   99MOL   O19845474   0.985   7.579   7.654 -0.4708  0.1862  0.9191
   99MOL   C19945475   1.344   7.676   7.701 -0.7393  0.4068  0.7504
   99MOL   C20045476   1.438   7.761   7.638 -1.0901 -0.2733 -0.2182
   99MOL   H20145477   1.390   8.175   7.176 -1.2120 -0.8361 -2.2604
   99MOL   H20245478   1.467   8.047   7.102  0.8484  0.2920 -0.7680
   99MOL   H20345479   1.576   8.196   7.355 -1.4920  1.3959 -0.7957
   99MOL   H20445480   1.653   8.054   7.284 -0.5046 -0.6648 -0.2331
   99MOL   H20545481   1.245   7.923   7.409  1.7243  0.0848 -1.3520
   99MOL   H20645482   1.082   7.761   7.493  0.8242  1.1614 -1.1447
   99MOL   H20745483   1.375   7.608   7.778 -1.9226 -0.9798  0.0232
   99MOL   H20845484   1.540   7.768   7.674  0.1497 -0.7140 -3.5455
   99MOL   O20945485   0.894   7.473   7.699  0.1965 -0.1319 -0.2357
   99MOL   C21045486   0.784   7.532   7.769 -0.2393 -0.0831  0.0030
   99MOL   C21145487   0.677   7.440   7.819 -0.2817  0.3836  0.3649
   99MOL   O21245488   0.597   7.398   7.707 -0.3099 -0.1286 -0.3174
   99MOL   C21345489   0.490   7.315   7.731  0.5698  0.1191 -0.2695
   99MOL   O21445490   0.452   7.279   7.842 -0.1533  0.8014  0.3863
   99MOL   C21545491   0.425   7.254   7.613 -0.2915  0.1900 -0.1287
   99MOL   C21645492   0.494   7.238   7.497 -0.2058  0.1612 -0.3226
   99MOL   C21745493   0.420   7.181   7.384 -0.0234 -0.1527 -0.1297
   99MOL   C21845494   0.285   7.131   7.392  0.0803 -0.2524 -0.4016
   99MOL   C21945495   0.216   7.067   7.275  0.5442 -0.2257  0.6529
   99MOL   O22045496   0.274   7.054   7.167  0.5116 -0.3478 -0.4362
   99MOL   O22145497   0.089   7.024   7.310  0.6678 -0.3321 -0.4848
   99MOL   C22245498   0.218   7.159   7.513 -0.3780  0.4029 -0.1050
   99MOL   C22345499   0.285   7.226   7.617 -0.4030 -0.3426 -0.1090
   99MOL   H22445500   0.827   7.585   7.854  0.7381  0.6789 -0.9584
   99MOL   H22545501   0.734   7.604   7.704 -0.1506  0.0847  0.1208
   99MOL   H22645502   0.614   7.491   7.892 -0.6299  0.2228  0.1778
   99MOL   H22745503   0.720   7.350   7.863  2.3893  0.4920 -1.8725
   99MOL   H22845504   0.601   7.254   7.492  0.0927 -0.9444  1.8119
   99MOL   H22945505   0.480   7.151   7.299  1.9642 -0.2136  1.2418
   99MOL   H23045506   0.112   7.142   7.522 -0.7266  1.9665 -1.2235
   99MOL   H23145507   0.238   7.255   7.710 -0.4665  0.1351 -0.2856
   99MOL   O23245508   0.017   6.954   7.196  0.4904  0.0337  0.0007
   99MOL   C23345509   8.211   7.051   7.134  0.0476 -0.3454 -0.3003
   99MOL   C23445510   8.076   7.076   7.207 -0.2746  0.1281  0.6238
   99MOL   O23545511   7.974   7.015   7.136 -0.6343 -0.3252 -0.0527
   99MOL   C23645512   7.894   6.926   7.197 -0.4203  0.5794 -0.1519
   99MOL   O23745513   7.922   6.873   7.302 -0.2966  0.4501 -0.1135
   99MOL   C23845514   7.773   6.888   7.111  0.1087 -0.4847  0.0629
   99MOL   C23945515   7.670   6.809   7.163 -0.6304 -0.0068  0.2679
   99MOL   C24045516   7.560   6.768   7.078  0.5080 -0.4513  0.5410
   99MOL   C24145517   7.547   6.822   6.947  0.6359  0.0493 -0.6963
   99MOL   C24245518   7.423   6.800   6.873 -0.6073  0.1229  0.2928
   99MOL   O24345519   7.371   6.882   6.794  0.6740  0.5436  0.1645
   99MOL   O24445520   7.365   6.675   6.897 -0.1610  0.2783 -0.2783
   99MOL   C24545521   7.653   6.892   6.890 -0.2944  0.5951  0.8921
   99MOL   C24645522   7.763   6.929   6.969 -1.1426 -0.2997 -0.4891
   99MOL   H24745523   8.258   7.148   7.119 -0.3221 -0.0735  0.3043
   99MOL   H24845524   8.197   7.026   7.028  0.6667  2.4188 -1.0795
   99MOL   H24945525   8.056   7.182   7.191  0.1267  0.4843  2.4188
   99MOL   H25045526   8.088   7.073   7.315 -2.8027  0.1527  0.9357
   99MOL   H25145527   7.662   6.766   7.262 -1.4302 -0.3886  0.0395
   99MOL   H25245528   7.484   6.701   7.114 -0.3354 -0.3809 -1.0911
   99MOL   H25345529   7.635   6.921   6.787 -2.8040 -2.9066  0.2473
   99MOL   H25445530   7.841   6.990   6.927 -2.3178  1.5575 -0.0304
   99MOL   O25545531   7.250   6.644   6.804  0.3570 -0.1485 -0.1641
   99MOL   C25645532   7.278   6.526   6.732  0.3466  0.1187 -0.4250
   99MOL   C25745533   7.355   6.555   6.605 -0.3396  0.0910 -0.2958
   99MOL   O25845534   7.495   6.579   6.641  0.5454  0.1481 -0.2416
   99MOL   C25945535   7.585   6.634   6.563  0.4248  0.0803  0.4446
   99MOL   O26045536   7.557   6.663   6.443  0.5770  0.0831  0.3084
   99MOL   C26145537   7.717   6.659   6.627 -0.2277  0.4913 -0.5487
   99MOL   C26245538   7.816   6.724   6.554 -0.0318 -0.2265  0.0694
   99MOL   C26345539   7.938   6.758   6.617 -0.3611 -0.6393  0.3058
   99MOL   C26445540   7.966   6.733   6.753 -0.5056  0.4172  0.2506
   99MOL   C26545541   8.088   6.798   6.810  0.0633  0.0564  0.0021
   99MOL   O26645542   8.113   6.797   6.933  0.1834  0.4253 -0.4214
   99MOL   O26745543   8.152   6.862   6.718 -0.2246  0.2789 -0.4745
   99MOL   C26845544   7.862   6.666   6.824 -0.7285  0.4683  0.4505
   99MOL   C26945545   7.745   6.621   6.760 -0.3869  0.2575 -0.0203
   99MOL   H27045546   7.333   6.464   6.803 -0.0851 -0.2636 -0.4215
   99MOL   H27145547   7.183   6.480   6.704  0.5299  0.4369 -1.5880
   99MOL   H27245548   7.319   6.639   6.545  0.9087  2.2281  1.8689
   99MOL   H27345549   7.370   6.478   6.529 -1.5170  1.8595 -2.3963
   99MOL   H27445550   7.799   6.751   6.451  0.9454  0.2516  0.0364
   99MOL   H27545551   8.016   6.782   6.547 -1.0909  0.9458  0.0094
   99MOL   H27645552   7.874   6.640   6.928  0.8329 -0.3859  0.0644
   99MOL   H27745553   7.672   6.559   6.809 -0.0935 -1.6945 -1.9773
   99MOL   O27845554   8.231   6.982   6.773 -0.1661  0.2059  0.0483
   99MOL   C27945555   8.191   7.103   6.706  0.5849 -0.2955 -0.1444
   99MOL   C28045556   8.171   7.087   6.562  0.0668 -0.2531 -0.1509
   99MOL   O28145557   8.034   7.074   6.521 -0.5200 -0.0914  0.4068
   99MOL   C28245558   7.951   7.176   6.501  0.2175 -0.5121  1.4817
   99MOL   O28345559   7.993   7.291   6.495 -0.1672 -0.9532  0.0717
   99MOL   C28445560   7.801   7.150   6.485 -0.2770 -0.3687  0.2576
   99MOL   C28545561   7.723   7.234   6.399  0.4417  0.0045  0.6536
   99MOL   C28645562   7.591   7.209   6.372 -0.2097  0.1135  0.1697
   99MOL   C28745563   7.532   7.092   6.433  0.6984 -0.3153  0.0963
   99MOL   C28845564   7.381   7.073   6.414 -0.0932 -0.2243  0.0985
   99MOL   O28945565   7.314   7.150   6.344  0.0515 -0.3258  0.8835
   99MOL   O29045566   7.332   6.978   6.491  0.5737 -0.0425  0.6744
   99MOL   C29145567   7.601   7.013   6.525 -0.3356 -0.5888 -0.2445
   99MOL   C29245568   7.737   7.039   6.545  0.6702 -0.1725  0.0551
   99MOL   H29345569   8.107   7.155   6.753  0.7346 -1.0202  0.9283
   99MOL   H29445570   0.002   7.169   6.710  1.0774 -1.0006  0.9824
   99MOL   H29545571   8.234   7.008   6.519  0.4601 -0.0996  0.1424
   99MOL   H29645572   8.199   7.179   6.511 -0.9256  0.4462  0.5447
   99MOL   H29745573   7.769   7.316   6.346 -1.8191  1.8706  1.5154
   99MOL   H29845574   7.538   7.273   6.302  1.9101 -0.3802 -1.9763
   99MOL   H29945575   7.558   6.927   6.575 -1.1296 -0.2769 -0.3871
   99MOL   H30045576   7.789   6.970   6.610 -0.2007 -2.8523 -1.9955
   99MOL   O30145577   7.181   6.971   6.491 -1.2232 -0.3895 -0.2521
   99MOL   C30245578   7.133   7.037   6.609  0.7199 -0.0556  0.5843
   99MOL   C30345579   6.982   7.047   6.621 -0.3932 -0.0832  0.5131
   99MOL   O30445580   6.915   6.927   6.621 -0.0528  0.2127 -0.4578
   99MOL   C30545581   6.926   6.848   6.726  0.3770 -0.2863  0.2753
   99MOL   O30645582   7.009   6.873   6.815  0.8397  0.1583  0.5988
   99MOL   C30745583   6.846   6.721   6.725  0.5004  0.2426 -0.3113
   99MOL   C30845584   6.719   6.715   6.667 -0.1240 -0.4271 -0.0767
   99MOL   C30945585   6.636   6.598   6.681 -0.1043  0.3018  0.3798
   99MOL   C31045586   6.683   6.485   6.757  0.3988 -0.7405  0.2368
   99MOL   C31145587   6.598   6.362   6.779  0.2098  0.5067 -0.0386
   99MOL   O31245588   6.634   6.260   6.838  0.6147 -0.0702 -0.3483
   99MOL   O31345589   6.484   6.371   6.721 -0.2028 -0.7016 -0.6238
   99MOL   C31445590   6.815   6.491   6.808 -0.2203 -0.2063  0.1832
   99MOL   C31545591   6.891   6.609   6.793 -0.1331 -0.1588  0.2247
   99MOL   H31645592   7.163   6.993   6.705  0.1420  0.3369  0.9518
   99MOL   H31745593   7.177   7.136   6.616 -0.6877  0.7182 -1.0880
   99MOL   H31845594   6.946   7.103   6.535 -2.2340 -1.1088  0.5844
   99MOL   H31945595   6.954   7.118   6.699 -0.4586  3.9410 -2.9948
   99MOL   H32045596   6.683   6.810   6.630 -0.1298  0.3440  1.8628
   99MOL   H32145597   6.533   6.600   6.650 -0.2234 -0.0079  0.7491
   99MOL   H32245598   6.848   6.406   6.867 -0.6841  0.3520  1.2749
   99MOL   H32345599   6.995   6.615   6.823 -0.3331 -2.0678  1.3592
   99MOL   O32445600   6.384   6.262   6.763 -0.3571  0.5835  0.1363
   99MOL   C32545601   6.357   6.189   6.639 -0.5155  0.6888 -0.8972
   99MOL   C32645602   6.254   6.268   6.562 -0.0860  0.2569  0.3442
   99MOL   O32745603   6.239   6.222   6.422  0.6327 -0.1913  0.1080
   99MOL   C32845604   6.170   6.100   6.408  0.2816  0.8867  0.6150
   99MOL   O32945605   6.105   6.044   6.501 -0.8725 -0.1751 -0.1145
   99MOL   C33045606   6.172   6.038   6.267 -0.0415  0.4937  0.0814
   99MOL   C33145607   6.102   5.921   6.231  0.0651 -0.4936 -0.2208
   99MOL   C33245608   6.121   5.861   6.109 -0.1243 -0.0784  0.1020
   99MOL   C33345609   6.197   5.920   6.010 -0.1662 -0.4734  0.2884
   99MOL   C33445610   6.217   5.867   5.876  1.1207  0.0136 -0.1312
   99MOL   O33545611   6.276   5.923   5.785  0.1848 -0.0311  0.3711
   99MOL   O33645612   6.135   5.764   5.863 -0.0140 -0.3026  0.2234
   99MOL   C33745613   6.264   6.037   6.046 -0.0974  0.4954  0.0960
   99MOL   C33845614   6.252   6.099   6.168  0.2119 -0.6382  0.2813
   99MOL   H33945615   6.452   6.174   6.588 -0.3036 -0.5584 -0.1390
   99MOL   H34045616   6.310   6.092   6.658  0.0965  0.3748 -0.9715
   99MOL   H34145617   6.276   6.374   6.552 -2.5764  0.6403 -1.5621
   99MOL   H34245618   6.159   6.249   6.612 -0.2883  0.6023  0.0891
   99MOL   H34345619   6.035   5.866   6.295 -0.7489 -0.2927 -0.8778
   99MOL   H34445620   6.062   5.771   6.102  0.1773 -0.2666 -0.0066
   99MOL   H34545621   6.325   6.086   5.971  0.2547 -0.6007 -0.3378
   99MOL   H34645622   6.319   6.183   6.179  0.5350 -1.0215  1.2375
   99MOL   O34745623   6.108   5.732   5.718  0.3328  0.4362  0.3674
   99MOL   C34845624   6.202   5.639   5.663 -0.0751  0.4170 -0.0964
   99MOL   C34945625   6.153   5.611   5.517  0.3469  0.3884  0.5883
   99MOL   O35045626   6.147   5.737   5.447  0.5546 -0.4451 -0.3366
   99MOL   C35145627   6.253   5.794   5.400 -0.6882 -0.4522 -0.4352
   99MOL   O35245628   6.370   5.762   5.429  0.2399  0.0284 -0.4608
   99MOL   C35345629   6.226   5.913   5.319 -0.2330 -0.4465  0.5598
   99MOL   C35445630   6.325   5.965   5.229 -0.4783 -0.2560  0.0791
   99MOL   C35545631   6.301   6.087   5.159  0.3210 -0.5566 -0.4750
   99MOL   C35645632   6.179   6.162   5.175  0.4907  0.1363 -0.2888
   99MOL   C35745633   6.151   6.290   5.104  0.0038 -0.4759 -0.3430
   99MOL   O35845634   6.050   6.358   5.115  0.4017 -0.3035  0.5234
   99MOL   O35945635   6.248   6.328   5.015  0.2771  0.1994  1.0184
   99MOL   C36045636   6.090   6.115   5.270 -0.0728  0.6767 -0.8782
   99MOL   C36145637   6.113   5.990   5.337 -0.1436 -0.0479 -0.5850
   99MOL   H36245638   6.299   5.688   5.663 -0.5551  1.4211 -2.1716
   99MOL   H36345639   6.185   5.554   5.729 -1.0620  0.2731 -0.5200
   99MOL   H36445640   6.058   5.558   5.523 -0.1402  0.7309 -3.0536
   99MOL   H36545641   6.217   5.536   5.470 -2.0687 -0.7688 -0.9663
   99MOL   H36645642   6.419   5.915   5.209  0.4680  1.7545 -0.5545
   99MOL   H36745643   6.374   6.112   5.083  2.1310  1.0061  1.7203
   99MOL   H36845644   6.000   6.169   5.296 -0.4019  0.4895 -1.6050
   99MOL   H36945645   6.034   5.951   5.400  0.6497  0.8051  0.9695
   99MOL   O37045646   6.226   6.473   4.957 -0.4685 -0.2171 -0.0047
   99MOL   C37145647   6.149   6.467   4.837 -0.6433 -0.9294  0.2667
   99MOL   C37245648   6.184   6.587   4.766  0.0372 -0.4360  0.3817
   99MOL   O37345649   6.295   6.568   4.684  0.0575 -0.6153  0.6173
   99MOL   C37445650   6.348   6.668   4.608  0.0653 -1.0588 -0.2648
   99MOL   O37545651   6.300   6.780   4.598  0.3633 -0.6581  0.1094
   99MOL   C37645652   6.463   6.620   4.528 -0.3062  0.6428  0.8015
   99MOL   C37745653   6.527   6.705   4.435  1.3116 -0.3342  0.3764
   99MOL   C37845654   6.645   6.661   4.375  0.4710  0.0366  0.3415
   99MOL   C37945655   6.694   6.531   4.387 -0.0309 -0.0504  0.0649
   99MOL   C38045656   6.796   6.474   4.293  0.7049  0.4265 -0.8045
   99MOL   O38145657   6.834   6.539   4.201 -0.6354  0.0298  0.0745
   99MOL   O38245658   6.829   6.349   4.312  0.0105  0.0356 -0.4560
   99MOL   C38345659   6.633   6.444   4.484 -0.5194  0.7546 -0.1630
   99MOL   C38445660   6.514   6.486   4.546 -0.4071  0.3040 -0.0466
   99MOL   H38545661   6.175   6.382   4.774  0.3961 -0.0316 -0.5330
   99MOL   H38645662   6.043   6.454   4.860 -0.8679 -0.8650 -0.7025
   99MOL   H38745663   6.199   6.673   4.830 -0.1992  1.0030 -1.4587
   99MOL   H38845664   6.106   6.620   4.698 -0.7630  1.5365  2.2106
   99MOL   H38945665   6.488   6.804   4.413  1.1063 -0.1995  1.3144
   99MOL   H39045666   6.678   6.743   4.313  1.9524  0.9582  2.3131
   99MOL   H39145667   6.666   6.342   4.500 -1.5896  0.4116 -0.1058
   99MOL   H39245668   6.472   6.413   4.614  1.5838 -0.2029  0.6617
   99MOL   O39345669   6.906   6.293   4.191 -0.3196 -0.2132 -0.7771
   99MOL   C39445670   7.045   6.300   4.210  0.3854 -0.4276 -0.9668
   99MOL   C39545671   7.114   6.247   4.086 -0.1955 -0.0162  0.7025
   99MOL   O39645672   7.088   6.328   3.973  0.2732  0.2691  0.6204
   99MOL   C39745673   7.083   6.267   3.846 -0.6300  0.6357  0.6470
   99MOL   O39845674   7.117   6.151   3.823 -0.8567  0.3066  0.7782
   99MOL   C39945675   7.028   6.368   3.744 -0.7049  0.3090  0.5799
   99MOL   C40045676   6.978   6.327   3.615 -0.3997 -0.1374  1.0709
   99MOL   C40145677   6.899   6.418   3.543  0.3088 -1.0158  0.2835
   99MOL   C40245678   6.897   6.557   3.564 -0.2170  1.0469  0.3080
   99MOL   C40345679   6.825   6.641   3.458  0.1517  0.3610 -1.2092
   99MOL   O40445680   6.760   6.605   3.359 -0.0027 -0.6863 -0.2953
   99MOL   O40545681   6.831   6.779   3.499 -0.5807 -0.3999 -0.1790
   99MOL   C40645682   6.958   6.607   3.686  0.6116  0.0372  0.1112
   99MOL   C40745683   7.009   6.510   3.774  0.5810 -0.2078 -0.0303
   99MOL   H40845684   7.078   6.403   4.225 -1.9016  0.1183  0.6273
   99MOL   H40945685   7.070   6.246   4.301 -0.4615 -0.3567 -0.6864
   99MOL   H41045686   7.085   6.146   4.057  0.6791 -0.0480 -0.0829
   99MOL   H41145687   7.222   6.246   4.097 -0.3589 -0.5208  2.3232
   99MOL   H41245688   6.974   6.223   3.589  2.7939 -0.5191  1.8360
   99MOL   H41345689   6.859   6.379   3.450  0.1563 -3.1125  1.1985
   99MOL   H41445690   6.959   6.713   3.706 -0.2660  0.1913 -0.6068
   99MOL   H41545691   7.021   6.541   3.876 -1.5999 -0.9604  0.4896
   99MOL   O41645692   6.740   6.877   3.423  0.2229  0.2319 -0.3855
   99MOL   C41745693   6.814   6.935   3.315  0.2471  0.1303  0.9109
   99MOL   C41845694   6.898   7.051   3.364 -0.9093 -0.3891  0.2049
   99MOL   O41945695   6.994   7.105   3.273  0.3019 -0.4473  0.1663
   99MOL   C42045696   7.113   7.042   3.269  0.0945  0.0382  0.1216
   99MOL   O42145697   7.138   6.944   3.327  0.2908  0.5530  0.4215
   99MOL   C42245698   7.205   7.119   3.177  0.2745  0.8568 -0.5724
   99MOL   C42345699   7.174   7.250   3.141 -0.4599 -0.0846  0.4462
   99MOL   C42445700   7.266   7.325   3.061  0.0532  0.1800  0.8421
   99MOL   C42545701   7.388   7.268   3.024  0.3963 -0.4468 -0.5084
   99MOL   C42645702   7.482   7.357   2.952 -0.6596 -1.1635  0.4235
   99MOL   O42745703   7.468   7.473   2.928 -0.4768  0.0619  0.3636
   99MOL   O42845704   7.602   7.295   2.940  0.3460  0.0619  0.1121
   99MOL   C42945705   7.416   7.134   3.058  0.2216 -0.0021 -0.2073
   99MOL   C43045706   7.324   7.059   3.138 -0.2357 -0.2745  0.2697
   99MOL   H43145707   6.882   6.863   3.270  0.4900  0.9549 -0.0528
   99MOL   H43245708   6.760   6.965   3.225  0.3319  1.2601  1.2342
   99MOL   H43345709   6.951   7.023   3.455  2.4749 -0.4089 -1.6574
   99MOL   H43445710   6.827   7.129   3.390 -0.4410  0.2228 -0.3096
   99MOL   H43545711   7.079   7.291   3.173 -1.6315 -2.9658  0.7829
   99MOL   H43645712   7.235   7.425   3.033 -0.2910  0.1542  1.1208
   99MOL   H43745713   7.511   7.088   3.036  0.2463 -0.1641  0.2360
   99MOL   H43845714   7.351   6.959   3.169  3.2996  1.1358  2.0533
   99MOL   O43945715   7.716   7.377   2.902  0.5660 -0.4772  0.3851
   99MOL   C44045716   7.741   7.367   2.760  0.0688 -0.3295  0.4792
   99MOL   C44145717   7.869   7.441   2.719  0.2584  0.1536  0.2562
   99MOL   O44245718   7.975   7.345   2.685  0.1463  0.6838 -0.7741
   99MOL   C44345719   7.978   7.278   2.571  0.0891 -0.0331  0.0649
   99MOL   O44445720   7.895   7.298   2.480  0.2996 -0.2228  0.5393
   99MOL   C44545721   8.076   7.165   2.573  0.0165  1.0803  0.1988
   99MOL   C44645722   8.074   7.062   2.473  0.2143 -0.1681  0.7337
   99MOL   C44745723   8.178   6.971   2.466  0.8830 -0.3211  0.7888
   99MOL   C44845724   0.002   6.963   2.557  0.2266  0.4142 -0.3755
   99MOL   C44945725   0.100   6.845   2.562 -0.8449 -0.2455 -0.3981
   99MOL   O45045726   0.121   6.777   2.462  0.6428 -0.3275  0.1495
   99MOL   O45145727   0.173   6.824   2.675 -0.1173  0.2591  0.5987
   99MOL   C45245728   8.273   7.051   2.667 -0.9218 -0.1192  0.4810
   99MOL   C45345729   8.174   7.153   2.672  0.3875 -0.0986 -0.9398
   99MOL   H45445730   7.738   7.263   2.726 -1.9970  0.7036 -2.6142
   99MOL   H45545731   7.658   7.408   2.703  0.9148  2.1818  1.0264
   99MOL   H45645732   7.907   7.507   2.797  0.0209 -0.3286  0.7818
   99MOL   H45745733   7.847   7.499   2.630 -0.3038  1.1089  1.0038
   99MOL   H45845734   8.007   7.060   2.389  2.1852 -2.4804 -0.8897
   99MOL   H45945735   8.171   6.901   2.384  1.5976  0.4398  0.0678
   99MOL   H46045736   0.074   7.041   2.743  0.8639 -2.8863 -1.5977
   99MOL   H46145737   8.175   7.229   2.750  2.2019 -0.9748 -0.0826
   99MOL   H46245738   0.219   6.742   2.665 -2.5353 -1.0458 -0.2039
  100MOL     O145739   0.482   6.012   0.930 -0.1928 -0.1372  0.2676
  100MOL     C245740   0.381   5.942   0.867  0.3485 -0.0281 -0.3552
  100MOL     C345741   0.255   5.966   0.957  0.0023  0.0005 -1.1028
  100MOL     O445742   0.233   5.869   1.063  0.0727  0.1042  0.8657
  100MOL     C545743   0.295   5.887   1.182  0.3683  0.8033 -0.2765
  100MOL     O645744   0.347   5.995   1.212  0.1850 -0.4775 -0.0942
  100MOL     C745745   0.278   5.773   1.267  0.0666 -0.3774  0.3055
  100MOL     C845746   0.180   5.676   1.246  0.7493  0.1461 -0.2826
  100MOL     C945747   0.164   5.572   1.335 -0.1520  1.0406  0.2508
  100MOL    C1045748   0.255   5.549   1.443 -0.0490 -0.9414  0.0425
  100MOL    C1145749   0.251   5.421   1.527 -0.0649 -0.5361 -0.2887
  100MOL    O1245750   0.345   5.404   1.600 -0.1886  0.0947  0.3053
  100MOL    O1345751   0.132   5.358   1.529  0.2687 -0.3170 -0.0150
  100MOL    C1445752   0.356   5.647   1.467  0.4567  0.5842  0.4672
  100MOL    C1545753   0.358   5.760   1.378 -0.3608  0.5517 -0.4526
  100MOL    H1645754   0.363   5.978   0.766 -2.3625  0.0302  0.0905
  100MOL    H1745755   0.400   5.834   0.870 -0.3207 -0.1196  1.0116
  100MOL    H1845756   0.166   5.951   0.895  0.6888 -0.7013 -1.9214
  100MOL    H1945757   0.241   6.065   0.999 -4.1801 -0.6679 -0.6505
  100MOL    H2045758   0.119   5.685   1.157  1.3330  0.6989 -0.6306
  100MOL    H2145759   0.096   5.490   1.318  3.1474 -1.7770 -0.0034
  100MOL    H2245760   0.424   5.645   1.551  1.9752  0.7431 -0.7621
  100MOL    H2345761   0.440   5.828   1.394  1.7520 -1.3324 -2.7898
  100MOL    H2445762   0.450   6.098   0.952  1.3742  0.4618  0.3180
  100MOL    O2545763   0.129   5.243   1.626  0.0549  0.2708 -0.4681
  100MOL    C2645764   0.065   5.284   1.744 -0.0542 -0.2150 -0.6578
  100MOL    C2745765   8.203   5.219   1.746 -0.3849  0.4280  0.1733
  100MOL    O2845766   8.216   5.078   1.783  0.9282 -0.0687  0.1683
  100MOL    C2945767   8.225   5.036   1.912  0.7805  0.6792  0.6591
  100MOL    O3045768   8.219   5.106   2.014 -0.5375  0.2041 -0.5945
  100MOL    C3145769   8.251   4.883   1.909 -0.0255 -0.1132  0.5838
  100MOL    C3245770   0.004   4.815   2.026 -0.2125 -0.3074  0.9660
  100MOL    C3345771   0.051   4.684   2.023 -0.1525 -0.3641  0.5856
  100MOL    C3445772   0.050   4.609   1.905  0.2460  0.3743 -0.4542
  100MOL    C3545773   0.083   4.460   1.900  0.1499 -0.2677  0.1966
  100MOL    O3645774   0.050   4.387   1.810 -0.3226 -0.2464  0.3504
  100MOL    O3745775   0.172   4.441   1.995 -0.2944 -0.0098 -0.3256
  100MOL    C3845776   0.001   4.669   1.787  0.3952 -0.1222 -0.3228
  100MOL    C3945777   8.242   4.806   1.789  0.1629  0.7992  0.3261
  100MOL    H4045778   0.129   5.260   1.829  0.3763 -0.8083 -1.1432
  100MOL    H4145779   0.047   5.391   1.744  0.9428 -0.0419 -2.4949
  100MOL    H4245780   8.154   5.223   1.649  0.7077  0.0995 -0.3953
  100MOL    H4345781   8.145   5.265   1.826  1.5678 -1.1424  2.5800
  100MOL    H4445782   0.013   4.865   2.122  1.9351  2.9839 -0.8699
  100MOL    H4545783   0.069   4.650   2.124  4.3526  1.6253  0.5908
  100MOL    H4645784   8.267   4.605   1.701  0.8125 -0.5680 -0.0394
  100MOL    H4745785   8.205   4.848   1.696 -1.5838  0.2016  0.7228
  100MOL    O4845786   0.252   4.313   1.983  0.3438  0.1165 -0.1645
  100MOL    C4945787   0.383   4.339   1.936  0.1231 -0.6996  0.1826
  100MOL    C5045788   0.464   4.214   1.916 -0.3805 -0.1925 -0.4020
  100MOL    O5145789   0.438   4.165   1.789  0.1944 -0.3717  0.3925
  100MOL    C5245790   0.475   4.039   1.762  0.2939  0.6851 -0.1566
  100MOL    O5345791   0.551   3.977   1.838 -0.4100  0.0199  0.0489
  100MOL    C5445792   0.416   3.977   1.639  0.4679 -0.4903 -0.1882
  100MOL    C5545793   0.440   3.838   1.608 -0.0695 -0.4707 -0.6083
  100MOL    C5645794   0.359   3.772   1.511  0.0785  0.2562 -0.2630
  100MOL    C5745795   0.263   3.843   1.437 -0.1107  0.3950 -0.0093
  100MOL    C5845796   0.191   3.776   1.326 -0.5601 -0.2739 -0.3323
  100MOL    O5945797   0.197   3.655   1.311  0.1043 -0.0134  0.3088
  100MOL    O6045798   0.132   3.863   1.239  0.3299 -0.0506  0.0232
  100MOL    C6145799   0.239   3.981   1.469 -0.4114 -0.0052 -0.5514
  100MOL    C6245800   0.315   4.046   1.568 -0.1449 -0.2167 -0.2867
  100MOL    H6345801   0.375   4.412   1.856  1.1730  2.3087  2.7071
  100MOL    H6445802   0.418   4.404   2.017 -0.1647 -2.1847  1.5246
  100MOL    H6545803   0.438   4.138   1.989 -2.4146  1.0619  0.2395
  100MOL    H6645804   0.572   4.226   1.925 -0.5910  2.4972 -0.8504
  100MOL    H6745805   0.495   3.776   1.678 -1.3424 -0.1911  0.6609
  100MOL    H6845806   0.370   3.667   1.488  0.9114 -0.2673  2.4069
  100MOL    H6945807   0.155   4.030   1.421 -1.4378 -1.7480 -0.5615
  100MOL    H7045808   0.298   4.151   1.586  0.9923  0.1281 -1.1566
  100MOL    O7145809   0.014   3.806   1.158  0.1127  0.5839  0.3534
  100MOL    C7245810   8.169   3.862   1.203  0.1109 -0.4234 -0.3671
  100MOL    C7345811   8.056   3.864   1.104 -0.2057 -0.1644 -0.8558
  100MOL    O7445812   8.072   3.975   1.012  0.0184 -0.4466  0.1195
  100MOL    C7545813   8.099   3.954   0.878  0.5040 -0.1225 -0.2720
  100MOL    O7645814   8.132   3.839   0.833  0.1623 -0.3169 -0.4635
  100MOL    C7745815   8.090   4.078   0.793 -0.0202  0.2091  0.0301
  100MOL    C7845816   8.110   4.205   0.851  0.2736 -0.5894  0.5664
  100MOL    C7945817   8.096   4.317   0.765 -0.3195 -0.7072 -0.6712
  100MOL    C8045818   8.057   4.303   0.631  0.7482 -0.0474  0.2256
  100MOL    C8145819   8.039   4.427   0.548 -0.5037  0.1092  0.2136
  100MOL    O8245820   7.999   4.428   0.430 -0.0607 -0.4320 -0.5384
  100MOL    O8345821   8.073   4.539   0.618 -0.5163  0.8123 -0.0290
  100MOL    C8445822   8.048   4.174   0.581  0.3246  0.3280  0.8481
  100MOL    C8545823   8.068   4.059   0.661  0.1350 -0.4425  0.6106
  100MOL    H8645824   8.134   3.797   1.283  2.0105 -0.9558  0.0506
  100MOL    H8745825   8.193   3.961   1.242  3.3909 -1.6446  0.8872
  100MOL    H8845826   7.975   3.893   1.171  0.5693 -1.3296  0.6157
  100MOL    H8945827   8.028   3.766   1.064 -1.0646 -0.2271 -0.1183
  100MOL    H9045828   8.133   4.227   0.955  3.0599 -1.4170  0.1714
  100MOL    H9145829   8.115   4.415   0.806  0.6129 -0.3155 -2.0229
  100MOL    H9245830   8.016   4.159   0.479  0.5591 -0.1738  0.8442
  100MOL    H9345831   8.061   3.959   0.621  0.8879 -0.7091  1.1358
  100MOL    O9445832   8.061   4.665   0.538 -0.6915  0.0595  0.1696
  100MOL    C9545833   7.928   4.719   0.557 -0.2963  0.1001  0.1472
  100MOL    C9645834   7.866   4.781   0.430  0.1635 -0.2836 -0.3240
  100MOL    O9745835   7.814   4.682   0.347  0.0728  0.2706 -0.1081
  100MOL    C9845836   7.862   4.661   0.223  0.6294  0.5973  0.1521
  100MOL    O9945837   7.952   4.728   0.169  0.3764 -0.1634  0.0334
  100MOL   C10045838   7.776   4.571   0.143  0.2300 -0.2899  0.0493
  100MOL   C10145839   7.807   4.560   0.004  0.4774  0.2718 -0.2189
  100MOL   C10245840   7.727   4.477   8.201 -0.2960 -0.2839 -0.1922
  100MOL   C10345841   7.619   4.400   8.249 -0.2760  0.1311  0.2522
  100MOL   C10445842   7.539   4.301   8.157  0.3725 -0.1013 -0.2311
  100MOL   O10545843   7.467   4.218   8.208  0.0142  0.2508  0.5096
  100MOL   O10645844   7.566   4.315   8.021 -0.4495 -0.0328 -0.2336
  100MOL   C10745845   7.589   4.413   0.115  0.2143 -0.3445  0.7331
  100MOL   C10845846   7.660   4.504   0.197 -0.7282 -0.2361 -0.6291
  100MOL   H10945847   7.865   4.638   0.594 -0.1665  0.4683  1.1818
  100MOL   H11045848   7.926   4.793   0.637 -0.5769 -1.3454  1.5172
  100MOL   H11145849   7.941   4.838   0.375  1.0731 -0.3005  0.8926
  100MOL   H11245850   7.780   4.841   0.460  1.0235  1.5762 -1.4846
  100MOL   H11345851   7.892   4.613   8.239 -0.5060  0.9301 -1.4838
  100MOL   H11445852   7.765   4.463   8.101  3.9825  0.4590  1.1929
  100MOL   H11545853   7.509   4.354   0.157  1.1883 -1.1966  1.4015
  100MOL   H11645854   7.643   4.498   0.303  1.0257  0.6510 -0.2828
  100MOL   O11745855   7.462   4.258   7.928 -0.0378 -0.8476 -0.2019
  100MOL   C11845856   7.379   4.361   7.871 -0.0101 -0.1986  0.0877
  100MOL   C11945857   7.253   4.280   7.835 -0.0127 -0.1342 -0.5100
  100MOL   O12045858   7.182   4.261   7.951  0.7331  0.3138 -0.5978
  100MOL   C12145859   7.123   4.144   7.974 -0.0734 -0.2274 -0.3707
  100MOL   O12245860   7.115   4.054   7.893 -0.0516  0.0300 -0.0780
  100MOL   C12345861   7.074   4.132   8.117 -0.5624 -0.2790 -0.1586
  100MOL   C12445862   7.127   4.207   8.225  0.4395  0.1952 -0.0723
  100MOL   C12545863   7.083   4.177   0.084  0.3638 -0.3474 -0.4454
  100MOL   C12645864   6.993   4.074   0.111  0.6996  0.5094  0.6327
  100MOL   C12745865   6.968   4.029   0.244 -0.6149 -0.0642  0.0596
  100MOL   O12845866   6.899   3.933   0.270  0.1801 -0.2220 -0.4574
  100MOL   O12945867   7.023   4.107   0.345  0.4947  0.4464  0.1818
  100MOL   C13045868   6.932   4.003   0.003 -0.2298 -0.4462  0.1199
  100MOL   C13145869   6.982   4.034   8.148 -0.1890  0.2026 -0.5360
  100MOL   H13245870   7.351   4.423   7.956  0.8719 -1.3766  1.2647
  100MOL   H13345871   7.413   4.426   7.790  0.0137 -0.8440 -0.4242
  100MOL   H13445872   7.277   4.190   7.779  2.3908  0.3370 -0.2822
  100MOL   H13545873   7.194   4.338   7.764 -0.3797 -4.7992 -4.2388
  100MOL   H13645874   7.195   4.290   8.209  1.5319 -0.4252  1.2322
  100MOL   H13745875   7.129   4.231   0.165  1.1819 -0.0664 -1.0851
  100MOL   H13845876   6.869   3.916   0.015 -0.7206 -0.2147 -0.7813
  100MOL   H13945877   6.950   3.972   8.065 -2.6357 -2.4362  2.2681
  100MOL   O14045878   6.998   4.061   0.486 -0.1670 -0.6803  0.4059
  100MOL   C14145879   6.870   4.114   0.528 -0.1336  0.3135 -0.2376
  100MOL   C14245880   6.865   4.263   0.554 -0.0109  0.6719 -0.7250
  100MOL   O14345881   6.730   4.293   0.580  0.2419  0.4943 -0.3245
  100MOL   C14445882   6.708   4.413   0.637 -0.3021  0.4150  0.1715
  100MOL   O14545883   6.788   4.503   0.659  0.2867  0.2833 -0.3566
  100MOL   C14645884   6.569   4.430   0.688 -0.3556 -0.3698 -0.5929
  100MOL   C14745885   6.470   4.326   0.689  0.4864  0.0837 -0.2376
  100MOL   C14845886   6.343   4.354   0.743 -0.5108  0.1460 -0.0166
  100MOL   C14945887   6.316   4.481   0.806  0.3585  0.6235 -0.2107
  100MOL   C15045888   6.190   4.501   0.884  0.4782 -0.4065  0.0594
  100MOL   O15145889   6.158   4.611   0.931 -0.0298  0.2535 -0.0986
  100MOL   O15245890   6.120   4.388   0.894 -0.2525 -0.1350  0.1611
  100MOL   C15345891   6.404   4.587   0.785  0.5214 -0.1756 -0.4285
  100MOL   C15445892   6.531   4.554   0.729  0.2480  0.2115  1.4223
  100MOL   H15545893   6.781   4.088   0.471 -0.3333  0.7814 -0.1427
  100MOL   H15645894   6.858   4.057   0.620 -2.3848  0.0003 -0.6989
  100MOL   H15745895   6.893   4.324   0.468 -0.4210 -0.9506 -2.0479
  100MOL   H15845896   6.919   4.287   0.645 -1.2204  0.5030  0.0490
  100MOL   H15945897   6.471   4.232   0.636 -2.7149 -0.6811  0.9093
  100MOL   H16045898   6.276   4.269   0.748 -2.5210  1.6749 -0.2534
  100MOL   H16145899   6.394   4.688   0.823 -1.4410 -0.1275 -1.0395
  100MOL   H16245900   6.599   4.638   0.730  1.1495 -0.4722 -0.4774
  100MOL   O16345901   5.990   4.403   0.966 -0.1576  0.0909 -0.4982
  100MOL   C16445902   5.887   4.364   0.874 -0.4688  0.0734 -0.2993
  100MOL   C16545903   5.749   4.384   0.938 -0.2717 -0.7165 -0.8288
  100MOL   O16645904   5.739   4.518   0.982 -0.6641  0.1732  0.2963
  100MOL   C16745905   5.727   4.552   1.110  0.0080  0.0264  0.1139
  100MOL   O16845906   5.717   4.464   1.199 -0.3040 -0.7125 -0.4688
  100MOL   C16945907   5.729   4.694   1.145  0.4142  0.5444  0.5365
  100MOL   C17045908   5.751   4.736   1.280  0.1742  0.3835  0.2007
  100MOL   C17145909   5.722   4.864   1.323 -0.5352 -0.7811 -0.3144
  100MOL   C17245910   5.680   4.962   1.239  0.4785 -0.2368  0.1956
  100MOL   C17345911   5.651   5.096   1.292 -0.5413 -0.0467 -0.2490
  100MOL   O17445912   5.671   5.131   1.407  0.3013 -0.2091  0.0020
  100MOL   O17545913   5.584   5.172   1.200 -0.1949 -0.2125 -0.4077
  100MOL   C17645914   5.654   4.924   1.106  0.0158  0.7402 -0.0120
  100MOL   C17745915   5.687   4.797   1.055  0.6954 -0.4550 -0.6725
  100MOL   H17845916   5.896   4.418   0.780 -4.1083  1.2877 -0.0503
  100MOL   H17945917   5.897   4.259   0.846  0.1527 -0.0175  0.2580
  100MOL   H18045918   5.737   4.318   1.024  0.6798  2.3070  1.7469
  100MOL   H18145919   5.670   4.364   0.866 -3.3324 -0.9457  2.4240
  100MOL   H18245920   5.793   4.668   1.354  0.8765  2.6032  1.8847
  100MOL   H18345921   5.743   4.885   1.427  1.0835  0.9181 -0.9502
  100MOL   H18445922   5.600   4.990   1.040 -1.9483 -1.4015 -0.6393
  100MOL   H18545923   5.659   4.769   0.954  0.7137  0.0922 -0.8315
  100MOL   O18645924   5.577   5.315   1.238 -0.6238  0.4998 -0.3125
  100MOL   C18745925   5.442   5.358   1.241 -0.5346  0.5861  0.0169
  100MOL   C18845926   5.356   5.270   1.338  0.5851  0.2940 -0.7113
  100MOL   O18945927   5.403   5.274   1.469 -0.5035  0.0476 -0.4369
  100MOL   C19045928   5.349   5.356   1.556 -0.3955 -0.1253 -0.4192
  100MOL   O19145929   5.254   5.436   1.530  0.8308 -0.7287 -0.2255
  100MOL   C19245930   5.407   5.328   1.696  1.0705 -0.3621 -0.3279
  100MOL   C19345931   5.358   5.388   1.815  0.6106 -0.4743  0.4686
  100MOL   C19445932   5.416   5.367   1.947  0.9502 -0.1445 -0.5766
  100MOL   C19545933   5.524   5.279   1.954 -0.5744  0.2079  1.1270
  100MOL   C19645934   5.584   5.245   2.087 -0.7440 -0.3163 -0.6495
  100MOL   O19745935   5.536   5.275   2.197 -0.2906  0.3611 -0.2239
  100MOL   O19845936   5.703   5.183   2.073  0.4091  0.3968 -0.4528
  100MOL   C19945937   5.576   5.216   1.835  0.0081 -0.2170  0.5329
  100MOL   C20045938   5.523   5.248   1.713 -0.1899 -0.3004  0.6940
  100MOL   H20145939   5.438   5.464   1.266  1.6036  1.1054 -1.7531
  100MOL   H20245940   5.402   5.350   1.140 -2.8712  2.0747  0.7884
  100MOL   H20345941   5.363   5.165   1.308 -1.3218 -0.4029  1.1028
  100MOL   H20445942   5.247   5.280   1.337  0.2697 -2.7178 -0.8162
  100MOL   H20545943   5.287   5.468   1.797  1.3584  0.0345 -0.2285
  100MOL   H20645944   5.382   5.407   2.041 -0.2353  0.8518 -1.4131
  100MOL   H20745945   5.651   5.139   1.840  0.9335  0.6329 -0.1495
  100MOL   H20845946   5.565   5.195   1.628  0.6087  2.5910 -0.7693
  100MOL   O20945947   5.779   5.149   2.200 -0.0040 -0.3787  0.0199
  100MOL   C21045948   5.873   5.253   2.229  0.2220 -0.7151  0.1719
  100MOL   C21145949   5.964   5.218   2.343  0.0260 -0.7664  0.4811
  100MOL   O21245950   5.963   5.304   2.450  0.1561  0.2662  0.6025
  100MOL   C21345951   5.879   5.284   2.553  0.2817  0.1534 -0.4944
  100MOL   O21445952   5.796   5.194   2.560 -0.3827 -0.1322  0.3747
  100MOL   C21545953   5.922   5.372   2.672 -0.1117 -0.0911  0.6468
  100MOL   C21645954   5.845   5.379   2.792 -0.2836  0.0898 -0.1146
  100MOL   C21745955   5.892   5.450   2.901 -0.2713  0.2456 -0.2823
  100MOL   C21845956   6.024   5.512   2.894 -0.2196 -0.1634 -0.2464
  100MOL   C21945957   6.084   5.584   3.007 -0.0458 -0.2960 -0.9954
  100MOL   O22045958   6.179   5.663   2.996  0.1990 -0.1061  0.4959
  100MOL   O22145959   6.023   5.556   3.124 -0.1425 -0.1935  0.5925
  100MOL   C22245960   6.098   5.498   2.775 -0.6525  0.0548  0.3459
  100MOL   C22345961   6.053   5.429   2.663  0.9037  0.2502  0.1927
  100MOL   H22445962   5.938   5.257   2.142  3.1870  0.4940  2.3135
  100MOL   H22545963   5.831   5.352   2.244 -0.8456 -0.8846 -1.6671
  100MOL   H22645964   6.066   5.216   2.304  0.0724  0.1734  0.5593
  100MOL   H22745965   5.939   5.121   2.385  2.3983 -1.3926  0.5397
  100MOL   H22845966   5.753   5.326   2.814  0.4919 -1.4125 -0.4069
  100MOL   H22945967   5.829   5.453   2.989  0.4519 -0.3669  0.2597
  100MOL   H23045968   6.202   5.528   2.771 -1.0257  1.2976 -0.2303
  100MOL   H23145969   6.119   5.417   2.578  1.5277  2.0303  0.3929
  100MOL   O23245970   6.065   5.639   3.241  0.3644 -0.1316 -0.5182
  100MOL   C23345971   6.165   5.558   3.311  0.4013 -0.2106  0.4682
  100MOL   C23445972   6.174   5.602   3.460  0.2159  0.5467  0.3204
  100MOL   O23545973   6.102   5.512   3.540 -0.1825  0.6905  0.0492
  100MOL   C23645974   6.101   5.547   3.667 -0.9811  0.3652 -0.0054
  100MOL   O23745975   6.145   5.650   3.716  0.1614 -0.0351 -0.1241
  100MOL   C23845976   6.030   5.441   3.740  0.9395 -0.4571 -0.4799
  100MOL   C23945977   6.010   5.443   3.878 -0.4565 -0.7828  0.2530
  100MOL   C24045978   5.954   5.337   3.950  0.1945  0.0581 -0.1487
  100MOL   C24145979   5.909   5.221   3.884  0.1541  0.1263 -0.6082
  100MOL   C24245980   5.852   5.098   3.961  0.5005 -0.2413  0.8179
  100MOL   O24345981   5.761   5.025   3.915 -0.0625  0.4065  0.3370
  100MOL   O24445982   5.914   5.071   4.072 -0.1522 -0.2847 -0.0695
  100MOL   C24545983   5.916   5.220   3.745  0.6587 -0.6357  0.6158
  100MOL   C24645984   5.974   5.330   3.681  0.2926 -0.6229  0.3924
  100MOL   H24745985   6.156   5.449   3.309  0.5663 -0.2219  0.2387
  100MOL   H24845986   6.254   5.585   3.253  0.8553  0.8399  1.6308
  100MOL   H24945987   6.129   5.700   3.469 -2.3344 -0.6295  0.9986
  100MOL   H25045988   6.277   5.596   3.493  0.4112  0.1296 -0.3577
  100MOL   H25145989   6.050   5.524   3.936  1.3197 -0.6951 -1.0427
  100MOL   H25245990   5.939   5.344   4.057  1.6900  0.7817  0.0383
  100MOL   H25345991   5.879   5.138   3.685 -0.7502  0.1127  0.4316
  100MOL   H25445992   5.980   5.312   3.575  1.6488 -3.1358  0.8416
  100MOL   O25545993   5.855   4.957   4.149  0.0626 -0.2914  0.3544
  100MOL   C25645994   5.819   5.004   4.285  0.6751 -0.3940 -0.5137
  100MOL   C25745995   5.759   4.888   4.372 -0.0615 -0.0585  0.1249
  100MOL   O25845996   5.618   4.879   4.352 -0.4479 -0.0140 -0.5306
  100MOL   C25945997   5.542   4.819   4.449  0.3224  0.1787  0.2727
  100MOL   O26045998   5.582   4.760   4.551  0.0130  0.0772  0.6948
  100MOL   C26145999   5.402   4.833   4.415  0.1279 -0.5115  0.3503
  100MOL   C26246000   5.312   4.769   4.504  0.5914 -0.2460 -0.4103
  100MOL   C26346001   5.172   4.765   4.476  0.1262 -0.0077  0.4388
  100MOL   C26446002   5.119   4.835   4.362 -0.0681  0.1008 -0.1839
  100MOL   C26546003   4.967   4.839   4.335 -0.6958  0.7505  0.1143
  100MOL   O26646004   4.879   4.788   4.412  0.6590 -0.5422 -0.5544
  100MOL   O26746005   4.937   4.902   4.216 -0.3241  0.2220  0.1768
  100MOL   C26846006   5.213   4.891   4.268  0.1137 -0.4357 -0.0514
  100MOL   C26946007   5.351   4.892   4.291 -0.5545  0.2552  0.1768
  100MOL   H27046008   5.914   5.047   4.319 -0.5698  1.7447  0.3721
  100MOL   H27146009   5.753   5.090   4.294  0.6473 -0.5809  1.4333
  100MOL   H27246010   5.786   4.899   4.477  1.3158  1.5455 -0.3668
  100MOL   H27346011   5.807   4.797   4.337  0.3826  0.2541 -0.0855
  100MOL   H27446012   5.347   4.727   4.597 -1.3730 -1.7163 -0.3217
  100MOL   H27546013   5.108   4.711   4.543 -0.0985  0.7053  0.8003
  100MOL   H27646014   5.180   4.940   4.178 -0.5926 -1.3810 -0.3192
  100MOL   H27746015   5.411   4.929   4.209 -1.4411 -2.1940 -1.6472
  100MOL   O27846016   4.789   4.921   4.185 -0.1772 -0.1382  0.2897
  100MOL   C27946017   4.767   5.053   4.226  0.5541  0.0201  0.0032
  100MOL   C28046018   4.624   5.099   4.195  0.0016 -0.5702 -0.0458
  100MOL   O28146019   4.589   5.194   4.293  0.7035 -0.7447  0.0634
  100MOL   C28246020   4.457   5.214   4.316 -0.3751  0.2718  0.8416
  100MOL   O28346021   4.372   5.143   4.271  0.1738 -0.3672 -0.3461
  100MOL   C28446022   4.436   5.325   4.416  0.2705  0.2434 -0.3279
  100MOL   C28546023   4.515   5.444   4.419 -0.9141 -0.0432 -0.6642
  100MOL   C28646024   4.484   5.556   4.503  0.0618 -0.1868 -0.1933
  100MOL   C28746025   4.364   5.549   4.581 -0.4930  0.3364 -0.4600
  100MOL   C28846026   4.320   5.666   4.666  0.1893 -0.2801 -0.7263
  100MOL   O28946027   4.389   5.774   4.672 -0.1529  0.3291  1.3113
  100MOL   O29046028   4.203   5.642   4.721  0.1789  0.4552 -0.1041
  100MOL   C29146029   4.293   5.431   4.586  0.5717  0.1100 -0.4335
  100MOL   C29246030   4.323   5.324   4.498  0.3188  0.3238 -0.7664
  100MOL   H29346031   4.786   5.065   4.333 -0.4716  1.5023  0.0415
  100MOL   H29446032   4.849   5.112   4.185 -0.3923 -0.0011 -1.9915
  100MOL   H29546033   4.558   5.013   4.182 -2.2463  1.0020  0.7272
  100MOL   H29646034   4.619   5.153   4.101 -0.2067 -0.8977 -0.2259
  100MOL   H29746035   4.609   5.453   4.367  0.1885  0.5000  1.4023
  100MOL   H29846036   4.553   5.639   4.499  0.3985 -0.4315  0.4655
  100MOL   H29946037   4.211   5.416   4.655  1.4687 -1.2030  0.3818
  100MOL   H30046038   4.265   5.233   4.506  0.5867  0.1498 -0.7992
  100MOL   O30146039   4.133   5.759   4.786 -0.4292  0.2073 -0.1297
  100MOL   C30246040   4.071   5.845   4.694  0.0082  0.0444  0.1238
  100MOL   C30346041   3.932   5.795   4.648  0.1423 -0.4585  0.2788
  100MOL   O30446042   3.927   5.668   4.577 -0.0057 -0.8923 -0.1574
  100MOL   C30546043   3.993   5.637   4.469 -0.4661  0.4991 -0.5300
  100MOL   O30646044   4.058   5.720   4.404 -0.0378 -0.3577  0.2501
  100MOL   C30746045   3.985   5.496   4.444  0.6427 -0.1578  0.1320
  100MOL   C30846046   4.066   5.441   4.342  0.6954 -0.2933  0.1214
  100MOL   C30946047   4.043   5.310   4.294 -0.0345  0.2938 -0.4096
  100MOL   C31046048   3.940   5.226   4.351  0.0366 -0.3992  0.0192
  100MOL   C31146049   3.926   5.087   4.295 -0.4393  0.4444  0.3343
  100MOL   O31246050   4.012   5.028   4.223  0.0199 -0.3225 -0.2728
  100MOL   O31346051   3.813   5.028   4.346 -0.1211 -0.0202  0.0429
  100MOL   C31446052   3.860   5.277   4.454 -0.3303 -0.1335 -0.4013
  100MOL   C31546053   3.891   5.404   4.508 -0.4313 -0.9519 -0.4441
  100MOL   H31646054   4.052   5.940   4.745  3.1724  0.2620  0.9527
  100MOL   H31746055   4.141   5.853   4.611 -0.3566  0.9877 -0.1090
  100MOL   H31846056   3.875   5.863   4.586  0.5736 -0.3485  0.0023
  100MOL   H31946057   3.871   5.779   4.736  1.4771 -2.9271  0.8136
  100MOL   H32046058   4.144   5.499   4.295  0.6884  0.4274  0.9747
  100MOL   H32146059   4.114   5.265   4.227 -0.9893 -1.6354 -0.1449
  100MOL   H32246060   3.779   5.224   4.503 -0.1351 -1.2569 -1.2769
  100MOL   H32346061   3.822   5.432   4.587 -0.2515 -1.3542 -0.1425
  100MOL   O32446062   3.800   4.883   4.307  0.9717  0.0681  0.2105
  100MOL   C32546063   3.723   4.878   4.192  0.2167  0.2665  0.1613
  100MOL   C32646064   3.567   4.889   4.210 -0.2971 -0.2622  0.4686
  100MOL   O32746065   3.530   5.012   4.272  0.9225 -0.3752 -0.3782
  100MOL   C32846066   3.424   5.011   4.358 -0.4015  0.0624  0.0890
  100MOL   O32946067   3.342   4.917   4.381  0.4839  0.4391  0.1890
  100MOL   C33046068   3.399   5.144   4.423 -0.3214 -0.5238 -0.0146
  100MOL   C33146069   3.290   5.158   4.505 -0.3544  0.2750 -0.5602
  100MOL   C33246070   3.268   5.278   4.575 -0.0028 -1.0673 -0.0236
  100MOL   C33346071   3.348   5.393   4.550  0.4762  0.2294 -0.2390
  100MOL   C33446072   3.333   5.513   4.634  0.9254 -0.0240  0.4294
  100MOL   O33546073   3.292   5.514   4.753 -0.2269 -0.1589  0.6348
  100MOL   O33646074   3.381   5.618   4.569 -0.4219  0.1142  0.1439
  100MOL   C33746075   3.447   5.385   4.450 -0.2574 -0.0332 -0.1478
  100MOL   C33846076   3.472   5.261   4.389 -0.3658  0.0735  0.0690
  100MOL   H33946077   3.755   4.948   4.115 -1.4250  0.0622 -0.7375
  100MOL   H34046078   3.735   4.780   4.146 -0.5087 -0.7377  2.0689
  100MOL   H34146079   3.537   4.819   4.288 -3.6225  2.1603  1.4877
  100MOL   H34246080   3.520   4.882   4.112 -0.4347  1.1045  0.4176
  100MOL   H34346081   3.230   5.072   4.534 -2.2568  1.0076 -2.2089
  100MOL   H34446082   3.191   5.283   4.651 -0.2886  1.1045 -0.4268
  100MOL   H34546083   3.507   5.471   4.424  1.1240 -1.5695 -2.1927
  100MOL   H34646084   3.557   5.247   4.324 -1.4768 -1.6602 -1.0520
  100MOL   O34746085   3.432   5.731   4.655 -0.3789  0.4420  0.2898
  100MOL   C34846086   3.333   5.828   4.682 -0.3447 -0.7198 -0.4376
  100MOL   C34946087   3.413   5.953   4.717  0.2975  0.6304  0.2424
  100MOL   O35046088   3.454   5.965   4.856  0.7412  0.2597 -0.1762
  100MOL   C35146089   3.589   5.948   4.898  0.4633  0.1032  0.3385
  100MOL   O35246090   3.686   5.922   4.819 -0.3642 -0.0471 -0.0060
  100MOL   C35346091   3.609   5.977   5.042  0.5922 -0.3995 -0.0554
  100MOL   C35446092   3.736   5.995   5.095 -0.3088  0.1223  0.0315
  100MOL   C35546093   3.748   6.031   5.233  0.4198 -0.3213 -0.8803
  100MOL   C35646094   3.634   6.044   5.316  0.1984 -0.3952  0.3105
  100MOL   C35746095   3.645   6.068   5.459  0.1404 -0.3748  0.0781
  100MOL   O35846096   3.747   6.045   5.534  0.1159  0.0974 -0.3192
  100MOL   O35946097   3.533   6.128   5.510  0.6317  0.0344  0.3391
  100MOL   C36046098   3.505   6.021   5.261  0.3260  0.1869 -0.5267
  100MOL   C36146099   3.494   5.989   5.125 -0.1160 -0.6660  0.1249
  100MOL   H36246100   3.268   5.852   4.598 -3.6786 -0.9064  2.0082
  100MOL   H36346101   3.276   5.806   4.772  0.1994  0.8789  0.3341
  100MOL   H36446102   3.366   6.042   4.674  3.1479  0.9934 -2.3197
  100MOL   H36546103   3.500   5.947   4.651 -1.9670  0.9340 -2.9378
  100MOL   H36646104   3.824   5.984   5.033 -2.1381  1.9712 -3.0376
  100MOL   H36746105   3.846   6.050   5.274 -0.5188  2.2672  0.2833
  100MOL   H36846106   3.411   6.023   5.316 -0.6449 -1.5532 -2.0667
  100MOL   H36946107   3.399   5.973   5.076 -0.1611  1.1886 -0.4313
  100MOL   O37046108   3.535   6.156   5.655  0.2762 -0.7059 -0.1308
  100MOL   C37146109   3.421   6.089   5.703 -0.5973  0.0274  0.3836
  100MOL   C37246110   3.395   6.120   5.852  0.1172 -0.7586 -0.4055
  100MOL   O37346111   3.516   6.076   5.918  0.3182 -0.3845  0.3039
  100MOL   C37446112   3.506   5.980   6.010 -0.2010 -0.4275  0.1120
  100MOL   O37546113   3.397   5.957   6.070 -0.3864  0.2276 -0.0375
  100MOL   C37646114   3.638   5.912   6.024  0.3053  0.7456 -0.1761
  100MOL   C37746115   3.646   5.804   6.108  0.5251 -0.7691 -0.3631
  100MOL   C37846116   3.762   5.731   6.128  0.6087 -0.1436 -0.3973
  100MOL   C37946117   3.886   5.773   6.067  0.5114  0.2037 -0.2282
  100MOL   C38046118   4.013   5.703   6.103 -0.6733 -0.0621 -0.5274
  100MOL   O38146119   4.020   5.606   6.183  0.2644 -0.1535 -0.1425
  100MOL   O38246120   4.119   5.745   6.031 -0.3246 -0.3371 -0.3981
  100MOL   C38346121   3.876   5.890   5.978 -0.1980 -0.3905  0.0429
  100MOL   C38446122   3.758   5.953   5.956 -0.4237 -0.6078 -0.9344
  100MOL   H38546123   3.331   6.113   5.647 -0.6424  0.9814  0.8421
  100MOL   H38646124   3.448   5.984   5.692 -0.2344  0.1960 -0.3845
  100MOL   H38746125   3.303   6.072   5.885 -1.2952  2.1337  0.0407
  100MOL   H38846126   3.376   6.224   5.878 -1.6725 -0.9457 -0.9392
  100MOL   H38946127   3.560   5.773   6.165  1.6793 -0.9593  1.3368
  100MOL   H39046128   3.758   5.648   6.196 -0.1449 -0.4861 -0.8502
  100MOL   H39146129   3.957   5.935   5.923  0.4610 -0.9317  0.5573
  100MOL   H39246130   3.763   6.051   5.910  0.8664  0.5142  1.4534
  100MOL   O39346131   4.252   5.680   6.066 -0.1346  0.1863  0.2893
  100MOL   C39446132   4.314   5.750   6.174  0.0775 -0.4821 -0.1803
  100MOL   C39546133   4.464   5.724   6.182 -0.7505  0.3375  0.5999
  100MOL   O39646134   4.527   5.766   6.065  0.6397 -0.2062 -0.5004
  100MOL   C39746135   4.642   5.701   6.026 -0.4391 -0.6506 -0.0677
  100MOL   O39846136   4.704   5.609   6.085  0.2825 -0.5397 -0.5239
  100MOL   C39946137   4.705   5.766   5.906 -0.6684  0.4979 -0.1070
  100MOL   C40046138   4.815   5.693   5.848  0.4782  0.2075  0.9859
  100MOL   C40146139   4.858   5.729   5.720  0.3058  0.1112 -0.0445
  100MOL   C40246140   4.802   5.843   5.654  0.5220  0.6707  0.1146
  100MOL   C40346141   4.853   5.878   5.527  0.2491  0.7448  0.0538
  100MOL   O40446142   4.917   5.803   5.451 -0.2974  0.5544 -0.2848
  100MOL   O40546143   4.829   6.010   5.500  0.1208 -0.0787 -0.1077
  100MOL   C40646144   4.695   5.912   5.714  0.1791 -0.1400  0.4050
  100MOL   C40746145   4.649   5.874   5.843  0.7322  0.1885 -0.4475
  100MOL   H40846146   4.296   5.858   6.173 -5.1177 -1.2307 -1.4900
  100MOL   H40946147   4.272   5.721   6.271 -0.6423  0.0420 -0.3269
  100MOL   H41046148   4.480   5.619   6.206 -1.4988  0.6655  2.6800
  100MOL   H41146149   4.502   5.775   6.271 -2.0074  0.5823  1.0107
  100MOL   H41246150   4.836   5.597   5.893 -0.0433 -0.6245 -0.5155
  100MOL   H41346151   4.936   5.665   5.681  1.0123  0.8665  0.1080
  100MOL   H41446152   4.642   5.990   5.661  0.9173 -0.6973 -1.1909
  100MOL   H41546153   4.562   5.923   5.883  0.4765  0.6733 -1.6095
  100MOL   O41646154   4.878   6.063   5.360  0.0429 -0.0015 -0.1003
  100MOL   C41746155   4.764   6.092   5.280 -0.3926 -0.0884 -0.1735
  100MOL   C41846156   4.675   5.963   5.246  0.6375 -0.2367 -0.0882
  100MOL   O41946157   4.554   5.955   5.322  0.3858 -0.2491 -0.4020
  100MOL   C42046158   4.422   5.948   5.271  0.3127 -0.3759 -0.1811
  100MOL   O42146159   4.395   5.972   5.152 -0.2244 -0.0231 -0.1308
  100MOL   C42246160   4.325   5.904   5.367 -0.1164  0.5119 -0.7400
  100MOL   C42346161   4.355   5.866   5.495  0.2778  0.3353 -1.0006
  100MOL   C42446162   4.253   5.817   5.582  1.0832 -0.8402 -0.6316
  100MOL   C42546163   4.121   5.806   5.530 -0.1113 -0.1267  0.2325
  100MOL   C42646164   4.015   5.758   5.619 -0.1290  0.1933 -0.0208
  100MOL   O42746165   4.032   5.735   5.735 -0.1260  0.1852 -0.0404
  100MOL   O42846166   3.897   5.736   5.558  0.3741  0.3871  0.4601
  100MOL   C42946167   4.096   5.818   5.394  0.1183 -0.1762 -0.2744
  100MOL   C43046168   4.193   5.871   5.314  0.1406  0.2992 -0.5690
  100MOL   H43146169   4.695   6.171   5.311  0.2214  0.1880  0.4917
  100MOL   H43246170   4.810   6.126   5.188  0.5297 -0.0171  0.3136
  100MOL   H43346171   4.728   5.868   5.254 -2.5464 -1.9537  1.3834
  100MOL   H43446172   4.652   5.958   5.140  0.8750 -0.6027 -0.1214
  100MOL   H43546173   4.453   5.893   5.531  0.9395 -1.3283 -1.5264
  100MOL   H43646174   4.273   5.788   5.685 -1.3704 -0.7763 -0.1225
  100MOL   H43746175   3.998   5.814   5.350 -1.2804  1.9824  2.4266
  100MOL   H43846176   4.167   5.896   5.212  0.1489 -0.3025 -0.7176
  100MOL   O43946177   3.792   5.670   5.640  0.5157  0.1178 -0.2212
  100MOL   C44046178   3.689   5.756   5.668  0.2226 -0.2749  0.4278
  100MOL   C44146179   3.572   5.676   5.739 -0.0111 -0.2687 -0.4257
  100MOL   O44246180   3.450   5.700   5.667  0.2327  0.4522 -0.3504
  100MOL   C44346181   3.320   5.689   5.722 -0.1167  1.2582  0.7701
  100MOL   O44446182   3.302   5.639   5.835  0.2473  0.5003  0.6045
  100MOL   C44546183   3.206   5.735   5.634 -0.4305 -0.1293  0.1942
  100MOL   C44646184   3.224   5.771   5.499 -0.4393 -0.0876  0.9378
  100MOL   C44746185   3.123   5.820   5.418  0.2062  0.6923 -0.1196
  100MOL   C44846186   2.991   5.824   5.466 -1.0034 -0.2591  0.5260
  100MOL   C44946187   2.871   5.857   5.376 -0.4763 -0.3357 -0.0480
  100MOL   O45046188   2.752   5.842   5.416 -0.1806  0.2954 -0.3429
  100MOL   O45146189   2.906   5.913   5.252 -0.0696 -0.4892  0.0153
  100MOL   C45246190   2.972   5.789   5.607 -0.5763  0.3491 -0.5296
  100MOL   C45346191   3.074   5.739   5.690 -0.0032 -0.1706 -0.4985
  100MOL   H45446192   3.733   5.834   5.729 -1.5665 -0.6166  2.2099
  100MOL   H45546193   3.656   5.782   5.567 -2.2981 -1.4666  0.8927
  100MOL   H45646194   3.561   5.703   5.844  0.7509 -2.6502  0.2989
  100MOL   H45746195   3.599   5.571   5.743 -0.1387 -0.2645  1.3421
  100MOL   H45846196   3.327   5.782   5.467 -0.8797 -0.7903 -0.7650
  100MOL   H45946197   3.131   5.849   5.315 -1.3439  1.0774 -0.1346
  100MOL   H46046198   2.877   5.792   5.658  0.1043  0.6616  0.7493
  100MOL   H46146199   3.063   5.726   5.797 -0.5491  0.2140 -0.5082
  100MOL   H46246200   2.830   5.967   5.238  0.2424  0.3273  1.3863
  101MOL     O146201   6.710   7.218   2.130 -0.0058  0.3765  0.5828
  101MOL     C246202   6.737   7.086   2.155 -0.3800  0.0172  0.0256
  101MOL     C346203   6.873   7.061   2.215 -0.1931  0.3905 -0.0342
  101MOL     O446204   6.960   7.069   2.102 -0.3746  0.4917 -0.0999
  101MOL     C546205   7.089   7.021   2.101  0.4028  0.7251  0.1479
  101MOL     O646206   7.132   6.957   2.192 -0.2635  0.2280 -0.4212
  101MOL     C746207   7.163   7.064   1.980 -0.0606  0.4909 -0.1307
  101MOL     C846208   7.094   7.127   1.875  0.1378  0.2663  0.0077
  101MOL     C946209   7.158   7.154   1.754 -0.2389 -0.2298  0.0865
  101MOL    C1046210   7.298   7.133   1.740  0.1809  0.1453  0.0127
  101MOL    C1146211   7.363   7.192   1.629 -0.5553 -0.1870 -0.2350
  101MOL    O1246212   7.308   7.238   1.525 -0.1950  0.1675 -0.1616
  101MOL    O1346213   7.499   7.182   1.642  0.4116 -0.2340  0.0719
  101MOL    C1446214   7.365   7.076   1.849 -0.2470 -0.1783 -0.3711
  101MOL    C1546215   7.298   7.039   1.965  0.2216  0.0704  0.1994
  101MOL    H1646216   6.661   7.048   2.222  0.2778  3.0679  2.6520
  101MOL    H1746217   6.730   7.040   2.057 -3.1275  0.4434  0.0024
  101MOL    H1846218   6.869   6.961   2.257  1.5631 -0.4172 -1.7152
  101MOL    H1946219   6.894   7.143   2.283 -0.6123  0.7263 -0.3025
  101MOL    H2046220   6.988   7.145   1.866 -0.2017 -1.7407 -0.1345
  101MOL    H2146221   7.098   7.195   1.674 -1.0908 -0.1085  0.7765
  101MOL    H2246222   7.473   7.069   1.850 -0.2839 -0.7251 -0.0697
  101MOL    H2346223   7.344   6.985   2.046 -2.7968 -1.1876  1.1832
  101MOL    H2446224   6.788   7.258   2.093  0.4980 -0.7885  0.3852
  101MOL    O2546225   7.569   7.243   1.526 -0.9538  0.1326  0.5535
  101MOL    C2646226   7.582   7.145   1.426 -0.1532 -0.2147  0.1798
  101MOL    C2746227   7.629   7.212   1.302  0.1201  0.5680 -0.3659
  101MOL    O2846228   7.697   7.120   1.214  0.1146 -0.3353 -0.0274
  101MOL    C2946229   7.824   7.083   1.233  0.1382 -0.5347  0.3690
  101MOL    O3046230   7.887   7.112   1.336  0.8180 -0.0261 -0.0283
  101MOL    C3146231   7.885   7.000   1.121  0.0706  0.6494  0.4543
  101MOL    C3246232   8.020   6.960   1.134 -0.1094  0.0296 -0.6728
  101MOL    C3346233   8.077   6.877   1.035  0.0925 -0.1190  0.3411
  101MOL    C3446234   8.000   6.830   0.926 -0.0551 -0.1361 -0.1553
  101MOL    C3546235   8.052   6.724   0.830 -0.3167 -0.0466 -0.1478
  101MOL    O3646236   7.982   6.680   0.739 -0.6005  0.1620  0.0067
  101MOL    O3746237   8.165   6.669   0.864 -0.3641 -0.2889  0.3712
  101MOL    C3846238   7.868   6.874   0.921 -0.1561  0.3504  0.7751
  101MOL    C3946239   7.810   6.957   1.014 -0.2688  0.1160 -0.1058
  101MOL    H4046240   7.656   7.069   1.450 -0.4685 -0.7717 -0.5918
  101MOL    H4146241   7.490   7.090   1.409 -1.0995  1.1357  0.8138
  101MOL    H4246242   7.701   7.289   1.331  0.9786  0.5425 -2.3292
  101MOL    H4346243   7.541   7.246   1.248  0.3932  0.2565 -1.0221
  101MOL    H4446244   8.071   6.981   1.227  1.6819 -0.3114 -1.5673
  101MOL    H4546245   8.182   6.857   1.021  0.0615 -0.0362 -0.0238
  101MOL    H4646246   7.803   6.843   0.840  3.6463 -1.6204 -1.6799
  101MOL    H4746247   7.712   7.001   1.000 -0.9881 -1.2614  0.4830
  101MOL    O4846248   8.212   6.563   0.769 -0.7703 -0.1199 -0.5661
  101MOL    C4946249   8.183   6.438   0.820 -0.1818  0.0438 -0.2703
  101MOL    C5046250   8.206   6.323   0.719 -0.0706 -0.1034 -0.0108
  101MOL    O5146251   8.151   6.195   0.750  0.4290 -0.2108  0.3996
  101MOL    C5246252   8.188   6.133   0.867 -0.2222 -0.1875 -0.3497
  101MOL    O5346253   8.272   6.172   0.948 -0.0276  0.2376 -0.5180
  101MOL    C5446254   8.117   6.004   0.884 -0.3376 -0.2017  0.5281
  101MOL    C5546255   8.061   5.944   0.766 -0.4108  0.5329  0.6006
  101MOL    C5646256   7.989   5.826   0.776  0.6057 -0.0193 -0.2979
  101MOL    C5746257   7.962   5.769   0.902  0.0881  0.5672  0.5101
  101MOL    C5846258   7.858   5.662   0.922 -0.4658  0.2508 -0.6013
  101MOL    O5946259   7.854   5.591   1.028  0.4052  0.0704  0.7390
  101MOL    O6046260   7.771   5.650   0.821 -0.0677 -0.6976  0.2558
  101MOL    C6146261   8.029   5.826   1.012 -0.5504 -0.1904 -0.1971
  101MOL    C6246262   8.112   5.941   1.008  0.3063  0.5796  0.3499
  101MOL    H6346263   8.236   6.416   0.913  1.6916 -2.5388 -1.8703
  101MOL    H6446264   8.078   6.441   0.849 -0.1788  1.3695 -0.3926
  101MOL    H6546265   0.039   6.316   0.719 -0.0277  0.4137 -1.5954
  101MOL    H6646266   8.171   6.351   0.620 -1.0820 -0.0028  0.3679
  101MOL    H6746267   8.073   6.001   0.675 -1.3444  1.4252  1.0244
  101MOL    H6846268   7.947   5.787   0.684  0.5241  0.2356 -0.3690
  101MOL    H6946269   8.026   5.777   1.108 -2.7966 -0.6552 -0.4715
  101MOL    H7046270   8.162   5.968   1.100  0.6404  0.3406  0.2391
  101MOL    O7146271   7.635   5.605   0.874  0.5240  0.6520 -0.1427
  101MOL    C7246272   7.553   5.722   0.891 -0.3409  0.1403 -0.3330
  101MOL    C7346273   7.413   5.681   0.950 -0.0204 -0.4981 -0.2772
  101MOL    O7446274   7.318   5.669   0.845  0.2140  0.7605 -0.0975
  101MOL    C7546275   7.235   5.769   0.815  0.6869  0.2633  0.4676
  101MOL    O7646276   7.235   5.882   0.868  0.1711  0.6666 -0.0192
  101MOL    C7746277   7.155   5.753   0.688  0.1586 -0.1482 -0.1655
  101MOL    C7846278   7.116   5.622   0.647 -0.3107 -0.4010 -0.2759
  101MOL    C7946279   7.044   5.600   0.531  0.0927 -0.2461  0.5023
  101MOL    C8046280   7.008   5.709   0.445 -0.8167 -0.0033  0.0684
  101MOL    C8146281   6.935   5.680   0.320  0.6698  0.2552 -0.2364
  101MOL    O8246282   6.915   5.564   0.281  0.0116 -0.1364 -0.1297
  101MOL    O8346283   6.889   5.797   0.260  0.2259 -0.0183 -0.3723
  101MOL    C8446284   7.041   5.841   0.494 -0.1642 -0.3661  0.2225
  101MOL    C8546285   7.114   5.863   0.617 -0.7609 -0.3105  0.1034
  101MOL    H8646286   7.601   5.793   0.958 -2.6569  0.5603  0.9388
  101MOL    H8746287   7.552   5.774   0.796 -1.5094  3.2260  1.2954
  101MOL    H8846288   7.382   5.759   1.020 -0.2795 -1.4454  0.6856
  101MOL    H8946289   7.428   5.590   1.009  1.6920  0.0621  0.1912
  101MOL    H9046290   7.154   5.541   0.708  0.1618 -1.2345 -1.6603
  101MOL    H9146291   7.028   5.493   0.519  2.8396 -0.6753  0.4106
  101MOL    H9246292   7.003   5.934   0.454 -2.0774 -2.0207 -1.9653
  101MOL    H9346293   7.136   5.966   0.646  2.0987 -0.6294 -0.7264
  101MOL    O9446294   6.833   5.766   0.127 -0.2090 -0.1130  0.5319
  101MOL    C9546295   6.686   5.745   0.135  0.3642  0.8300  0.2853
  101MOL    C9646296   6.630   5.714   8.274  0.0012 -0.2371 -0.7937
  101MOL    O9746297   6.488   5.716   0.006  0.1107  0.1986  0.3526
  101MOL    C9846298   6.414   5.816   8.254 -0.2026 -0.4516 -0.5861
  101MOL    O9946299   6.466   5.926   8.246  0.3166 -0.7261  0.3556
  101MOL   C10046300   6.270   5.781   8.245  0.0165  0.1011  0.2064
  101MOL   C10146301   6.218   5.654   8.222  0.0694  0.0824  0.7749
  101MOL   C10246302   6.088   5.628   8.197  0.0384 -0.2619  0.2536
  101MOL   C10346303   5.996   5.730   8.210 -0.4901  0.4190 -0.1545
  101MOL   C10446304   5.853   5.689   8.207 -0.8141  0.6563 -0.3360
  101MOL   O10546305   5.818   5.578   8.170  0.3242 -0.0486 -0.0219
  101MOL   O10646306   5.767   5.777   8.252  0.1117  0.4979 -0.2722
  101MOL   C10746307   6.037   5.855   8.244  0.0116  0.4156  0.1168
  101MOL   C10846308   6.176   5.887   8.253  0.6561  0.2473 -0.3074
  101MOL   H10946309   6.662   5.662   0.202 -1.1930 -0.3847 -1.7201
  101MOL   H11046310   6.641   5.836   0.175 -2.1046 -0.8558  1.4821
  101MOL   H11146311   6.658   5.611   8.254  2.2168  0.0765  0.5333
  101MOL   H11246312   6.657   5.780   8.191 -2.1905  0.0870 -1.2689
  101MOL   H11346313   6.288   5.571   8.221 -0.4022 -0.3203  0.6335
  101MOL   H11446314   6.059   5.527   8.170  0.0948 -0.2492  0.1459
  101MOL   H11546315   5.965   5.935   8.250  0.1560  0.7010 -1.8173
  101MOL   H11646316   6.212   5.987   8.270 -1.2128  1.4151 -2.7950
  101MOL   O11746317   5.638   5.719   0.014  0.0103 -0.0754 -0.4028
  101MOL   C11846318   5.647   5.668   0.145  0.1688 -0.6151 -0.5661
  101MOL   C11946319   5.675   5.785   0.241  0.0562 -0.5316  0.4114
  101MOL   O12046320   5.812   5.816   0.249 -0.2442  0.0640  0.8482
  101MOL   C12146321   5.851   5.929   0.302  0.1404  0.5401 -0.0483
  101MOL   O12246322   5.773   6.019   0.337 -0.6502  0.4043  0.3698
  101MOL   C12346323   5.991   5.932   0.323  0.1425 -0.5320  0.4163
  101MOL   C12446324   6.069   5.818   0.360  1.0380 -0.9528  0.0609
  101MOL   C12546325   6.205   5.831   0.375 -0.4891  0.0466 -0.3007
  101MOL   C12646326   6.273   5.954   0.347  0.1375 -0.5266  0.2650
  101MOL   C12746327   6.422   5.957   0.352 -0.1861 -0.0918 -0.1728
  101MOL   O12846328   6.492   5.861   0.370  0.2802 -0.1290  0.1607
  101MOL   O12946329   6.472   6.084   0.332  0.8067 -0.5944 -0.0257
  101MOL   C13046330   6.195   6.069   0.326 -0.7193  0.2137  0.3112
  101MOL   C13146331   6.061   6.056   0.307 -0.1592 -0.1756  0.0250
  101MOL   H13246332   5.552   5.618   0.166  0.9417 -2.1994 -0.7281
  101MOL   H13346333   5.704   5.575   0.148 -0.9480 -1.2767  1.5021
  101MOL   H13446334   5.629   5.779   0.340  1.3652 -1.0907  0.9902
  101MOL   H13546335   5.622   5.865   0.190 -0.3820 -1.9903 -1.5389
  101MOL   H13646336   6.027   5.719   0.364  1.6365 -1.2264 -0.3967
  101MOL   H13746337   6.257   5.739   0.397 -3.0325 -0.9246  1.9281
  101MOL   H13846338   6.227   6.171   0.312 -1.5745  0.3294 -0.8540
  101MOL   H13946339   6.009   6.147   0.279  1.1993  0.0858 -1.7039
  101MOL   O14046340   6.618   6.083   0.296  0.2256 -0.1162  0.4041
  101MOL   C14146341   6.627   6.141   0.171 -0.3393  0.0974  0.6802
  101MOL   C14246342   6.758   6.110   0.107  0.2088  0.1318 -0.3656
  101MOL   O14346343   6.868   6.159   0.180 -0.2039  0.1911 -0.1959
  101MOL   C14446344   6.990   6.124   0.127 -0.7039 -0.2625  1.2398
  101MOL   O14546345   7.006   6.083   0.008 -0.3596 -0.7673 -0.3012
  101MOL   C14646346   7.099   6.136   0.225 -1.3590  0.0363  0.8586
  101MOL   C14746347   7.081   6.183   0.358 -0.1007  1.2732  0.3560
  101MOL   C14846348   7.186   6.187   0.453 -0.8859 -0.1284  0.4540
  101MOL   C14946349   7.320   6.153   0.409 -0.4183 -0.9185 -0.0848
  101MOL   C15046350   7.426   6.138   0.513  0.0902 -0.0909  0.6931
  101MOL   O15146351   7.421   6.204   0.615  0.3095 -0.0059 -0.2824
  101MOL   O15246352   7.514   6.038   0.488 -0.0597  0.4575  0.1040
  101MOL   C15346353   7.344   6.120   0.274  0.4486  0.0423  1.0099
  101MOL   C15446354   7.233   6.105   0.183  0.3607  0.3514 -0.2091
  101MOL   H15546355   6.537   6.106   0.120 -1.2747  0.1386  2.2528
  101MOL   H15646356   6.623   6.248   0.193 -0.0124 -0.1801  2.1058
  101MOL   H15746357   6.761   6.164   0.013  0.5730  0.4687 -0.1591
  101MOL   H15846358   6.756   6.001   0.095  1.2040 -0.0961  1.3024
  101MOL   H15946359   6.981   6.197   0.397  0.1500  1.3591  0.9671
  101MOL   H16046360   7.160   6.199   0.557  1.6212  1.4996  0.9366
  101MOL   H16146361   7.440   6.081   0.246  0.3810 -0.6261  1.6974
  101MOL   H16246362   7.260   6.063   0.087  0.7382  1.9285 -0.7944
  101MOL   O16346363   7.593   5.987   0.606  0.2496  0.3209 -0.4848
  101MOL   C16446364   7.725   6.034   0.600  0.0827 -0.0598  0.2530
  101MOL   C16546365   7.793   5.988   0.470  0.2325 -0.6590  0.9124
  101MOL   O16646366   7.794   6.098   0.379 -0.0057 -0.0917  0.2781
  101MOL   C16746367   7.885   6.199   0.400 -0.5051  0.2606  0.3312
  101MOL   O16846368   7.966   6.201   0.490  1.2909 -0.3336 -0.2233
  101MOL   C16946369   7.862   6.313   0.312  0.2617  0.0867 -0.4308
  101MOL   C17046370   7.922   6.441   0.337  0.4104 -0.3408 -0.5637
  101MOL   C17146371   7.892   6.551   0.257 -0.3371 -0.5094  0.1418
  101MOL   C17246372   7.807   6.544   0.153  1.0349 -0.4715  0.2608
  101MOL   C17346373   7.764   6.669   0.076 -0.5690  0.0309  0.9608
  101MOL   O17446374   7.814   6.783   0.088  0.0252  0.0917 -0.2324
  101MOL   O17546375   7.664   6.648   8.259 -0.2258 -0.3320  0.0549
  101MOL   C17646376   7.739   6.419   0.130 -0.2573  0.0300 -0.0131
  101MOL   C17746377   7.773   6.309   0.207  0.9877 -0.4430 -0.0505
  101MOL   H17846378   7.740   6.140   0.619  1.1887  0.6209 -3.9124
  101MOL   H17946379   7.779   5.983   0.680  0.6453 -1.0590 -0.7489
  101MOL   H18046380   7.741   5.913   0.412  0.1782  1.2827 -1.6299
  101MOL   H18146381   7.896   5.952   0.474  0.2547 -0.4493  2.6316
  101MOL   H18246382   7.989   6.445   0.421 -1.4402  1.0392  0.8973
  101MOL   H18346383   7.935   6.646   0.282  1.3609 -0.9597 -0.9590
  101MOL   H18446384   7.661   6.411   0.057 -1.8765  1.8440  1.4741
  101MOL   H18546385   7.728   6.217   0.173  0.7449  0.0077 -0.9725
  101MOL   O18646386   7.639   6.756   8.157 -0.0865  0.1880 -0.1841
  101MOL   C18746387   7.707   6.730   8.035 -0.2272  0.5074  0.2056
  101MOL   C18846388   7.621   6.646   7.941  0.5202  0.4563 -0.3858
  101MOL   O18946389   7.637   6.512   7.978 -0.4110  0.2555  0.1276
  101MOL   C19046390   7.538   6.442   8.029 -0.3673 -0.1183 -0.2705
  101MOL   O19146391   7.420   6.476   8.033 -0.3093 -0.4423  0.0556
  101MOL   C19246392   7.589   6.312   8.078 -0.1497  0.4015 -0.2282
  101MOL   C19346393   7.707   6.252   8.038  0.2500  0.3471 -1.0166
  101MOL   C19446394   7.758   6.127   8.090  0.2719 -0.0397  0.6522
  101MOL   C19546395   7.684   6.054   8.179 -0.1489 -0.6628 -0.0451
  101MOL   C19646396   7.723   5.917   8.226 -0.2693  0.0659  0.0564
  101MOL   O19746397   7.674   5.861   0.048  0.2314 -0.9919  0.0634
  101MOL   O19846398   7.809   5.854   8.154  0.0874  0.1949  0.5007
  101MOL   C19946399   7.558   6.108   8.221  0.1541  0.2543 -0.1079
  101MOL   C20046400   7.510   6.234   8.168  0.6211 -0.3092 -0.2117
  101MOL   H20146401   7.724   6.828   7.991 -0.6006  0.6708  0.4287
  101MOL   H20246402   7.801   6.675   8.041 -0.0657  0.6268 -1.1547
  101MOL   H20346403   7.662   6.660   7.841  0.9400 -1.0644 -0.4440
  101MOL   H20446404   7.516   6.678   7.943  0.3294 -0.1754  0.0202
  101MOL   H20546405   7.759   6.292   7.953  1.9602 -1.9526 -1.0987
  101MOL   H20646406   7.848   6.083   8.051  0.2249  1.1587 -0.8706
  101MOL   H20746407   7.505   6.051   0.020  0.6900  1.7740  1.4531
  101MOL   H20846408   7.414   6.275   8.196  1.0230 -0.7494  1.9111
  101MOL   O20946409   7.841   5.720   8.199  0.7350  0.7651 -0.5436
  101MOL   C21046410   7.979   5.718   8.233  0.0911  0.3732 -0.9958
  101MOL   C21146411   8.016   5.576   8.273  0.0567  0.5655  0.0775
  101MOL   O21246412   7.982   5.544   0.133 -0.1332  0.0337 -0.1293
  101MOL   C21346413   8.071   5.588   0.223  0.4489 -0.3609  0.2319
  101MOL   O21446414   8.164   5.663   0.204  0.5248 -0.0607 -0.0564
  101MOL   C21546415   8.046   5.545   0.358  0.5818  0.3615  0.1761
  101MOL   C21646416   7.919   5.486   0.391 -0.3874  0.0386 -0.0654
  101MOL   C21746417   7.905   5.435   0.520 -0.3239 -0.2064 -0.3544
  101MOL   C21846418   8.002   5.443   0.620 -0.1041  0.6863 -0.3972
  101MOL   C21946419   7.992   5.385   0.752  0.1458  0.0290  0.0035
  101MOL   O22046420   8.037   5.432   0.856 -0.0853 -0.4231  0.2204
  101MOL   O22146421   7.912   5.276   0.749 -0.2330 -0.3580 -0.3300
  101MOL   C22246422   8.121   5.518   0.587  0.3973  0.2500  0.3052
  101MOL   C22346423   8.144   5.575   0.458  0.2736 -0.2257  0.1156
  101MOL   H22446424   8.018   5.750   8.136 -0.1141  1.4582 -0.7345
  101MOL   H22546425   7.992   5.797   0.033 -2.4883 -0.6084  0.5228
  101MOL   H22646426   8.125   5.571   8.273  0.1061  1.1071  2.4608
  101MOL   H22746427   7.979   5.513   8.192  0.8577  1.8232 -1.3101
  101MOL   H22846428   7.837   5.461   0.325 -0.7792 -0.9420  0.7714
  101MOL   H22946429   7.822   5.368   0.539  0.4624 -1.2986 -0.7261
  101MOL   H23046430   8.199   5.533   0.660 -0.4154  1.3349  0.9529
  101MOL   H23146431   8.228   5.636   0.430 -0.1033 -0.1333 -0.8425
  101MOL   O23246432   7.890   5.209   0.878  0.3470 -0.1257 -0.1909
  101MOL   C23346433   7.764   5.250   0.940  0.0264 -0.1222 -0.9153
  101MOL   C23446434   7.641   5.200   0.859 -0.3991 -0.4041 -0.2393
  101MOL   O23546435   7.612   5.287   0.750  0.0335 -0.5274 -0.1135
  101MOL   C23646436   7.493   5.278   0.694  0.9114 -0.1243  0.6781
  101MOL   O23746437   7.417   5.180   0.715 -0.6134  0.5240  0.5244
  101MOL   C23846438   7.465   5.385   0.595 -0.2535  0.0861  0.7540
  101MOL   C23946439   7.526   5.513   0.599 -0.0962  0.8393 -0.1305
  101MOL   C24046440   7.498   5.611   0.499  0.2990 -0.4195  0.5173
  101MOL   C24146441   7.393   5.591   0.415 -0.4519 -0.0477 -0.5028
  101MOL   C24246442   7.357   5.702   0.315 -0.1733  0.5150  0.1762
  101MOL   O24346443   7.419   5.805   0.296  0.7817 -0.2904 -0.1629
  101MOL   O24446444   7.257   5.667   0.238  0.5911  0.1747 -0.2057
  101MOL   C24546445   7.320   5.468   0.414  0.3025 -0.5437 -0.1855
  101MOL   C24646446   7.359   5.362   0.508  0.0468 -0.5309  0.4445
  101MOL   H24746447   7.747   5.208   1.039 -0.4719  0.5977 -0.6937
  101MOL   H24846448   7.756   5.358   0.951 -1.7989 -0.2384 -0.9738
  101MOL   H24946449   7.550   5.200   0.919 -0.2973  1.4163 -0.0347
  101MOL   H25046450   7.661   5.099   0.825  2.1495  0.4758 -1.5590
  101MOL   H25146451   7.606   5.541   0.667 -2.4672  0.6929  2.7979
  101MOL   H25246452   7.556   5.702   0.494 -0.5534  0.1857  1.5995
  101MOL   H25346453   7.244   5.449   0.340  0.8435  0.2400 -0.9492
  101MOL   H25446454   7.313   5.265   0.518  0.1670 -0.6110  0.2181
  101MOL   O25546455   7.202   5.779   0.150 -0.1873 -0.2266  0.1200
  101MOL   C25646456   7.198   5.736   0.013 -0.7624 -0.4935 -0.2013
  101MOL   C25746457   7.334   5.718   8.224  0.4574  0.8865  0.8686
  101MOL   O25846458   7.349   5.813   8.123 -0.0285  0.3441 -0.7515
  101MOL   C25946459   7.439   5.800   8.024 -0.8572  0.0835 -0.1975
  101MOL   O26046460   7.524   5.710   8.026  0.2411  0.3579  0.0717
  101MOL   C26146461   7.449   5.919   7.938  0.0722  0.3250  0.4122
  101MOL   C26246462   7.360   6.028   7.949 -0.4389  0.5261 -0.0948
  101MOL   C26346463   7.378   6.146   7.865  0.0708  0.1836 -0.1869
  101MOL   C26446464   7.485   6.147   7.770 -0.0877  0.1768 -0.4970
  101MOL   C26546465   7.502   6.257   7.671  0.8598 -0.3351  0.2875
  101MOL   O26646466   7.572   6.247   7.572  0.0946  0.0479 -0.0428
  101MOL   O26746467   7.426   6.360   7.691 -0.1604  0.1011 -0.0043
  101MOL   C26846468   7.580   6.039   7.766 -0.4929  0.3731 -0.0210
  101MOL   C26946469   7.556   5.928   7.842 -0.3404  0.1906 -0.1032
  101MOL   H27046470   7.151   5.638   0.005  0.1645 -0.9205 -0.5661
  101MOL   H27146471   7.138   5.810   8.235 -1.1628  1.0488  2.3084
  101MOL   H27246472   7.335   5.617   8.184 -3.2792  1.1077 -0.0071
  101MOL   H27346473   7.415   5.716   0.021 -0.2668 -2.3109  1.6842
  101MOL   H27446474   7.275   6.031   8.016  0.0167 -0.5998  0.5524
  101MOL   H27546475   7.299   6.219   7.867  1.0628  1.2353  0.8817
  101MOL   H27646476   7.662   6.030   7.696 -0.8091 -0.4293 -0.2842
  101MOL   H27746477   7.625   5.845   7.833  0.7566  1.1097 -0.4141
  101MOL   O27846478   7.431   6.463   7.579 -0.5006  0.1376  0.4642
  101MOL   C27946479   7.539   6.561   7.600  0.3777  0.4339  0.1271
  101MOL   C28046480   7.566   6.625   7.472 -0.5521 -0.3954  0.1683
  101MOL   O28146481   7.658   6.551   7.401  0.1096 -0.3421 -0.8827
  101MOL   C28246482   7.615   6.464   7.316  0.3680  0.2008  0.3011
  101MOL   O28346483   7.500   6.453   7.272  0.1979 -0.2115  0.5376
  101MOL   C28446484   7.726   6.384   7.251 -0.6626  0.3209  0.4316
  101MOL   C28546485   7.857   6.431   7.238  0.0625  0.1067  0.0107
  101MOL   C28646486   7.949   6.353   7.169  0.4789  0.4415 -0.7261
  101MOL   C28746487   7.918   6.220   7.124 -0.5059  0.0296  0.5054
  101MOL   C28846488   8.020   6.130   7.061 -0.1333  0.7578 -0.4464
  101MOL   O28946489   8.007   6.009   7.064 -0.1188  0.7341 -0.4223
  101MOL   O29046490   8.136   6.191   7.010 -0.2577  0.1259  0.3741
  101MOL   C29146491   7.784   6.178   7.134  0.1645 -0.0477  0.8286
  101MOL   C29246492   7.690   6.259   7.191  0.6375  0.4326  0.9775
  101MOL   H29346493   7.495   6.627   7.675 -2.5916  1.7310 -2.6700
  101MOL   H29446494   7.632   6.520   7.640  0.1768 -0.3429 -0.2004
  101MOL   H29546495   7.606   6.726   7.482  0.6708 -1.0176  1.8178
  101MOL   H29646496   7.472   6.638   7.417  0.0560  0.8697 -0.6115
  101MOL   H29746497   7.882   6.531   7.270 -1.4408  0.6028 -0.3264
  101MOL   H29846498   8.052   6.382   7.160  0.1361  0.7874 -4.2015
  101MOL   H29946499   7.755   6.082   7.094  1.3168  0.4264 -1.2371
  101MOL   H30046500   7.587   6.226   7.195  0.2931  1.4109  0.2490
  101MOL   O30146501   8.238   6.087   6.957  0.2995  0.1269  0.2961
  101MOL   C30246502   8.233   6.103   6.816  0.3070  0.1672 -0.1130
  101MOL   C30346503   0.044   5.990   6.750 -0.1735  0.1726  0.0694
  101MOL   O30446504   0.159   5.962   6.831  0.0511  0.2756 -0.4562
  101MOL   C30546505   0.255   6.061   6.834  0.2005  0.7107  0.7415
  101MOL   O30646506   0.267   6.146   6.744  0.0221 -0.5870 -0.5939
  101MOL   C30746507   0.347   6.048   6.946  0.3157  0.3020 -0.5404
  101MOL   C30846508   0.371   5.921   7.005 -0.0804  0.0537 -0.5384
  101MOL   C30946509   0.459   5.898   7.114 -0.2418  0.4359  0.0980
  101MOL   C31046510   0.527   6.009   7.167  0.2077  0.2660 -0.9394
  101MOL   C31146511   0.623   5.995   7.275  0.2991  0.5067 -0.1974
  101MOL   O31246512   0.632   5.900   7.340  0.4048  0.0075  0.1945
  101MOL   O31346513   0.697   6.102   7.291 -0.2190  0.1258 -0.8537
  101MOL   C31446514   0.501   6.137   7.111  0.2002  0.3453 -0.4981
  101MOL   C31546515   0.415   6.154   7.004 -0.2292  0.9120  0.1835
  101MOL   H31646516   8.132   6.088   6.779  0.5949 -0.0399 -0.8371
  101MOL   H31746517   8.268   6.201   6.782 -2.7254  1.4921  0.4842
  101MOL   H31846518   0.069   5.996   6.644 -0.7588 -3.7357 -0.3537
  101MOL   H31946519   8.269   5.894   6.753  0.9948 -0.4342  0.1700
  101MOL   H32046520   0.330   5.827   6.972  1.4193 -1.0958  0.7760
  101MOL   H32146521   0.466   5.799   7.157 -2.6213 -0.2181 -0.9065
  101MOL   H32246522   0.544   6.226   7.156 -0.3377  1.0861 -1.4360
  101MOL   H32346523   0.399   6.251   6.959  0.0144  0.9963  0.2811
  101MOL   O32446524   0.810   6.077   7.381  0.3890  0.5786  0.3699
  101MOL   C32546525   0.933   6.103   7.312  0.0665 -0.2856 -0.2356
  101MOL   C32646526   1.036   6.121   7.421 -0.1543 -0.3806 -0.0965
  101MOL   O32746527   1.099   6.249   7.415 -0.2768  0.1504 -0.0145
  101MOL   C32846528   1.053   6.353   7.494 -0.3740  0.6562 -0.3428
  101MOL   O32946529   0.962   6.342   7.581 -0.0263  0.1107 -0.2866
  101MOL   C33046530   1.114   6.485   7.466 -0.1068  0.4660 -0.3821
  101MOL   C33146531   1.219   6.503   7.376  0.6258  0.2787  0.2664
  101MOL   C33246532   1.264   6.630   7.338  0.0570 -0.6832  0.3136
  101MOL   C33346533   1.217   6.745   7.403 -0.7086 -0.2288  0.4622
  101MOL   C33446534   1.277   6.874   7.376 -0.2389 -0.0643  0.2094
  101MOL   O33546535   1.238   6.975   7.436 -0.4292  0.0115  0.0799
  101MOL   O33646536   1.363   6.886   7.268 -0.2067  0.1231 -0.2547
  101MOL   C33746537   1.118   6.732   7.501  0.3583 -0.2253  0.0685
  101MOL   C33846538   1.064   6.606   7.523 -0.2215  0.7986 -0.0511
  101MOL   H33946539   0.950   6.030   7.233 -0.0914 -1.0101  0.4021
  101MOL   H34046540   0.913   6.201   7.268 -0.8149 -0.8659 -1.1516
  101MOL   H34146541   1.122   6.056   7.404  0.0630 -0.3821  0.9485
  101MOL   H34246542   1.002   6.106   7.523 -0.4088  0.8982  0.0192
  101MOL   H34346543   1.267   6.422   7.322 -0.7732 -0.3371 -0.0740
  101MOL   H34446544   1.335   6.653   7.260 -1.9375  1.4551 -0.9200
  101MOL   H34546545   1.077   6.817   7.553 -0.4135 -0.8816  0.5385
  101MOL   H34646546   0.978   6.582   7.585 -0.3937  1.5900  0.0186
  101MOL   O34746547   1.421   7.025   7.246 -0.3805 -0.5875 -0.2842
  101MOL   C34846548   1.439   7.045   7.103 -0.6279  0.4308 -0.0467
  101MOL   C34946549   1.312   7.107   7.041  0.2814  0.1585 -0.0234
  101MOL   O35046550   1.258   7.019   6.944 -0.2032  0.3382  0.7001
  101MOL   C35146551   1.155   6.937   6.974 -0.6193 -0.4471 -0.6362
  101MOL   O35246552   1.121   6.918   7.090 -0.1495 -0.3888  0.2362
  101MOL   C35346553   1.090   6.876   6.862 -0.0300  0.7280 -0.0535
  101MOL   C35446554   0.988   6.774   6.885  0.5121  0.0677 -0.5042
  101MOL   C35546555   0.917   6.724   6.777  0.2292 -0.5960  0.3431
  101MOL   C35646556   0.935   6.775   6.647 -0.0813 -0.5636  0.2261
  101MOL   C35746557   0.854   6.712   6.543 -0.7141  0.6745  0.5710
  101MOL   O35846558   0.795   6.606   6.554 -1.0396  0.2996  0.2764
  101MOL   O35946559   0.852   6.785   6.422  0.4060  0.4741 -0.0326
  101MOL   C36046560   1.029   6.879   6.619  0.2103  0.3569 -0.5272
  101MOL   C36146561   1.111   6.919   6.728  0.2121  0.2918 -0.2357
  101MOL   H36246562   1.515   7.122   7.085  0.6845 -1.0513 -0.9792
  101MOL   H36346563   1.458   6.951   7.052  0.3661  0.7856 -0.3505
  101MOL   H36446564   1.340   7.202   6.996  2.7949  1.1636  3.3881
  101MOL   H36546565   1.245   7.125   7.125  1.5826 -1.8303  1.5085
  101MOL   H36646566   0.961   6.740   6.984 -0.6105 -0.8383 -1.1030
  101MOL   H36746567   0.844   6.646   6.798 -1.3842  0.5524 -0.8086
  101MOL   H36846568   1.050   6.911   6.519 -1.3192 -2.9494 -1.9909
  101MOL   H36946569   1.175   7.004   6.713 -0.1392  0.9926  1.9787
  101MOL   O37046570   0.753   6.730   6.322  0.6764 -0.6332  0.5180
  101MOL   C37146571   0.818   6.644   6.229 -0.3629 -0.3326 -0.4549
  101MOL   C37246572   0.862   6.724   6.112  0.6109 -0.5770  0.4408
  101MOL   O37346573   0.921   6.642   6.018 -0.3827  0.0517 -0.8174
  101MOL   C37446574   0.954   6.695   5.896 -0.3116 -0.4075 -0.1516
  101MOL   O37546575   0.927   6.806   5.852  0.6653  0.2709  0.1620
  101MOL   C37646576   1.049   6.604   5.827  0.1226  0.1642  0.0972
  101MOL   C37746577   1.112   6.639   5.703 -0.3533  0.2753 -0.7103
  101MOL   C37846578   1.196   6.547   5.633 -0.3033  0.1529  0.1151
  101MOL   C37946579   1.230   6.418   5.688 -0.4210  0.2626 -0.0590
  101MOL   C38046580   1.306   6.313   5.612 -0.9380 -0.0145 -1.3127
  101MOL   O38146581   1.374   6.337   5.508  0.2921 -0.9012  0.0620
  101MOL   O38246582   1.292   6.196   5.661 -0.6032  0.0418  0.2683
  101MOL   C38346583   1.190   6.399   5.823  0.2642  0.4109 -0.8179
  101MOL   C38446584   1.097   6.483   5.887 -0.0760 -0.0453  0.2244
  101MOL   H38546585   0.900   6.595   6.282  0.7786 -0.7168 -2.5311
  101MOL   H38646586   0.744   6.568   6.204 -0.1314 -0.8258  0.3478
  101MOL   H38746587   0.941   6.789   6.152 -0.8333  0.6029  1.4556
  101MOL   H38846588   0.785   6.787   6.067  0.7826 -0.0861  0.8320
  101MOL   H38946589   1.085   6.735   5.660 -0.4849  1.9543  2.8748
  101MOL   H39046590   1.230   6.571   5.533 -1.7869  1.3614 -0.1256
  101MOL   H39146591   1.222   6.311   5.878 -1.0301  1.8292  2.3363
  101MOL   H39246592   1.050   6.442   5.975 -0.2329 -1.7848 -0.6360
  101MOL   O39346593   1.383   6.086   5.598  0.2360  1.2342 -0.0966
  101MOL   C39446594   1.294   6.005   5.518 -0.1685  0.2769 -0.3424
  101MOL   C39546595   1.361   5.947   5.388 -0.4714  0.8333 -0.4467
  101MOL   O39646596   1.349   6.048   5.293 -0.7021 -0.3580  0.2294
  101MOL   C39746597   1.369   6.018   5.161  0.2072  0.0386  0.0486
  101MOL   O39846598   1.390   5.904   5.123  0.3807  0.3395 -0.1987
  101MOL   C39946599   1.371   6.138   5.074  0.2918  0.2053  0.8465
  101MOL   C40046600   1.416   6.121   4.943 -0.3746 -0.2161 -0.4076
  101MOL   C40146601   1.421   6.228   4.849 -0.5259  1.0071 -0.3980
  101MOL   C40246602   1.395   6.358   4.886  0.0380  0.0304  0.2896
  101MOL   C40346603   1.413   6.464   4.781  0.0947 -0.1675  0.4288
  101MOL   O40446604   1.464   6.443   4.671 -0.2186  0.2179  0.6495
  101MOL   O40546605   1.365   6.580   4.825 -0.2091  0.0765  0.3669
  101MOL   C40646606   1.343   6.383   5.021 -0.0416  0.4074  0.5191
  101MOL   C40746607   1.335   6.274   5.114 -0.5941 -0.2721 -0.2050
  101MOL   H40846608   1.274   5.920   5.583  0.5918 -0.3872 -0.9622
  101MOL   H40946609   1.197   6.045   5.488 -0.0991  0.1771 -0.7065
  101MOL   H41046610   1.305   5.858   5.359  1.7096 -0.9021  0.4612
  101MOL   H41146611   1.464   5.914   5.402 -1.0974 -1.2546 -0.5540
  101MOL   H41246612   1.432   6.020   4.907 -2.6383  0.3058 -3.0302
  101MOL   H41346613   1.470   6.202   4.757 -0.5954  0.0989 -0.1772
  101MOL   H41446614   1.330   6.486   5.050 -1.0402  1.1580 -2.3781
  101MOL   H41546615   1.310   6.288   5.218  0.0356  0.2671 -0.1262
  101MOL   O41646616   1.427   6.716   4.782  0.0660 -0.2011 -0.1627
  101MOL   C41746617   1.521   6.753   4.882 -0.8547 -0.3788 -0.2846
  101MOL   C41846618   1.581   6.894   4.873  0.3691  0.7515  0.2643
  101MOL   O41946619   1.646   6.909   4.745  0.7017 -0.0485 -0.0286
  101MOL   C42046620   1.609   7.009   4.661 -0.3293  0.0818 -0.0823
  101MOL   O42146621   1.510   7.084   4.684  0.1267 -0.1967  1.0271
  101MOL   C42246622   1.701   7.027   4.540  0.2169  0.1615 -0.0845
  101MOL   C42346623   1.674   7.119   4.440 -0.3690 -0.4305 -0.0221
  101MOL   C42446624   1.754   7.139   4.324 -0.3884 -0.9380  0.0161
  101MOL   C42546625   1.871   7.060   4.312  0.1034  0.4701 -0.1669
  101MOL   C42646626   1.955   7.088   4.188 -0.1652 -0.2481 -0.7434
  101MOL   O42746627   1.935   7.177   4.109  0.4157  0.0976  0.2266
  101MOL   O42846628   2.054   7.001   4.180 -0.0869  0.0544  0.7735
  101MOL   C42946629   1.899   6.957   4.405 -0.3404 -0.6581  0.0918
  101MOL   C43046630   1.813   6.946   4.521 -0.2054  0.2591 -0.0612
  101MOL   H43146631   1.465   6.763   4.975  0.6231 -0.0105  0.5828
  101MOL   H43246632   1.610   6.689   4.888 -0.3484  0.2903 -0.5486
  101MOL   H43346633   1.658   6.913   4.948  0.6264  0.1193  0.1585
  101MOL   H43446634   1.503   6.969   4.886  0.0937  0.6696 -0.8511
  101MOL   H43546635   1.594   7.191   4.454 -0.6742 -0.6560 -0.5956
  101MOL   H43646636   1.718   7.209   4.250 -1.7224 -0.8672  0.7201
  101MOL   H43746637   1.978   6.885   4.388  0.3460 -0.6068  2.8938
  101MOL   H43846638   1.837   6.869   4.593  0.8431  0.2833 -0.3886
  101MOL   O43946639   2.153   7.008   4.062 -0.2788 -0.4536  0.2251
  101MOL   C44046640   2.259   7.096   4.092 -0.9172 -0.1153  0.3711
  101MOL   C44146641   2.371   7.068   3.990  0.4907 -0.0687  0.2890
  101MOL   O44246642   2.489   7.152   4.010  0.2287 -0.5304 -0.0052
  101MOL   C44346643   2.580   7.111   4.106  0.3536  0.1767  0.5635
  101MOL   O44446644   2.568   7.006   4.172 -0.4091  0.1609 -0.4621
  101MOL   C44546645   2.690   7.204   4.126 -0.1402 -0.0353 -0.4821
  101MOL   C44646646   2.813   7.166   4.189 -0.3057 -0.2067 -0.4010
  101MOL   C44746647   2.924   7.257   4.204  0.4634  0.6078  0.0439
  101MOL   C44846648   2.913   7.386   4.135 -0.3501 -0.3601 -1.0918
  101MOL   C44946649   3.025   7.486   4.142  0.2676 -0.3897 -0.0687
  101MOL   O45046650   3.009   7.603   4.102 -0.1802  0.1111 -0.8908
  101MOL   O45146651   3.139   7.446   4.195 -0.1073  0.0607 -0.6491
  101MOL   C45246652   2.794   7.423   4.074 -0.1084  0.6720  0.3137
  101MOL   C45346653   2.682   7.335   4.063  0.0970  0.5692  0.7900
  101MOL   H45446654   2.226   7.199   4.083 -2.8152 -0.7485 -0.1670
  101MOL   H45546655   2.304   7.085   4.190  0.8844  0.2077 -0.4108
  101MOL   H45646656   2.338   7.088   3.888  1.3294 -2.2585 -0.4290
  101MOL   H45746657   2.395   6.962   4.002 -1.9412 -0.6679 -0.0091
  101MOL   H45846658   2.816   7.064   4.225 -2.2720 -0.2398 -0.2854
  101MOL   H45946659   3.006   7.230   4.269 -2.2096 -1.7946  2.5310
  101MOL   H46046660   2.785   7.510   4.011  0.0823 -1.2861 -2.4829
  101MOL   H46146661   2.593   7.363   4.008 -2.0682 -0.0108  3.8560
  101MOL   H46246662   3.195   7.522   4.199  1.9998 -1.5297  1.9287
  102MOL     O146663   6.642   4.580   6.078  0.4445 -0.1366 -0.3162
  102MOL     C246664   6.590   4.710   6.062  0.3223 -0.6785  0.6295
  102MOL     C346665   6.684   4.787   5.983 -1.2028  0.2182 -0.8494
  102MOL     O446666   6.679   4.749   5.846  0.0365  0.2222  0.2652
  102MOL     C546667   6.794   4.766   5.774  0.4827  0.0507 -0.5201
  102MOL     O646668   6.890   4.814   5.833  0.0283  0.0361  0.7388
  102MOL     C746669   6.774   4.738   5.628  0.0690  0.1658  0.0425
  102MOL     C846670   6.863   4.801   5.535  0.6879 -0.1756  0.8667
  102MOL     C946671   6.863   4.766   5.399 -0.2031 -0.2820  0.4575
  102MOL    C1046672   6.773   4.667   5.353  0.5405 -0.0899 -0.5312
  102MOL    C1146673   6.775   4.621   5.214 -0.2692 -0.0994  0.0277
  102MOL    O1246674   6.831   4.673   5.120 -0.7787 -0.1688  0.2496
  102MOL    O1346675   6.713   4.508   5.205 -0.3322 -0.2149  0.1192
  102MOL    C1446676   6.684   4.612   5.445 -0.5131  0.1581 -0.1652
  102MOL    C1546677   6.687   4.638   5.581 -0.0630  0.2621 -0.5258
  102MOL    H1646678   6.491   4.713   6.016  0.5476 -1.4703  0.0813
  102MOL    H1746679   6.571   4.768   6.152  3.7157  1.2810  0.1431
  102MOL    H1846680   6.786   4.776   6.021 -1.3441 -2.3397 -1.0918
  102MOL    H1946681   6.653   4.888   6.006 -1.7614 -0.3168  0.7939
  102MOL    H2046682   6.923   4.885   5.565 -0.1352  0.3525  1.0692
  102MOL    H2146683   6.924   4.820   5.329 -3.3632  1.7999 -0.8162
  102MOL    H2246684   6.610   4.537   5.419  1.9404 -2.5410  0.4029
  102MOL    H2346685   6.610   4.612   5.652  0.4904  2.9413  1.1594
  102MOL    H2446686   6.624   4.537   5.996 -0.6046  2.0802 -1.2841
  102MOL    O2546687   6.735   4.442   5.072  0.1187  0.4725 -0.3648
  102MOL    C2646688   6.855   4.365   5.069 -0.3929  0.6647  0.0234
  102MOL    C2746689   6.824   4.214   5.054 -0.7890 -0.4089 -0.1415
  102MOL    O2846690   6.952   4.158   5.026  0.5834 -0.5164  0.0485
  102MOL    C2946691   7.053   4.142   5.118 -1.5880  0.3942  0.5282
  102MOL    O3046692   7.041   4.153   5.242 -0.3665  0.1737  0.1029
  102MOL    C3146693   7.182   4.104   5.054 -0.3264  0.5378  0.0961
  102MOL    C3246694   7.299   4.101   5.138 -0.1044  0.2588  0.3837
  102MOL    C3346695   7.422   4.064   5.080 -0.0483  0.6094 -0.3977
  102MOL    C3446696   7.431   4.020   4.948  0.9167  0.2034 -0.3650
  102MOL    C3546697   7.559   3.974   4.896 -0.0239 -0.2924  0.2220
  102MOL    O3646698   7.656   3.957   4.968 -0.5175 -0.3685  0.1371
  102MOL    O3746699   7.555   3.948   4.767 -0.1261 -0.0931  1.0072
  102MOL    C3846700   7.316   4.032   4.865 -0.3442  0.5912 -0.2092
  102MOL    C3946701   7.193   4.064   4.920  0.0099  0.0320 -1.1156
  102MOL    H4046702   6.906   4.401   4.980 -1.0214 -1.2017 -1.1261
  102MOL    H4146703   6.921   4.377   5.155  0.3999  1.2411 -0.6600
  102MOL    H4246704   6.766   4.197   4.963 -1.9025 -1.2750  0.7178
  102MOL    H4346705   6.775   4.173   5.142 -1.1868  1.0588  0.3325
  102MOL    H4446706   7.307   4.135   5.240  0.3969  0.2468  0.3523
  102MOL    H4546707   7.510   4.054   5.142 -0.9283 -2.6152  0.4221
  102MOL    H4646708   7.329   4.005   4.762 -0.3403 -1.0149  0.1999
  102MOL    H4746709   7.101   4.078   4.865 -0.4236  0.4458 -0.2945
  102MOL    O4846710   7.685   3.928   4.702  0.3797  0.0767  0.3340
  102MOL    C4946711   7.708   3.794   4.681 -0.0601 -0.2001  0.2771
  102MOL    C5046712   7.845   3.768   4.614  0.3420 -0.5316 -0.0164
  102MOL    O5146713   7.818   3.798   4.478  0.3375  0.0576  0.3687
  102MOL    C5246714   7.895   3.883   4.403  0.0938  0.5387 -0.0469
  102MOL    O5346715   7.981   3.960   4.456 -0.2362 -0.4199  0.2507
  102MOL    C5446716   7.881   3.859   4.257 -0.0607  0.8276 -0.5933
  102MOL    C5546717   7.981   3.900   4.161  0.4572  0.2116 -0.0286
  102MOL    C5646718   7.960   3.873   4.027 -0.2675  0.0517  0.2037
  102MOL    C5746719   7.846   3.808   3.981  0.1594  0.0147  0.1569
  102MOL    C5846720   7.832   3.789   3.833 -0.5434  0.4991  0.6498
  102MOL    O5946721   7.925   3.801   3.748  0.1796  0.5765 -0.2824
  102MOL    O6046722   7.712   3.752   3.796 -0.1388 -0.8087  0.6940
  102MOL    C6146723   7.746   3.769   4.071  0.4883 -0.4702 -0.0978
  102MOL    C6246724   7.763   3.791   4.211 -0.0573 -0.5337 -0.7849
  102MOL    H6346725   7.712   3.730   4.769 -1.1287 -1.1133 -0.3147
  102MOL    H6446726   7.632   3.745   4.621  0.0774 -1.6972  1.3059
  102MOL    H6546727   7.865   3.661   4.618 -0.1516 -0.5751  1.4911
  102MOL    H6646728   7.931   3.821   4.657 -0.8229  0.7151  0.8280
  102MOL    H6746729   8.063   3.965   4.190  0.2375  1.8995 -2.9620
  102MOL    H6846730   8.035   3.906   3.956  2.1515 -0.8101  2.2814
  102MOL    H6946731   7.657   3.719   4.037 -0.8352 -1.0048  3.8756
  102MOL    H7046732   7.685   3.751   4.273  2.5611  0.0397  3.0505
  102MOL    O7146733   7.710   3.718   3.647  0.2999  0.4205 -0.1659
  102MOL    C7246734   7.737   3.580   3.611 -0.9877 -0.2374  0.6749
  102MOL    C7346735   7.634   3.481   3.674  0.1931 -0.1034  0.0092
  102MOL    O7446736   7.687   3.446   3.797 -0.2149 -0.5248  0.2924
  102MOL    C7546737   7.784   3.354   3.802  0.6164 -1.0535 -0.7147
  102MOL    O7646738   7.805   3.278   3.709  0.4334  0.3972  0.8003
  102MOL    C7746739   7.875   3.372   3.927  0.0870  0.1280 -0.8833
  102MOL    C7846740   7.841   3.453   4.036  0.4694  0.3824 -0.5976
  102MOL    C7946741   7.931   3.472   4.150 -0.2813 -1.0620 -0.3674
  102MOL    C8046742   8.048   3.393   4.155  0.0328 -0.2299  0.3729
  102MOL    C8146743   8.144   3.419   4.266  0.5878  0.5172  0.1312
  102MOL    O8246744   8.108   3.470   4.374 -0.2116 -0.1549  0.4879
  102MOL    O8346745   8.266   3.369   4.245 -0.1110 -0.8754 -0.5342
  102MOL    C8446746   8.076   3.304   4.044  0.2111  0.8266  0.0548
  102MOL    C8546747   7.990   3.293   3.934  0.7634 -0.4955  0.1981
  102MOL    H8646748   7.729   3.572   3.503 -1.3732  2.2492  0.4937
  102MOL    H8746749   7.838   3.542   3.624 -0.9215  0.0848  1.1361
  102MOL    H8846750   7.619   3.393   3.612 -0.6851  1.2515 -1.7293
  102MOL    H8946751   7.538   3.530   3.690 -0.0020 -0.7345  0.7713
  102MOL    H9046752   7.748   3.508   4.036  0.5677  0.5681 -1.7541
  102MOL    H9146753   7.900   3.544   4.224  2.7015  1.0495 -1.1242
  102MOL    H9246754   8.164   3.243   4.039 -1.5178 -1.6235 -1.5544
  102MOL    H9346755   8.009   3.220   3.856  2.3467  1.2815 -1.1141
  102MOL    O9446756   0.069   3.344   4.369  0.4623 -0.2233 -0.4524
  102MOL    C9546757   0.149   3.459   4.393 -0.1057  0.2700 -0.4344
  102MOL    C9646758   0.158   3.503   4.540  0.2372  0.7465 -0.8254
  102MOL    O9746759   0.039   3.575   4.585 -0.5715 -0.4014  0.2768
  102MOL    C9846760   0.024   3.708   4.562 -0.7991 -0.5475  0.1223
  102MOL    O9946761   0.095   3.758   4.472  0.3847 -0.4212 -0.7588
  102MOL   C10046762   8.227   3.788   4.665 -0.2502 -0.1214 -0.1436
  102MOL   C10146763   8.224   3.931   4.659  0.9083 -0.0469 -0.2704
  102MOL   C10246764   8.177   4.009   4.765 -0.2618  0.0409 -0.4048
  102MOL   C10346765   8.122   3.948   4.876  0.0803  0.0920  0.5307
  102MOL   C10446766   8.084   4.033   4.997  0.5947 -0.7133 -0.0307
  102MOL   O10546767   8.067   4.154   4.993 -0.4551 -0.1003 -0.6025
  102MOL   O10646768   8.080   3.963   5.111  0.3225  0.0090  0.3315
  102MOL   C10746769   8.108   3.808   4.881 -0.3539 -0.0001 -0.0512
  102MOL   C10846770   8.171   3.727   4.777 -0.1161  0.2649  0.9204
  102MOL   H10946771   0.247   3.431   4.355 -0.7186  0.5083 -2.2689
  102MOL   H11046772   0.125   3.543   4.327  2.6322  1.6866  0.2843
  102MOL   H11146773   0.245   3.564   4.565  0.8354  0.5000 -2.2769
  102MOL   H11246774   0.164   3.411   4.598  0.5021 -0.2423 -2.3973
  102MOL   H11346775   8.268   3.986   4.577 -1.4676  0.2826 -1.3774
  102MOL   H11446776   8.178   4.116   4.753 -1.7330  0.2285  1.0197
  102MOL   H11546777   8.049   3.759   4.958 -1.8669  0.3417 -0.9646
  102MOL   H11646778   8.183   3.620   4.784  3.2807  0.4603 -0.8503
  102MOL   O11746779   8.027   4.030   5.232 -0.3261  0.2427 -0.2692
  102MOL   C11846780   7.895   3.993   5.247 -0.2277  0.3626  0.0658
  102MOL   C11946781   7.876   3.892   5.367 -0.1959 -0.3589  0.3964
  102MOL   O12046782   7.937   3.775   5.323 -0.1546  0.1907 -0.3057
  102MOL   C12146783   8.043   3.726   5.370  0.7358 -1.3560 -0.2708
  102MOL   O12246784   8.093   3.768   5.473  0.6356 -1.2767 -0.1421
  102MOL   C12346785   8.103   3.610   5.300  0.1197 -0.3011 -0.0622
  102MOL   C12446786   8.210   3.530   5.359 -0.4212  0.1027  0.3026
  102MOL   C12546787   0.003   3.437   5.279 -0.2883 -0.1189  0.5840
  102MOL   C12646788   8.241   3.417   5.144  0.7179 -0.1213  0.5330
  102MOL   C12746789   0.055   3.337   5.056  0.3072 -0.1786 -0.4954
  102MOL   O12846790   0.024   3.313   4.940  0.4841  0.1635  0.1980
  102MOL   O12946791   0.175   3.313   5.105 -0.2316 -0.5962  0.0412
  102MOL   C13046792   8.125   3.481   5.088 -0.2936  0.6308  0.5409
  102MOL   C13146793   8.067   3.580   5.169  0.4452 -0.1577  0.3480
  102MOL   H13246794   7.826   4.072   5.277 -0.2384  0.5185 -0.3752
  102MOL   H13346795   7.857   3.946   5.156 -1.2044  1.2091  0.0204
  102MOL   H13446796   7.772   3.867   5.385 -0.2465 -0.3132  0.1747
  102MOL   H13546797   7.917   3.932   5.460 -0.1260 -0.1369  0.2694
  102MOL   H13646798   8.241   3.546   5.461  1.9889 -1.7791 -0.0989
  102MOL   H13746799   0.088   3.381   5.316 -1.3200 -1.3593  1.1261
  102MOL   H13846800   8.092   3.472   4.986 -0.5194  0.9264  0.5869
  102MOL   H13946801   7.994   3.648   5.127  0.5116  0.3306  1.0101
  102MOL   O14046802   0.278   3.270   5.009  0.4348  0.0595  0.6198
  102MOL   C14146803   0.380   3.372   5.000  0.5918 -0.4499  0.6353
  102MOL   C14246804   0.348   3.482   4.896 -0.1405  0.7263 -0.3445
  102MOL   O14346805   0.263   3.582   4.941 -0.0048 -0.3752  0.3208
  102MOL   C14446806   0.242   3.691   4.877 -0.0585 -0.4246  0.1208
  102MOL   O14546807   0.248   3.698   4.756  0.6459  0.6050 -0.1081
  102MOL   C14646808   0.201   3.809   4.963 -0.1433 -0.3726  0.7443
  102MOL   C14746809   0.212   3.938   4.902  0.3176  0.0856 -0.4195
  102MOL   C14846810   0.178   4.045   4.990  0.1736  0.7542  0.5165
  102MOL   C14946811   0.139   4.028   5.123 -0.3057 -0.1719  0.9863
  102MOL   C15046812   0.098   4.145   5.207  0.8757  0.4628 -0.1091
  102MOL   O15146813   0.070   4.133   5.325  0.1757  0.3521  0.0064
  102MOL   O15246814   0.087   4.258   5.137 -0.3240 -0.3912  0.1265
  102MOL   C15346815   0.120   3.897   5.177  0.2687 -0.2375  0.4325
  102MOL   C15446816   0.144   3.789   5.094 -0.0959  0.0319 -0.0973
  102MOL   H15546817   0.403   3.412   5.099 -0.9517  0.6509  0.5794
  102MOL   H15646818   0.472   3.330   4.960  1.4921 -0.0417  2.2600
  102MOL   H15746819   0.304   3.438   4.807  1.3313 -0.4285 -0.5231
  102MOL   H15846820   0.442   3.523   4.858  0.0481  1.3573  0.7935
  102MOL   H15946821   0.220   3.951   4.795 -0.8906 -0.0216 -0.5299
  102MOL   H16046822   0.185   4.144   4.948  1.7615  0.3761 -0.1475
  102MOL   H16146823   0.080   3.871   5.274 -2.6496 -0.4763 -0.7736
  102MOL   H16246824   0.114   3.691   5.127  1.8818 -0.5024  0.2056
  102MOL   O16346825   0.024   4.376   5.219 -0.0555  0.2217  0.6336
  102MOL   C16446826   8.181   4.415   5.160  0.6511  1.0275  0.8747
  102MOL   C16546827   8.120   4.509   5.261 -0.2439 -0.3874 -0.0467
  102MOL   O16646828   8.158   4.646   5.237  0.1925  0.1605 -0.9779
  102MOL   C16746829   8.143   4.730   5.349  0.5292 -0.0180  0.1490
  102MOL   O16846830   8.132   4.688   5.465  0.6464  0.8125  0.2677
  102MOL   C16946831   8.164   4.876   5.318  0.0060 -0.2309 -0.5094
  102MOL   C17046832   8.102   4.972   5.397 -0.1318  0.6466  0.4909
  102MOL   C17146833   8.125   5.111   5.378  0.5581  0.7239  0.4223
  102MOL   C17246834   8.203   5.155   5.267  0.6336  0.4351  0.1453
  102MOL   C17346835   8.242   5.291   5.251 -0.4414  0.5436  0.9696
  102MOL   O17446836   0.051   5.330   5.170 -0.3365 -0.2490  0.2025
  102MOL   O17546837   8.173   5.377   5.335  0.1698 -0.3002 -0.4069
  102MOL   C17646838   8.259   5.057   5.177 -0.5778 -0.1484 -0.5758
  102MOL   C17746839   8.238   4.917   5.208 -0.2216 -0.2602  0.1286
  102MOL   H17846840   8.193   4.464   5.063  1.5985  0.7891  0.8735
  102MOL   H17946841   8.121   4.324   5.154  1.3017  0.5269  1.8786
  102MOL   H18046842   8.161   4.473   5.356 -0.4262 -0.3324  0.0527
  102MOL   H18146843   8.013   4.491   5.253 -0.1402 -1.8386  1.3940
  102MOL   H18246844   8.050   4.935   5.485  2.5018  0.9997  2.2769
  102MOL   H18346845   8.080   5.186   5.441 -1.1080 -0.8257  1.1338
  102MOL   H18446846   0.053   5.092   5.102  1.1601  0.3029  1.2158
  102MOL   H18546847   8.272   4.841   5.138  0.6460 -1.1885  1.5212
  102MOL   O18646848   8.181   5.517   5.293  0.1389 -0.0979 -0.2389
  102MOL   C18746849   0.009   5.586   5.365 -0.1247  0.0470  0.4572
  102MOL   C18846850   0.117   5.634   5.266  0.0455 -0.5723  0.9845
  102MOL   O18946851   0.089   5.756   5.186  0.1085  0.5976  0.2068
  102MOL   C19046852   0.193   5.837   5.154 -0.5432  0.2119  0.8116
  102MOL   O19146853   0.306   5.800   5.177  0.3849 -0.5452 -0.4722
  102MOL   C19246854   0.154   5.973   5.106  0.3917 -0.1017  0.2705
  102MOL   C19346855   0.254   6.056   5.050  0.0228  0.2593 -0.9538
  102MOL   C19446856   0.222   6.183   4.993 -0.1848 -0.4088 -0.4022
  102MOL   C19546857   0.091   6.225   4.994  0.0100 -0.1923  0.2987
  102MOL   C19646858   0.070   6.359   4.928 -0.9081 -0.6010  0.2206
  102MOL   O19746859   0.159   6.422   4.878 -0.5936 -0.2659 -0.1464
  102MOL   O19846860   8.219   6.388   4.915  0.3724  0.0777 -0.0652
  102MOL   C19946861   8.264   6.146   5.045 -0.1064 -0.1142 -0.3960
  102MOL   C20046862   0.024   6.026   5.105  0.1817  0.1323 -0.1649
  102MOL   H20146863   8.237   5.672   5.412  1.2334  0.7291  0.6081
  102MOL   H20246864   0.049   5.523   5.444 -0.4336 -1.8077 -0.8304
  102MOL   H20346865   0.148   5.553   5.199  0.9908 -2.0459  3.1353
  102MOL   H20446866   0.197   5.664   5.333 -0.5159  1.1880  0.8972
  102MOL   H20546867   0.357   6.022   5.043  0.2528  0.8321 -0.3572
  102MOL   H20646868   0.299   6.253   4.964 -0.8909  0.2286 -0.7531
  102MOL   H20746869   8.164   6.185   5.052 -0.0766  0.1130 -1.2154
  102MOL   H20846870   8.216   5.963   5.134 -1.0262  2.1420  0.8336
  102MOL   O20946871   8.192   6.534   4.888 -0.4491  0.2674  0.0184
  102MOL   C21046872   8.122   6.552   4.763  0.2947  0.2350  0.3491
  102MOL   C21146873   8.126   6.701   4.729  0.1854 -0.4671 -0.3137
  102MOL   O21246874   8.025   6.775   4.783 -0.3810 -0.0863 -0.5496
  102MOL   C21346875   7.905   6.777   4.721 -0.6400  0.2011  0.1247
  102MOL   O21446876   7.879   6.725   4.612  1.0154 -0.2851 -0.1931
  102MOL   C21546877   7.800   6.860   4.789 -0.9168 -0.1341  0.2261
  102MOL   C21646878   7.666   6.820   4.782  0.2440 -1.6159  0.5424
  102MOL   C21746879   7.567   6.918   4.815  1.3768 -0.6510  0.1629
  102MOL   C21846880   7.609   7.038   4.870  0.5002 -0.0646  0.7846
  102MOL   C21946881   7.498   7.137   4.896  0.2743  0.3196  0.0302
  102MOL   O22046882   7.380   7.107   4.887  0.4668 -0.6101 -0.0917
  102MOL   O22146883   7.533   7.258   4.919 -0.6714 -0.5985 -0.0646
  102MOL   C22246884   7.747   7.072   4.898 -0.2467 -0.2429 -0.7183
  102MOL   C22346885   7.842   6.983   4.845 -0.6824  0.0331  0.3560
  102MOL   H22446886   8.182   6.490   4.696 -1.8364 -1.7761  0.2378
  102MOL   H22546887   8.021   6.515   4.746  0.5340  0.0559 -0.7564
  102MOL   H22646888   8.139   6.708   4.620 -0.2500  0.9163 -0.2758
  102MOL   H22746889   8.225   6.742   4.751 -1.0505  2.0049  0.7567
  102MOL   H22846890   7.639   6.718   4.762  2.2031 -1.8220 -1.0921
  102MOL   H22946891   7.466   6.883   4.802  1.2980 -0.5317  0.4574
  102MOL   H23046892   7.778   7.162   4.949  0.0321 -0.1580 -1.0332
  102MOL   H23146893   7.941   7.025   4.849 -0.6675 -0.1310  2.0826
  102MOL   O23246894   7.448   7.357   4.857  0.1198 -0.1737 -0.3622
  102MOL   C23346895   7.535   7.431   4.774 -0.1784  0.0157  0.5317
  102MOL   C23446896   7.528   7.577   4.824  0.1887 -0.4844  0.3680
  102MOL   O23546897   7.613   7.612   4.932 -0.0223 -0.5415 -0.0988
  102MOL   C23646898   7.752   7.617   4.920  0.6698 -0.5457  0.3918
  102MOL   O23746899   7.807   7.585   4.817 -0.2446  0.3476 -0.1761
  102MOL   C23846900   7.817   7.667   5.043 -0.6981 -0.2639  0.0795
  102MOL   C23946901   7.749   7.747   5.137 -0.1020  0.0307  0.6997
  102MOL   C24046902   7.808   7.769   5.261  0.5642 -0.3846 -0.6814
  102MOL   C24146903   7.935   7.732   5.297 -0.2740 -0.7319 -0.5842
  102MOL   C24246904   7.988   7.750   5.431  1.0015 -0.3613 -0.5015
  102MOL   O24346905   8.075   7.684   5.479 -0.6475  0.1366 -0.3860
  102MOL   O24446906   7.921   7.845   5.497  0.1545  0.0843 -0.2983
  102MOL   C24546907   8.009   7.668   5.194  0.1207 -0.2315  0.0615
  102MOL   C24646908   7.953   7.627   5.070  0.1240 -0.8315 -1.0348
  102MOL   H24746909   7.635   7.389   4.758  0.2313  0.7955  1.0585
  102MOL   H24846910   7.484   7.412   4.679  1.8895 -1.2890 -0.3575
  102MOL   H24946911   7.425   7.598   4.854  0.7753  0.5693  1.6987
  102MOL   H25046912   7.545   7.634   4.733 -0.4603 -1.4778 -0.3806
  102MOL   H25146913   7.645   7.769   5.119  0.1273 -0.6237 -1.6252
  102MOL   H25246914   7.751   7.824   5.335  0.0864  0.0624 -1.3752
  102MOL   H25346915   8.104   7.629   5.228  0.3419 -1.6454 -2.0774
  102MOL   H25446916   8.007   7.565   5.000  0.2615  0.1451 -1.8183
  102MOL   O25546917   7.931   7.838   5.647 -0.1548 -0.0679  0.2559
  102MOL   C25646918   7.801   7.799   5.698 -0.3567 -0.0463 -0.0975
  102MOL   C25746919   7.759   7.655   5.658  0.4791  0.1684  0.4052
  102MOL   O25846920   7.659   7.650   5.560 -0.2200 -0.1516  0.2558
  102MOL   C25946921   7.530   7.671   5.587  0.0349 -0.1648 -0.1064
  102MOL   O26046922   7.485   7.687   5.700  0.2479 -0.1021 -0.1366
  102MOL   C26146923   7.450   7.681   5.469 -0.0128 -0.1588 -0.5443
  102MOL   C26246924   7.320   7.732   5.485  0.8960 -0.4720  0.1068
  102MOL   C26346925   7.238   7.746   5.370 -0.0611  0.2925  0.5558
  102MOL   C26446926   7.282   7.706   5.242 -0.3583  0.5568  0.2497
  102MOL   C26546927   7.190   7.721   5.128  0.6145 -0.0817 -0.2494
  102MOL   O26646928   7.069   7.742   5.147  0.1503  0.0079 -0.1046
  102MOL   O26746929   7.238   7.704   5.009  0.4368 -0.5070  0.5659
  102MOL   C26846930   7.411   7.652   5.228  0.1458  0.3863  1.5237
  102MOL   C26946931   7.500   7.644   5.343 -0.4984 -0.2500  0.5456
  102MOL   H27046932   7.806   7.794   5.807 -1.0957  0.3186 -0.0412
  102MOL   H27146933   7.724   7.876   5.686 -0.4542  0.0336  0.9789
  102MOL   H27246934   7.722   7.596   5.742  3.0385  1.1527  2.2592
  102MOL   H27346935   7.844   7.601   5.616 -1.5167 -1.8366 -1.1448
  102MOL   H27446936   7.276   7.755   5.581  0.9276 -0.3828  0.1005
  102MOL   H27546937   7.140   7.788   5.389  0.5372  1.9483  0.0654
  102MOL   H27646938   7.437   7.606   5.134 -1.2656  1.4221  0.5930
  102MOL   H27746939   7.598   7.599   5.335 -0.6334 -0.2083 -1.4611
  102MOL   O27846940   7.143   7.749   4.901  0.0591 -0.3058  0.3927
  102MOL   C27946941   7.189   7.869   4.842  0.1003  0.5247 -0.1460
  102MOL   C28046942   7.096   7.913   4.724  0.4170 -0.9967 -0.1765
  102MOL   O28146943   6.962   7.952   4.761 -0.0657 -0.0028 -0.0475
  102MOL   C28246944   6.942   8.060   4.838 -0.1109 -0.5865 -0.8267
  102MOL   O28346945   7.036   8.133   4.872  0.3325 -0.1656 -0.0204
  102MOL   C28446946   6.799   8.099   4.857 -0.3465 -0.3806 -0.4872
  102MOL   C28546947   6.702   8.044   4.771  0.8583 -0.2638  0.4915
  102MOL   C28646948   6.566   8.091   4.785  0.1181 -0.2374  0.1548
  102MOL   C28746949   6.532   8.182   4.887  0.0131 -0.1126  0.3771
  102MOL   C28846950   6.397   8.240   4.882  0.9663  0.4945 -0.4115
  102MOL   O28946951   6.360   0.066   4.945 -0.3763 -0.3112  0.1385
  102MOL   O29046952   6.306   8.155   4.825 -0.1746 -0.6948 -0.3664
  102MOL   C29146953   6.629   8.228   4.976 -0.2234 -0.2939  1.0825
  102MOL   C29246954   6.764   8.189   4.957  0.3714  0.3651  0.1203
  102MOL   H29346955   7.197   7.946   4.918 -0.4120 -0.1724  0.6279
  102MOL   H29446956   7.286   7.854   4.795  1.4265  0.1361  2.6070
  102MOL   H29546957   7.086   7.828   4.657 -0.3677  0.0699 -1.4228
  102MOL   H29646958   7.158   7.987   4.674 -2.8843  0.7058 -1.8605
  102MOL   H29746959   6.714   7.969   4.695 -0.2656  0.3482 -0.3061
  102MOL   H29846960   6.495   8.054   4.713  1.0959 -0.9233 -0.4724
  102MOL   H29946961   6.602   0.026   5.051 -1.7592 -0.5645  0.7964
  102MOL   H30046962   6.840   8.237   5.016 -1.3307  3.0173  0.2576
  102MOL   O30146963   6.170   8.204   4.826  0.2192  0.0230 -0.0712
  102MOL   C30246964   6.099   8.135   4.926 -0.5101  0.4697 -0.0078
  102MOL   C30346965   6.071   7.993   4.880  0.7298  1.0093  0.4022
  102MOL   O30446966   6.043   7.897   4.985 -0.0183 -0.2935 -0.3731
  102MOL   C30546967   5.924   7.900   5.052  0.6519 -0.4759  0.0859
  102MOL   O30646968   5.841   7.990   5.025  0.3901  0.6133  0.0419
  102MOL   C30746969   5.901   7.790   5.158  0.2088  0.1078 -0.0737
  102MOL   C30846970   5.971   7.664   5.152  0.3496 -0.5194  0.4514
  102MOL   C30946971   5.941   7.567   5.252 -0.5767 -0.1061 -0.4146
  102MOL   C31046972   5.854   7.597   5.362 -0.5551  0.3893  0.2708
  102MOL   C31146973   5.831   7.496   5.471  0.3059 -0.1874  0.3597
  102MOL   O31246974   5.889   7.394   5.487  0.1693  0.4129 -0.1710
  102MOL   O31346975   5.734   7.536   5.557 -0.1136 -0.4483  0.4067
  102MOL   C31446976   5.802   7.725   5.363  0.1484  0.5951 -0.5505
  102MOL   C31546977   5.805   7.816   5.257 -0.5606 -0.3368  0.5359
  102MOL   H31646978   6.137   8.132   5.029  0.8127 -3.8197 -0.5480
  102MOL   H31746979   5.997   8.173   4.935 -0.9278 -0.2099 -1.7320
  102MOL   H31846980   6.160   7.954   4.830 -0.4391  0.3514 -1.1791
  102MOL   H31946981   5.989   7.988   4.809 -1.7958 -0.7676  3.3208
  102MOL   H32046982   6.043   7.647   5.074  0.3022 -0.6801  0.4418
  102MOL   H32146983   5.999   7.477   5.256 -1.0760 -0.3801  1.0228
  102MOL   H32246984   5.727   7.743   5.439 -0.8389 -0.8869 -1.1467
  102MOL   H32346985   5.754   7.911   5.263 -0.9664 -0.6426  2.4477
  102MOL   O32446986   5.688   7.437   5.655 -0.6119  0.7246 -0.5268
  102MOL   C32546987   5.548   7.409   5.630  0.2061  0.3076  0.3031
  102MOL   C32646988   5.518   7.344   5.499  0.5094 -0.4184 -0.6504
  102MOL   O32746989   5.598   7.226   5.491  0.1846  0.4665  0.1719
  102MOL   C32846990   5.562   7.116   5.568 -0.9626  0.3425  0.0924
  102MOL   O32946991   5.468   7.108   5.645 -0.1415 -0.7533  0.0035
  102MOL   C33046992   5.658   7.001   5.544 -0.2605  0.0082 -0.4566
  102MOL   C33146993   5.765   7.009   5.456  0.4082 -0.0144 -0.4455
  102MOL   C33246994   5.861   6.906   5.451 -0.4192 -0.1283 -0.2398
  102MOL   C33346995   5.849   6.793   5.537  0.2665  0.3730  0.9640
  102MOL   C33446996   5.947   6.691   5.544  0.7018  0.3283 -0.4207
  102MOL   O33546997   5.957   6.613   5.641 -0.0418 -0.2089  0.0240
  102MOL   O33646998   6.043   6.691   5.449 -0.9359 -0.3176  0.1388
  102MOL   C33746999   5.734   6.783   5.617  0.2202 -0.0511 -0.2598
  102MOL   C33847000   5.648   6.889   5.627  0.4265 -0.3387  0.2984
  102MOL   H33947001   5.508   7.356   5.716 -0.1572  0.4757  0.2361
  102MOL   H34047002   5.505   7.509   5.622 -0.0973  0.1842  0.3831
  102MOL   H34147003   5.554   7.405   5.415  1.0618 -0.9742 -0.8217
  102MOL   H34247004   5.411   7.326   5.494  0.3098 -0.0837  1.7991
  102MOL   H34347005   5.784   7.095   5.394 -1.1121  0.5187 -0.1997
  102MOL   H34447006   5.954   6.925   5.399  1.0184 -1.2801  1.8210
  102MOL   H34547007   5.717   6.693   5.675 -0.8130  0.4742  0.2624
  102MOL   H34647008   5.584   6.887   5.713 -1.4312 -0.1320 -1.0545
  102MOL   O34747009   6.171   6.615   5.489  0.6670  0.2831 -0.4857
  102MOL   C34847010   6.224   6.537   5.381 -1.2096  0.3518  0.1207
  102MOL   C34947011   6.295   6.629   5.285  0.2598 -0.0101 -0.7459
  102MOL   O35047012   6.206   6.690   5.187 -0.3351  0.3204 -0.1363
  102MOL   C35147013   6.207   6.826   5.175 -0.8853 -0.2376 -0.5351
  102MOL   O35247014   6.291   6.897   5.229  0.3565 -0.4152 -0.1648
  102MOL   C35347015   6.085   6.871   5.099  0.6222  0.5442  0.3427
  102MOL   C35447016   6.008   6.778   5.023 -0.0448 -0.2755  0.1123
  102MOL   C35547017   5.890   6.819   4.954 -0.0052  0.3962  0.2451
  102MOL   C35647018   5.852   6.956   4.971  0.5952 -0.6227  0.3628
  102MOL   C35747019   5.740   6.997   4.873 -0.8385 -0.3164  1.0858
  102MOL   O35847020   5.686   6.917   4.798 -0.5314  0.6615 -0.5501
  102MOL   O35947021   5.707   7.124   4.883  0.3829  0.5092 -0.0526
  102MOL   C36047022   5.920   7.047   5.055 -0.6265  0.1880 -0.1385
  102MOL   C36147023   6.042   7.004   5.109 -0.6542  0.8875 -0.7740
  102MOL   H36247024   6.300   6.474   5.429 -1.1613  1.2489  1.2481
  102MOL   H36347025   6.147   6.475   5.336 -0.7597 -1.6432  1.9898
  102MOL   H36447026   6.369   6.571   5.229  0.1708 -0.8092 -0.0542
  102MOL   H36547027   6.350   6.699   5.348 -0.6166  0.3205 -0.3438
  102MOL   H36647028   6.029   6.672   5.016 -0.7853 -0.5888  2.0752
  102MOL   H36747029   5.843   6.741   4.896  2.0618  0.3209 -1.3658
  102MOL   H36847030   5.882   7.148   5.060 -2.1610 -0.2996 -1.6186
  102MOL   H36947031   6.094   7.070   5.178  1.2375 -2.1258  0.7815
  102MOL   O37047032   5.626   7.170   4.768  0.9805  0.7747  0.5264
  102MOL   C37147033   5.488   7.185   4.802  0.3039  0.7070 -0.5067
  102MOL   C37247034   5.469   7.319   4.875  0.1652 -0.3900  0.3129
  102MOL   O37347035   5.505   7.434   4.783  0.1398  0.5201  0.1367
  102MOL   C37447036   5.406   7.496   4.722  0.2365 -0.5207 -0.0423
  102MOL   O37547037   5.292   7.489   4.753 -0.2538  0.8858 -0.1515
  102MOL   C37647038   5.448   7.586   4.608 -0.2902  0.2869  0.8186
  102MOL   C37747039   5.583   7.590   4.568 -0.1550 -0.0461 -0.0006
  102MOL   C37847040   5.622   7.683   4.464  0.7687  0.0055  0.3182
  102MOL   C37947041   5.527   7.768   4.401 -0.6153  0.4776  0.3607
  102MOL   C38047042   5.568   7.860   4.288 -0.1339  0.5414  0.7733
  102MOL   O38147043   5.483   7.928   4.226  0.3149 -0.0589 -0.3969
  102MOL   O38247044   5.700   7.865   4.260  0.3370  0.2557  0.0379
  102MOL   C38347045   5.394   7.766   4.446 -0.3612 -1.6263 -0.3733
  102MOL   C38447046   5.356   7.675   4.548  0.5644  0.4577  0.3555
  102MOL   H38547047   5.427   7.186   4.712  0.9520 -1.2730 -0.9838
  102MOL   H38647048   5.458   7.087   4.840  1.2520  0.3294 -0.7150
  102MOL   H38747049   5.533   7.312   4.963  0.1616 -0.9250  0.2754
  102MOL   H38847050   5.372   7.343   4.918  0.9161 -0.3106  1.9673
  102MOL   H38947051   5.657   7.523   4.610 -0.4923  1.1479  2.5690
  102MOL   H39047052   5.726   7.673   4.441  0.4663  1.8606 -1.9113
  102MOL   H39147053   5.320   7.833   4.405 -0.2481 -0.1210  1.7707
  102MOL   H39247054   5.252   7.670   4.574  0.6535 -0.2051  0.6018
  102MOL   O39347055   5.726   7.939   4.125 -0.1774 -0.3259  0.2295
  102MOL   C39447056   5.734   7.834   4.033  0.1407 -0.0413  0.5294
  102MOL   C39547057   5.699   7.886   3.887 -0.3074 -0.6186 -0.0321
  102MOL   O39647058   5.800   7.987   3.843 -0.5619  0.3061  0.3414
  102MOL   C39747059   5.925   7.944   3.801  0.7764  0.6765 -0.3166
  102MOL   O39847060   5.950   7.827   3.788  0.2098  0.4702  0.5122
  102MOL   C39947061   6.014   8.046   3.747  0.2913 -0.2806  0.0363
  102MOL   C40047062   6.137   8.011   3.690 -0.0914 -0.2593  0.5694
  102MOL   C40147063   6.223   8.109   3.638  0.1853 -0.3593  0.4844
  102MOL   C40247064   6.193   8.245   3.648  0.7824  0.4707  0.0326
  102MOL   C40347065   6.266   0.081   3.573  0.1139 -0.3469 -0.3515
  102MOL   O40447066   6.266   0.203   3.598 -0.1769  0.3771 -0.1768
  102MOL   O40547067   6.344   0.035   3.474  0.1228 -0.1572 -0.0898
  102MOL   C40647068   6.084   8.274   3.735 -0.3829 -0.2122  0.2683
  102MOL   C40747069   5.985   8.185   3.773 -0.5294 -0.2558 -0.0293
  102MOL   H40847070   5.829   7.782   4.045  0.1548 -0.0580  0.3499
  102MOL   H40947071   5.658   7.765   4.067  2.3451 -1.1325  3.4582
  102MOL   H41047072   5.609   7.948   3.885  1.8556  2.6453 -1.0808
  102MOL   H41147073   5.688   7.809   3.811 -1.7908  0.4301 -0.9230
  102MOL   H41247074   6.165   7.909   3.666  0.3453 -0.4005  1.6564
  102MOL   H41347075   6.313   8.072   3.591 -0.7350 -1.4476 -0.4515
  102MOL   H41447076   6.064   0.103   3.752 -0.8835 -0.4512  1.1954
  102MOL   H41547077   5.903   8.210   3.838 -1.1292  1.4561 -1.4082
  102MOL   O41647078   6.438   0.141   3.421 -0.2979 -0.2552  0.5043
  102MOL   C41747079   6.393   0.187   3.292 -0.4487  0.8941 -0.5703
  102MOL   C41847080   6.445   0.085   3.185  0.3444 -0.5176 -0.8700
  102MOL   O41947081   6.381   8.241   3.184 -0.5341  0.0040  0.5483
  102MOL   C42047082   6.245   8.238   3.149 -0.3764  0.4489 -0.1540
  102MOL   O42147083   6.176   0.062   3.137  0.2170  0.2580 -0.6988
  102MOL   C42247084   6.190   8.098   3.144  1.4989  0.4033  0.0548
  102MOL   C42347085   6.261   7.976   3.172 -0.2623 -0.0212  1.0551
  102MOL   C42447086   6.198   7.853   3.167  0.4408  0.0795  0.4021
  102MOL   C42547087   6.071   7.839   3.114  0.0836  0.4764 -0.7333
  102MOL   C42647088   6.001   7.707   3.107  0.7230  0.0404 -0.0412
  102MOL   O42747089   5.879   7.695   3.091 -0.9251  0.0474 -0.1403
  102MOL   O42847090   6.083   7.596   3.114  0.3916  0.0606 -0.6838
  102MOL   C42947091   6.007   7.956   3.071  0.1863  0.4807 -0.0548
  102MOL   C43047092   6.067   8.083   3.076 -0.6900 -0.1374 -0.0635
  102MOL   H43147093   6.288   0.216   3.297 -0.4537  0.4791  1.9449
  102MOL   H43247094   6.455   0.276   3.279 -0.3857  0.9612  0.1904
  102MOL   H43347095   6.551   0.067   3.203  0.0178 -1.2117  0.3792
  102MOL   H43447096   6.427   0.121   3.083 -2.0465 -2.5513 -1.1776
  102MOL   H43547097   6.362   7.978   3.210  0.9491  0.4648 -1.9995
  102MOL   H43647098   6.264   7.771   3.193  0.7764  0.5017  0.8688
  102MOL   H43747099   5.904   7.944   3.040  0.3169 -2.8291  0.6434
  102MOL   H43847100   6.016   8.174   3.048 -3.7255 -1.6575  0.2837
  102MOL   O43947101   6.010   7.469   3.075  0.2921 -0.9617 -0.0344
  102MOL   C44047102   6.051   7.439   2.942  0.4279  0.0919  0.8815
  102MOL   C44147103   5.997   7.301   2.903 -0.8344  0.1127  0.0684
  102MOL   O44247104   6.090   7.209   2.956  0.5274  0.7758 -0.6319
  102MOL   C44347105   6.050   7.111   3.034 -0.4875 -0.0262  0.5844
  102MOL   O44447106   5.936   7.087   3.075  0.2196  0.5863 -0.2378
  102MOL   C44547107   6.170   7.026   3.078 -0.4158  0.0946 -0.3692
  102MOL   C44647108   6.147   6.894   3.124 -0.1159 -0.4690  0.2563
  102MOL   C44747109   6.262   6.810   3.144 -0.2022 -0.1960 -0.5268
  102MOL   C44847110   6.393   6.860   3.138 -0.4397 -0.0779 -0.8020
  102MOL   C44947111   6.509   6.767   3.153  0.2239 -0.2379 -0.2808
  102MOL   O45047112   6.610   6.793   3.084  0.0961  0.1207  0.1666
  102MOL   O45147113   6.504   6.673   3.249  0.1801  0.5442 -0.1833
  102MOL   C45247114   6.414   6.993   3.109  0.1931  0.4114  0.1910
  102MOL   C45347115   6.304   7.075   3.075  0.0176 -0.0464 -0.1921
  102MOL   H45447116   6.000   7.515   2.882  1.5077 -0.2881 -0.5355
  102MOL   H45547117   6.159   7.454   2.941  0.1861  1.9743  1.2891
  102MOL   H45647118   6.006   7.308   2.794  0.9417  3.6202  0.3673
  102MOL   H45747119   5.894   7.298   2.939 -0.1622  1.3456  2.1904
  102MOL   H45847120   6.046   6.860   3.142 -0.5324  1.2605  1.2658
  102MOL   H45947121   6.244   6.705   3.162 -1.6692  0.2262  0.6096
  102MOL   H46047122   6.514   7.031   3.092 -0.6624  3.0079  0.7789
  102MOL   H46147123   6.336   7.170   3.035  0.3654 -0.1360 -0.1263
  102MOL   H46247124   6.591   6.643   3.272  0.2736 -0.2158 -1.4741
  103MOL     O147125   5.375   4.452   3.393  0.0404 -0.0210 -0.2676
  103MOL     C247126   5.452   4.504   3.496  0.4476  0.1581 -0.1423
  103MOL     C347127   5.477   4.650   3.476  0.2308  0.0131 -0.4356
  103MOL     O447128   5.523   4.665   3.338 -0.5213 -0.4402  0.1970
  103MOL     C547129   5.487   4.772   3.275  0.0054  0.0022 -0.3621
  103MOL     O647130   5.433   4.873   3.320  0.6332 -0.4042  0.3139
  103MOL     C747131   5.522   4.764   3.130 -0.4976  0.1490 -0.2032
  103MOL     C847132   5.575   4.646   3.071  1.0286  0.2037  0.2095
  103MOL     C947133   5.606   4.641   2.934  1.0464  0.0368  0.1322
  103MOL    C1047134   5.581   4.753   2.855  1.0640 -0.0975  0.5490
  103MOL    C1147135   5.616   4.747   2.711  0.2424  0.3894 -0.1450
  103MOL    O1247136   5.687   4.655   2.670  0.1708  0.6329 -0.1473
  103MOL    O1347137   5.565   4.847   2.640 -0.1701  0.0947 -0.2004
  103MOL    C1447138   5.526   4.872   2.913  0.0275  0.8436 -0.3540
  103MOL    C1547139   5.501   4.875   3.045  0.0754  0.0079 -0.5580
  103MOL    H1647140   5.418   4.472   3.594 -0.6990 -0.7270 -0.8185
  103MOL    H1747141   5.551   4.462   3.478  0.5574  1.2036 -2.2074
  103MOL    H1847142   5.566   4.678   3.533  0.3535  0.6860 -0.9505
  103MOL    H1947143   5.392   4.714   3.501 -0.6315  0.2896 -3.7988
  103MOL    H2047144   5.592   4.554   3.124 -2.8550  0.1379  1.5139
  103MOL    H2147145   5.640   4.543   2.902 -2.1803 -1.2104  0.3074
  103MOL    H2247146   5.500   4.955   2.849  0.4279 -0.6891 -2.5813
  103MOL    H2347147   5.448   4.959   3.088  1.0517  1.3123 -1.8615
  103MOL    H2447148   5.422   4.462   3.311 -0.4147  2.7442 -0.2365
  103MOL    O2547149   5.579   4.829   2.493 -0.0803  0.3717  0.2394
  103MOL    C2647150   5.686   4.902   2.451  0.2420 -0.6450 -0.0837
  103MOL    C2747151   5.745   4.838   2.324  0.1278 -0.0512 -0.9381
  103MOL    O2847152   5.664   4.865   2.214 -0.0992 -0.6488  0.2613
  103MOL    C2947153   5.715   4.842   2.092  0.0770 -0.5985  0.0483
  103MOL    O3047154   5.838   4.816   2.078 -0.3543  0.1928  0.1696
  103MOL    C3147155   5.614   4.862   1.978  0.0002 -0.1475 -0.5164
  103MOL    C3247156   5.654   4.836   1.847  0.3174  0.5271  0.8216
  103MOL    C3347157   5.573   4.865   1.732  0.2204  0.2131 -0.3666
  103MOL    C3447158   5.445   4.923   1.753  0.5545  0.3009 -0.5884
  103MOL    C3547159   5.353   4.959   1.643 -0.5245 -0.8370 -0.5245
  103MOL    O3647160   5.230   4.976   1.654  0.6478  0.1309  0.4916
  103MOL    O3747161   5.418   4.953   1.533 -0.0077 -0.2518  0.0780
  103MOL    C3847162   5.408   4.947   1.884 -0.5453  0.1829  0.2579
  103MOL    C3947163   5.490   4.917   1.995 -0.0222  0.1385  0.1463
  103MOL    H4047164   5.650   5.003   2.430 -1.6188 -1.2391  0.1279
  103MOL    H4147165   5.764   4.902   2.526 -1.2270  2.5935  1.5663
  103MOL    H4247166   5.743   4.732   2.347 -0.3459  0.5888  2.1150
  103MOL    H4347167   5.850   4.865   2.322  0.0322  0.5531  1.0174
  103MOL    H4447168   5.750   4.788   1.838 -0.6365 -1.2934 -0.0207
  103MOL    H4547169   5.596   4.832   1.632  1.6430 -0.3641  0.1258
  103MOL    H4647170   5.306   4.977   1.902 -0.5072  1.2714 -1.2654
  103MOL    H4747171   5.458   4.943   2.095 -1.3589  0.0454 -0.2537
  103MOL    O4847172   5.338   4.932   1.410  0.1095  0.3927 -0.3047
  103MOL    C4947173   5.362   4.800   1.364  0.6489 -0.3111 -0.4246
  103MOL    C5047174   5.285   4.759   1.237  0.5161 -0.1777 -0.0474
  103MOL    O5147175   5.316   4.855   1.133  0.2962 -0.1391  0.4010
  103MOL    C5247176   5.322   4.812   1.006  0.1747 -0.3146 -0.2411
  103MOL    O5347177   5.315   4.696   0.975  0.1271 -0.6779 -0.5918
  103MOL    C5447178   5.350   4.923   0.906 -0.4969 -0.2173 -0.6319
  103MOL    C5547179   5.378   4.901   0.771 -0.6134  0.7339  0.2490
  103MOL    C5647180   5.391   5.015   0.689  0.0213  0.7265 -1.0100
  103MOL    C5747181   5.382   5.146   0.740  0.9487  0.1426  0.2546
  103MOL    C5847182   5.377   5.264   0.647  0.2042  0.8399  0.1732
  103MOL    O5947183   5.387   5.380   0.687  0.4560  0.0197  0.3895
  103MOL    O6047184   5.340   5.239   0.516 -0.2729 -1.3335  0.9722
  103MOL    C6147185   5.356   5.165   0.873  0.4092  0.1994 -0.2008
  103MOL    C6247186   5.361   5.050   0.957  0.2116  0.0679  0.4965
  103MOL    H6347187   5.466   4.784   1.336  0.4327  1.4371 -2.2963
  103MOL    H6447188   5.330   4.741   1.450  0.2081  0.2587 -0.1998
  103MOL    H6547189   5.179   4.765   1.262 -0.4371 -0.1429 -3.7433
  103MOL    H6647190   5.312   4.660   1.200 -1.4326 -0.3705 -0.9953
  103MOL    H6747191   5.382   4.798   0.740 -2.3297  0.3546  1.2416
  103MOL    H6847192   5.412   4.980   0.589  0.3784 -0.5735 -0.4962
  103MOL    H6947193   5.337   5.263   0.913  2.7944  0.1229  1.2091
  103MOL    H7047194   5.355   5.068   1.063  0.8182  1.2491  0.3408
  103MOL    O7147195   5.333   5.359   0.422 -0.1035  0.7312 -0.0744
  103MOL    C7247196   5.449   5.362   0.336 -0.4741 -0.0489  0.4866
  103MOL    C7347197   5.565   5.426   0.400 -0.1599 -0.7322  0.9352
  103MOL    O7447198   5.687   5.425   0.336  0.1349  0.2318 -0.2021
  103MOL    C7547199   5.772   5.316   0.358  0.1861 -0.1379  0.2044
  103MOL    O7647200   5.738   5.211   0.411 -0.7581  0.4173  0.3235
  103MOL    C7747201   5.910   5.335   0.302 -0.2160 -0.3149  0.2448
  103MOL    C7847202   5.992   5.229   0.297 -0.2021  0.0157  0.1148
  103MOL    C7947203   6.123   5.251   0.255  0.4377  0.3988  0.5112
  103MOL    C8047204   6.164   5.377   0.214 -0.2150 -0.2720  0.7678
  103MOL    C8147205   6.305   5.393   0.169  0.7502 -0.0971  0.0233
  103MOL    O8247206   6.361   5.501   0.186 -0.2472 -0.3593  0.3375
  103MOL    O8347207   6.358   5.283   0.113  0.1461  0.2284 -0.2689
  103MOL    C8447208   6.082   5.487   0.220  0.0723  0.2537 -0.4664
  103MOL    C8547209   5.956   5.466   0.274  0.2894  0.6555  0.4973
  103MOL    H8647210   5.485   5.268   0.295  2.2781  0.3590  1.8339
  103MOL    H8747211   5.416   5.425   0.253 -1.4331 -1.1777  0.0121
  103MOL    H8847212   5.578   5.395   0.504  0.1333 -2.1270  0.4807
  103MOL    H8947213   5.544   5.533   0.397 -1.0161 -0.9346 -0.3271
  103MOL    H9047214   5.964   5.130   0.330  0.6817 -0.3918 -0.3276
  103MOL    H9147215   6.181   5.160   0.253  0.9025  0.7371 -3.1756
  103MOL    H9247216   6.119   5.586   0.198 -0.0696  0.4195  0.0278
  103MOL    H9347217   5.888   5.551   0.275 -0.6352 -0.0794  1.5799
  103MOL    O9447218   6.494   5.305   0.058 -0.3542  0.0772 -0.2613
  103MOL    C9547219   6.482   5.332   8.197  0.2039  0.0004  0.3370
  103MOL    C9647220   6.626   5.346   8.138  0.1609  0.3485 -0.4528
  103MOL    O9747221   6.730   5.279   8.211 -0.0408  0.0829 -0.2897
  103MOL    C9847222   6.728   5.147   8.235  0.0002 -0.0016  0.2790
  103MOL    O9947223   6.634   5.077   8.191  0.4561 -0.0225 -0.0144
  103MOL   C10047224   6.826   5.096   0.059  0.3529  0.7857  0.1452
  103MOL   C10147225   6.881   5.184   0.157  0.0167  0.6259 -0.2720
  103MOL   C10247226   6.987   5.143   0.239 -0.1475 -0.2847 -0.5235
  103MOL   C10347227   7.023   5.006   0.246  0.1612 -0.5336 -0.7269
  103MOL   C10447228   7.115   4.963   0.348 -0.6453  0.1330  0.3788
  103MOL   O10547229   7.172   5.039   0.431  0.3442  0.0460 -0.1359
  103MOL   O10647230   7.112   4.831   0.356 -0.4101  0.1583 -0.2211
  103MOL   C10747231   6.968   4.914   0.150 -0.0087  1.0658 -0.8305
  103MOL   C10847232   6.869   4.960   0.061 -0.2002  0.0445 -0.3130
  103MOL   H10947233   6.417   5.252   8.161 -1.7466  1.6928  0.0363
  103MOL   H11047234   6.430   5.427   8.187  1.3983  0.8374  1.7951
  103MOL   H11147235   6.651   5.452   8.136  0.0586  0.3772 -0.2218
  103MOL   H11247236   6.623   5.315   8.034 -2.0604 -1.3828  0.0735
  103MOL   H11347237   6.852   5.286   0.174 -0.5763  0.2390  1.0901
  103MOL   H11447238   7.018   5.215   0.313 -1.6666  1.0829 -1.1930
  103MOL   H11547239   6.982   4.807   0.147 -1.6356  0.8155 -0.2342
  103MOL   H11647240   6.817   4.885   0.002  1.0173 -1.3668  0.3885
  103MOL   O11747241   7.145   4.772   0.489 -0.2676  0.2506 -0.3572
  103MOL   C11847242   7.017   4.758   0.553 -0.1088  0.1611  0.0769
  103MOL   C11947243   7.031   4.746   0.712  0.5153  0.4857  0.0298
  103MOL   O12047244   7.066   4.878   0.761  0.2516  0.6384 -0.1086
  103MOL   C12147245   6.968   4.969   0.774 -0.2600 -0.8637  0.3117
  103MOL   O12247246   6.853   4.944   0.735 -0.3515 -0.0944 -0.5800
  103MOL   C12347247   7.021   5.097   0.828 -0.4887  0.4159  0.2515
  103MOL   C12447248   7.141   5.100   0.897  0.7528 -0.5911 -0.1067
  103MOL   C12547249   7.177   5.226   0.957  0.1016  0.1217 -0.8305
  103MOL   C12647250   7.096   5.342   0.958 -0.5069 -0.4246  0.3273
  103MOL   C12747251   7.135   5.464   1.033 -0.6544 -0.5995  0.1168
  103MOL   O12847252   7.237   5.468   1.105 -0.0820  0.1060  0.3058
  103MOL   O12947253   7.043   5.560   1.031  0.3984 -0.5480  0.0055
  103MOL   C13047254   6.972   5.331   0.888 -0.1900 -0.1875  0.0954
  103MOL   C13147255   6.936   5.213   0.825 -0.6232  0.1553 -0.9106
  103MOL   H13247256   6.958   4.846   0.526 -0.5995  0.3462  1.7126
  103MOL   H13347257   6.967   4.677   0.500  2.3885 -0.9247 -0.6960
  103MOL   H13447258   7.100   4.667   0.742  1.2695  0.7126 -1.0865
  103MOL   H13547259   6.934   4.724   0.757  1.6924  1.3210  3.1054
  103MOL   H13647260   7.198   5.009   0.902 -0.8859 -1.5069  2.0535
  103MOL   H13747261   7.271   5.236   1.010  0.0840  1.9371 -1.1072
  103MOL   H13847262   6.901   5.412   0.894 -0.7181 -0.4756 -2.0945
  103MOL   H13947263   6.845   5.210   0.766 -0.5394  1.2867 -1.0995
  103MOL   O14047264   7.076   5.676   1.110 -0.4573 -0.3000 -0.7081
  103MOL   C14147265   6.989   5.668   1.222 -0.4814 -0.7747  0.2329
  103MOL   C14247266   7.034   5.592   1.353 -0.1493 -0.0491 -0.4715
  103MOL   O14347267   6.986   5.456   1.367 -0.0384  0.3387  0.3355
  103MOL   C14447268   7.050   5.359   1.440  0.8227 -0.4087  0.0043
  103MOL   O14547269   7.128   5.389   1.525  0.2691  0.4803  0.3723
  103MOL   C14647270   7.019   5.223   1.405 -0.4543 -0.1147 -0.0318
  103MOL   C14747271   6.973   5.197   1.275  0.2104  0.0444  0.0282
  103MOL   C14847272   6.946   5.065   1.234 -1.3234 -0.1134 -0.1958
  103MOL   C14947273   6.969   4.954   1.320 -0.4146 -0.8517 -0.5476
  103MOL   C15047274   6.943   4.821   1.273 -0.1212  0.4744  0.1149
  103MOL   O15147275   6.915   4.728   1.353  0.2875  0.0897 -0.0022
  103MOL   O15247276   6.945   4.805   1.137  0.3606  0.2165 -0.8477
  103MOL   C15347277   7.010   4.985   1.451 -0.1079  0.6378  0.3089
  103MOL   C15447278   7.031   5.114   1.493 -0.1105  0.1748  0.3276
  103MOL   H15547279   6.961   5.765   1.264 -3.2816 -1.5238  0.1652
  103MOL   H15647280   6.893   5.626   1.193 -0.4508 -0.3171 -0.5333
  103MOL   H15747281   6.988   5.647   1.435  0.1280 -0.9602  0.3044
  103MOL   H15847282   7.142   5.597   1.362 -0.1064 -1.4020 -0.1991
  103MOL   H15947283   6.956   5.264   1.192 -0.2543 -2.2867 -1.8468
  103MOL   H16047284   6.905   5.049   1.135  1.3898  2.0731 -1.7524
  103MOL   H16147285   7.034   4.909   1.525 -0.3686  1.8667  1.6836
  103MOL   H16247286   7.065   5.125   1.595  0.1019 -1.1891  0.4178
  103MOL   O16347287   6.908   4.664   1.096  0.2315 -0.2676 -0.2701
  103MOL   C16447288   7.027   4.595   1.052  0.4589  0.0104  0.7055
  103MOL   C16547289   7.151   4.589   1.148 -0.6795  0.3854 -0.2928
  103MOL   O16647290   7.213   4.723   1.146  0.0135 -0.5268 -0.0187
  103MOL   C16747291   7.343   4.737   1.114  0.4020 -0.3701 -0.1023
  103MOL   O16847292   7.410   4.649   1.050  0.3711 -0.2757  0.1725
  103MOL   C16947293   7.400   4.863   1.161  0.9003  0.0152 -0.5278
  103MOL   C17047294   7.322   4.967   1.209  0.3539  0.4580 -0.3394
  103MOL   C17147295   7.376   5.092   1.245 -0.3809 -0.1026  0.5962
  103MOL   C17247296   7.518   5.115   1.229 -0.4291  0.2058 -0.5157
  103MOL   C17347297   7.574   5.244   1.269 -0.3932 -0.6244 -0.6492
  103MOL   O17447298   7.695   5.263   1.280  0.1181 -0.0368 -0.0176
  103MOL   O17547299   7.478   5.348   1.283 -0.4686  0.5156 -0.1185
  103MOL   C17647300   7.600   5.008   1.183 -0.2898 -0.1977  0.4034
  103MOL   C17747301   7.537   4.891   1.141  0.5275  0.0057  0.0454
  103MOL   H17847302   6.991   4.498   1.018  3.9272 -0.4865 -1.8489
  103MOL   H17947303   7.064   4.644   0.961  3.1749 -1.8610  0.7553
  103MOL   H18047304   7.221   4.509   1.124 -1.6451 -1.0886  1.6424
  103MOL   H18147305   7.115   4.579   1.250 -0.1304 -0.6827 -0.1933
  103MOL   H18247306   7.216   4.958   1.227  0.4114  0.4227 -0.0049
  103MOL   H18347307   7.306   5.170   1.272 -2.1657 -0.4114 -2.7870
  103MOL   H18447308   7.706   5.012   1.162 -0.0984 -2.0360  0.9700
  103MOL   H18547309   7.596   4.816   1.092  0.8841  0.7817 -0.7194
  103MOL   O18647310   7.541   5.478   1.340 -0.1302 -0.2629  0.1820
  103MOL   C18747311   7.440   5.557   1.406  0.5398 -0.4047 -0.4089
  103MOL   C18847312   7.505   5.684   1.465 -0.1441  0.1401  0.0746
  103MOL   O18947313   7.553   5.770   1.360 -0.5014 -0.2925  0.2119
  103MOL   C19047314   7.465   5.849   1.287 -0.5551  0.4292 -0.1653
  103MOL   O19147315   7.344   5.846   1.318  0.1062  0.5390  0.3981
  103MOL   C19247316   7.533   5.934   1.182  0.2672 -0.2189 -0.4484
  103MOL   C19347317   7.674   5.958   1.182 -0.2353  0.2429 -0.6097
  103MOL   C19447318   7.730   6.034   1.087  0.8525 -0.1934 -0.4399
  103MOL   C19547319   7.656   6.098   0.989  0.0540 -0.0750  0.2402
  103MOL   C19647320   7.717   6.201   0.908 -0.3152  0.0976  0.0133
  103MOL   O19747321   7.840   6.216   0.916  0.3308 -0.6281  0.5377
  103MOL   O19847322   7.632   6.278   0.831 -0.0121  0.0211 -0.5954
  103MOL   C19947323   7.517   6.067   0.978  0.6512 -0.9960 -0.3216
  103MOL   C20047324   7.458   6.003   1.084 -0.3748  0.2092  0.4076
  103MOL   H20147325   7.352   5.573   1.343  1.1268  1.6645 -0.7362
  103MOL   H20247326   7.399   5.494   1.486  0.1373 -2.4429 -2.1614
  103MOL   H20347327   7.584   5.674   1.540  0.4950  1.5077 -0.4001
  103MOL   H20447328   7.428   5.734   1.523  0.7785  1.0302  0.5367
  103MOL   H20547329   7.732   5.906   1.258 -0.9262 -1.3926 -1.1857
  103MOL   H20647330   7.833   6.061   1.105  0.9372 -0.5018 -0.4558
  103MOL   H20747331   7.457   6.109   0.898  0.1676  1.3725  1.2355
  103MOL   H20847332   7.351   5.992   1.093 -0.3457 -1.1716 -0.6892
  103MOL   O20947333   7.700   6.369   0.738  0.4690  0.0449 -0.1585
  103MOL   C21047334   7.690   6.501   0.791  1.0798 -0.0670  0.3895
  103MOL   C21147335   7.671   6.598   0.673  0.4631  0.2963  0.2718
  103MOL   O21247336   7.541   6.589   0.633  0.1208 -0.9560  0.0182
  103MOL   C21347337   7.498   6.520   0.528 -0.2665  0.2760  0.0083
  103MOL   O21447338   7.572   6.481   0.436 -0.0125 -0.7930 -1.1300
  103MOL   C21547339   7.350   6.533   0.502 -0.5874  0.2722  0.2887
  103MOL   C21647340   7.288   6.501   0.378 -0.0234 -0.2976 -0.2236
  103MOL   C21747341   7.153   6.497   0.362  0.0268 -0.2881 -0.1803
  103MOL   C21847342   7.071   6.535   0.471 -0.3646 -0.3360  0.7300
  103MOL   C21947343   6.928   6.530   0.444  0.0557  0.2690 -0.3284
  103MOL   O22047344   6.870   6.473   0.354  0.3759 -0.5931  0.1093
  103MOL   O22147345   6.859   6.603   0.541 -0.4906  0.3886  0.0450
  103MOL   C22247346   7.125   6.582   0.594  0.9942  0.0120 -0.7704
  103MOL   C22347347   7.265   6.580   0.606  0.4655 -0.3200 -0.2113
  103MOL   H22447348   7.614   6.524   0.865  0.7429  0.9800 -0.2625
  103MOL   H22547349   7.782   6.525   0.844  0.8072  1.0212  0.3931
  103MOL   H22647350   7.748   6.592   0.596  1.1131  2.6434  0.6964
  103MOL   H22747351   7.691   6.697   0.714  0.5559  1.0761 -1.6041
  103MOL   H22847352   7.342   6.459   0.295  0.0035  1.0546 -0.9046
  103MOL   H22947353   7.111   6.453   0.273 -2.6406  2.3851 -0.3344
  103MOL   H23047354   7.059   6.609   0.676  0.7400 -0.7918 -0.7075
  103MOL   H23147355   7.302   6.607   0.704  1.3635 -3.4066  0.3536
  103MOL   O23247356   6.713   6.589   0.529  0.2719 -0.3423 -0.2073
  103MOL   C23347357   6.668   6.546   0.648 -0.0051  1.2601 -0.1448
  103MOL   C23447358   6.520   6.588   0.675  0.1381 -0.1043 -0.4340
  103MOL   O23547359   6.490   6.511   0.794  0.6861  0.2972  0.2939
  103MOL   C23647360   6.526   6.554   0.908 -0.0636 -0.1748 -0.8216
  103MOL   O23747361   6.587   6.659   0.926 -0.0494  0.3859 -0.0412
  103MOL   C23847362   6.491   6.455   1.016  0.2853 -0.0210 -0.0632
  103MOL   C23947363   6.371   6.380   0.999 -0.2516 -0.5791 -0.5308
  103MOL   C24047364   6.323   6.298   1.106 -0.5986  0.6937  0.2695
  103MOL   C24147365   6.392   6.284   1.226 -0.5471  0.1275  0.0953
  103MOL   C24247366   6.344   6.198   1.335  0.8391 -0.0680  0.1206
  103MOL   O24347367   6.390   6.193   1.449 -0.2225 -0.1174  0.6656
  103MOL   O24447368   6.232   6.125   1.300 -0.2060 -0.0613  0.0294
  103MOL   C24547369   6.509   6.364   1.242 -0.6882  0.2702  0.4949
  103MOL   C24647370   6.559   6.447   1.137 -0.0836  0.3032  0.3225
  103MOL   H24747371   6.678   6.438   0.645 -0.4093  1.2545 -2.0030
  103MOL   H24847372   6.732   6.577   0.731  0.6036  1.0391 -0.5294
  103MOL   H24947373   6.444   6.562   0.602 -1.1550 -1.5237  1.3611
  103MOL   H25047374   6.518   6.697   0.681 -0.4012 -0.2391  2.5735
  103MOL   H25147375   6.312   6.391   0.909  0.8520 -1.1963 -1.3395
  103MOL   H25247376   6.238   6.234   1.092 -0.1937 -0.0169  1.0333
  103MOL   H25347377   6.557   6.363   1.339  2.0235 -0.9050 -0.7948
  103MOL   H25447378   6.654   6.498   1.139 -0.0056  0.1098  2.7567
  103MOL   O25547379   6.177   6.043   1.409  0.3492  0.0560  0.3105
  103MOL   C25647380   6.052   6.102   1.450  0.1183  0.3470 -0.5862
  103MOL   C25747381   5.957   6.104   1.331  0.5045  0.9257 -0.1553
  103MOL   O25847382   5.832   6.144   1.378 -0.0609 -0.0420 -0.3151
  103MOL   C25947383   5.732   6.061   1.390 -0.5411 -0.7114  0.0896
  103MOL   O26047384   5.745   5.950   1.356 -0.0407 -0.5000  0.0149
  103MOL   C26147385   5.602   6.110   1.452  0.2515 -0.1807 -0.4181
  103MOL   C26247386   5.591   6.247   1.490 -0.2707  0.4458  0.0005
  103MOL   C26347387   5.470   6.288   1.538  0.2325  0.0947  0.2745
  103MOL   C26447388   5.355   6.199   1.549  0.1804  0.0633 -0.0536
  103MOL   C26547389   5.217   6.260   1.562  0.0182 -0.0194  0.1501
  103MOL   O26647390   5.200   6.370   1.619  0.3361  0.0622 -0.0123
  103MOL   O26747391   5.118   6.174   1.536  0.3967  0.2114  0.5804
  103MOL   C26847392   5.375   6.057   1.531  0.2068  0.0019 -0.1678
  103MOL   C26947393   5.500   6.015   1.478 -0.4901  0.0990  0.5912
  103MOL   H27047394   6.009   6.040   1.529  0.8783 -1.9246 -1.9205
  103MOL   H27147395   6.059   6.201   1.496 -1.6998  0.2621 -0.1011
  103MOL   H27247396   5.948   6.005   1.285  2.3717  1.1690 -1.0770
  103MOL   H27347397   5.998   6.168   1.253  1.8883  0.8636  0.5141
  103MOL   H27447398   5.678   6.312   1.498 -2.0812  2.7970  1.2164
  103MOL   H27547399   5.458   6.393   1.563  0.3483  0.1609  0.0504
  103MOL   H27647400   5.288   5.994   1.547  1.0765 -1.4753 -1.1252
  103MOL   H27747401   5.516   5.910   1.460  0.9760  0.4448 -0.1327
  103MOL   O27847402   4.982   6.246   1.535  0.1835  0.6382  0.6489
  103MOL   C27947403   4.910   6.213   1.647  0.5052 -0.0409  0.0751
  103MOL   C28047404   4.791   6.118   1.616  0.5988 -0.3362  0.3903
  103MOL   O28147405   4.675   6.198   1.571 -1.0081 -0.0806 -0.5548
  103MOL   C28247406   4.575   6.141   1.505 -0.4212 -0.0619  0.1053
  103MOL   O28347407   4.566   6.023   1.484 -0.3372 -0.0160  0.2351
  103MOL   C28447408   4.476   6.241   1.454 -0.1949 -0.1183  0.2457
  103MOL   C28547409   4.498   6.382   1.467 -0.0532  0.4831  0.1894
  103MOL   C28647410   4.410   6.480   1.409 -0.0401 -0.1903 -0.8584
  103MOL   C28747411   4.294   6.434   1.348 -0.0038  0.2211 -0.6649
  103MOL   C28847412   4.197   6.538   1.296  0.0865 -0.2054 -0.4314
  103MOL   O28947413   4.219   6.661   1.310 -0.3947  0.2303 -0.1273
  103MOL   O29047414   4.101   6.476   1.228  0.1647 -0.5879 -0.6367
  103MOL   C29147415   4.277   6.294   1.329 -0.3174 -0.9039  0.1203
  103MOL   C29247416   4.360   6.198   1.387  0.2839  0.1997 -1.0252
  103MOL   H29347417   4.971   6.155   1.717  0.7619  1.2108  0.9011
  103MOL   H29447418   4.877   6.301   1.701 -2.4028 -1.3214  0.4782
  103MOL   H29547419   4.786   6.052   1.702 -1.4016 -1.9636 -0.9355
  103MOL   H29647420   4.814   6.049   1.534 -0.0901 -0.9042  0.6699
  103MOL   H29747421   4.584   6.420   1.520  0.3505 -1.1573  0.7244
  103MOL   H29847422   4.426   6.587   1.413 -1.3250  0.0448 -1.6422
  103MOL   H29947423   4.186   6.257   1.283  0.5374 -1.2335 -1.3577
  103MOL   H30047424   4.330   6.095   1.377 -2.0630  0.6432  0.9602
  103MOL   O30147425   4.005   6.555   1.150 -0.3437 -0.3789  0.2018
  103MOL   C30247426   4.064   6.581   1.017  0.2330 -0.4380 -0.1546
  103MOL   C30347427   3.982   6.688   0.933  0.3200  0.5009  0.0551
  103MOL   O30447428   3.933   6.625   0.814  0.0779 -1.1523  0.6780
  103MOL   C30547429   3.789   6.615   0.801 -0.5681 -0.1831 -0.7929
  103MOL   O30647430   3.710   6.660   0.884 -1.1248  0.1827  0.0574
  103MOL   C30747431   3.749   6.569   0.668 -0.6709  0.1104  0.1901
  103MOL   C30847432   3.611   6.559   0.647  0.1599 -0.0767  0.4719
  103MOL   C30947433   3.558   6.529   0.521  1.0105  0.1467  0.1903
  103MOL   C31047434   3.645   6.502   0.416 -0.0185 -0.0222  0.1589
  103MOL   C31147435   3.580   6.469   0.285 -0.0251  0.2169 -0.2793
  103MOL   O31247436   3.467   6.513   0.253 -0.3942  0.5776 -0.3106
  103MOL   O31347437   3.657   6.403   0.194  0.2279 -0.4872 -0.7090
  103MOL   C31447438   3.785   6.511   0.434  0.6358  0.4517  0.8364
  103MOL   C31547439   3.837   6.546   0.558 -0.2437  0.8349 -0.0780
  103MOL   H31647440   4.168   6.610   1.027 -0.0474 -0.1638  2.3215
  103MOL   H31747441   4.075   6.486   0.966 -0.2492  0.1200 -1.3296
  103MOL   H31847442   4.045   6.775   0.914 -1.6062  1.7933 -0.4664
  103MOL   H31947443   3.911   6.737   0.999  1.9796  0.4108  1.9466
  103MOL   H32047444   3.540   6.583   0.725  1.9327 -0.1652  2.1425
  103MOL   H32147445   3.452   6.520   0.503  1.2237  0.9391 -1.4686
  103MOL   H32247446   3.857   6.486   0.357 -1.3355 -0.0427 -0.8983
  103MOL   H32347447   3.944   6.549   0.578 -0.0086  1.6615 -1.4092
  103MOL   O32447448   3.587   6.392   0.060  0.0686 -0.0725  0.2196
  103MOL   C32547449   3.536   6.261   0.047 -0.2718  0.2375  0.1431
  103MOL   C32647450   3.420   6.248   8.218 -0.1628  0.5920 -0.2040
  103MOL   O32747451   3.482   6.219   8.096  0.3306  0.1809  0.1860
  103MOL   C32847452   3.405   6.178   7.996  0.1675  0.2866 -0.5091
  103MOL   O32947453   3.284   6.180   7.989  0.4691  0.3504 -0.2558
  103MOL   C33047454   3.491   6.133   7.876  0.2828 -0.3529 -0.0007
  103MOL   C33147455   3.627   6.091   7.885  0.4213  0.3768 -0.9370
  103MOL   C33247456   3.702   6.059   7.772 -0.0632 -0.5106  0.2718
  103MOL   C33347457   3.642   6.038   7.645 -0.4207  0.4658 -0.5636
  103MOL   C33447458   3.716   5.996   7.524  0.2759  0.6138  0.3966
  103MOL   O33547459   3.667   6.007   7.410 -0.0873 -0.1638  0.5381
  103MOL   O33647460   3.835   5.940   7.552 -0.6908 -0.0561  0.1037
  103MOL   C33747461   3.506   6.072   7.640 -0.4794 -0.5812  0.5482
  103MOL   C33847462   3.435   6.130   7.749  0.5495 -0.5597 -0.2542
  103MOL   H33947463   3.617   6.190   0.029 -0.8058  0.3577 -2.9059
  103MOL   H34047464   3.497   6.233   0.145  0.6837  0.7457  0.6685
  103MOL   H34147465   3.351   6.332   8.211  1.8514  2.4193  1.2364
  103MOL   H34247466   3.349   6.168   8.241 -1.7165  1.9074 -0.3605
  103MOL   H34347467   3.676   6.100   7.981 -0.1861  2.1276 -0.7721
  103MOL   H34447468   3.806   6.029   7.781 -0.2865 -1.1834  0.6343
  103MOL   H34547469   3.451   6.047   7.550  0.8157 -1.3165 -0.0550
  103MOL   H34647470   3.331   6.156   7.743  0.7718 -0.1521 -3.0974
  103MOL   O34747471   3.906   5.883   7.438  0.8541  0.3748 -0.2075
  103MOL   C34847472   3.889   5.741   7.428 -0.3845 -0.1619  0.2286
  103MOL   C34947473   3.944   5.661   7.545  0.1319  0.2729 -0.3450
  103MOL   O35047474   4.087   5.632   7.534 -0.3628 -0.1156  0.3677
  103MOL   C35147475   4.130   5.549   7.441 -0.5703  0.1131 -0.4131
  103MOL   O35247476   4.059   5.491   7.360 -0.0700  0.1517  0.1547
  103MOL   C35347477   4.284   5.532   7.452 -0.1133  0.0230  0.2374
  103MOL   C35447478   4.351   5.506   7.330  0.4971 -0.4637 -0.7069
  103MOL   C35547479   4.490   5.505   7.328  0.3782  0.2010 -0.0327
  103MOL   C35647480   4.565   5.525   7.444 -0.4836  0.6108 -0.7406
  103MOL   C35747481   4.711   5.504   7.428  0.2712  0.2919 -0.4476
  103MOL   O35847482   4.763   5.458   7.327  0.1087 -0.2660  0.4377
  103MOL   O35947483   4.782   5.558   7.533 -0.0998  0.5516  0.6102
  103MOL   C36047484   4.499   5.560   7.564 -0.2257  0.1467  0.7642
  103MOL   C36147485   4.360   5.552   7.569  0.4240 -0.4503  0.3264
  103MOL   H36247486   3.782   5.723   7.414 -0.0937 -0.4104 -1.7884
  103MOL   H36347487   3.938   5.711   7.336  1.4556  1.8456  0.5245
  103MOL   H36447488   3.895   5.564   7.547  0.0887  0.3063  0.2003
  103MOL   H36547489   3.925   5.703   7.644 -0.3662  1.6241 -0.9969
  103MOL   H36647490   4.306   5.491   7.232 -1.9442  0.7344  0.1749
  103MOL   H36747491   4.550   5.500   7.239 -0.7851  0.4687 -0.8396
  103MOL   H36847492   4.551   5.576   7.657  1.3037  1.2065 -0.2489
  103MOL   H36947493   4.316   5.578   7.664  0.7449  3.1937 -0.4461
  103MOL   O37047494   4.927   5.568   7.514  0.0406 -0.5841 -0.1804
  103MOL   C37147495   4.958   5.709   7.512  0.2964 -0.4867  0.1712
  103MOL   C37247496   5.093   5.735   7.453  0.5619 -0.9031 -0.4525
  103MOL   O37347497   5.204   5.761   7.539 -0.1344  0.2751 -0.3848
  103MOL   C37447498   5.198   5.867   7.626 -0.5122  0.1370  0.3611
  103MOL   O37547499   5.103   5.947   7.625 -0.1384 -0.3999  0.0481
  103MOL   C37647500   5.324   5.883   7.706 -1.1334 -0.2897 -0.5622
  103MOL   C37747501   5.448   5.822   7.670 -0.7174 -0.5712 -0.1607
  103MOL   C37847502   5.567   5.848   7.746  0.4599  0.2034 -1.0009
  103MOL   C37947503   5.563   5.935   7.861 -0.3127  0.0342  0.1303
  103MOL   C38047504   5.695   5.967   7.922 -0.0060 -0.2999  0.4283
  103MOL   O38147505   5.799   5.894   7.931 -0.5507  0.0446 -0.1531
  103MOL   O38247506   5.689   6.099   7.956  0.0638 -0.2750 -0.2300
  103MOL   C38347507   5.439   5.983   7.909  0.1319  0.7989  0.3041
  103MOL   C38447508   5.328   5.968   7.820 -0.4581  0.0517  0.2001
  103MOL   H38547509   4.883   5.747   7.443 -1.2026 -0.1294  1.9715
  103MOL   H38647510   4.945   5.752   7.611  2.2127  1.9632 -0.6028
  103MOL   H38747511   5.083   5.833   7.405 -1.6818 -1.4145 -1.1120
  103MOL   H38847512   5.129   5.668   7.375  4.8208  1.3031 -0.5231
  103MOL   H38947513   5.458   5.760   7.583  0.9357  0.6543 -0.8671
  103MOL   H39047514   5.666   5.813   7.722  0.6627 -0.8113  1.2065
  103MOL   H39147515   5.430   6.036   8.003  1.8008  3.3361 -0.9032
  103MOL   H39247516   5.236   6.019   7.847 -0.9412 -0.2325 -0.8643
  103MOL   O39347517   5.824   6.156   7.992  0.4175 -0.1989  0.5733
  103MOL   C39447518   5.858   6.251   7.884  0.3033 -0.6186  0.9316
  103MOL   C39547519   5.750   6.371   7.888  0.1101  0.1242 -0.4786
  103MOL   O39647520   5.644   6.339   7.797 -0.1499 -0.6790 -0.1152
  103MOL   C39747521   5.510   6.366   7.832  0.4098  0.3823 -0.5575
  103MOL   O39847522   5.478   6.418   7.938  0.7318 -0.5485 -0.0102
  103MOL   C39947523   5.409   6.322   7.733 -0.0326 -0.1945  0.8613
  103MOL   C40047524   5.450   6.260   7.613  0.3273 -0.2420 -0.1759
  103MOL   C40147525   5.360   6.214   7.514  0.0234 -0.2260 -0.7127
  103MOL   C40247526   5.222   6.229   7.536 -0.8118 -1.1120 -0.9285
  103MOL   C40347527   5.125   6.185   7.434  0.0142  0.0108 -0.5339
  103MOL   O40447528   5.007   6.227   7.435 -0.1643  0.0908 -0.0364
  103MOL   O40547529   5.168   6.102   7.343  0.2535 -0.2339 -0.2122
  103MOL   C40647530   5.180   6.285   7.658  0.6322  0.5364  0.6957
  103MOL   C40747531   5.272   6.332   7.755 -0.4359  0.3622  0.1440
  103MOL   H40847532   5.952   6.302   7.903 -0.4054  0.1020  2.5896
  103MOL   H40947533   5.865   6.217   7.781 -2.2483  0.5834  0.3090
  103MOL   H41047534   5.794   6.464   7.853  2.4339 -0.8405 -0.1905
  103MOL   H41147535   5.724   6.386   7.993 -0.5023  1.6933 -0.8458
  103MOL   H41247536   5.556   6.245   7.607  0.6878  1.9675  0.5412
  103MOL   H41347537   5.396   6.167   7.424 -0.9881  0.2744 -1.3839
  103MOL   H41447538   5.075   6.304   7.674  0.4764 -0.8348  1.4445
  103MOL   H41547539   5.237   6.383   7.844 -1.0271 -1.7533  1.1642
  103MOL   O41647540   5.067   6.069   7.237 -0.1042  0.3161 -0.4179
  103MOL   C41747541   5.101   6.126   7.111  0.0284  0.8183 -0.5796
  103MOL   C41847542   5.225   6.044   7.061  0.0958 -0.0421 -0.3227
  103MOL   O41947543   5.201   5.904   7.074  0.0626 -0.0828 -0.2576
  103MOL   C42047544   5.229   5.819   6.975 -0.4497  0.3220 -0.1088
  103MOL   O42147545   5.316   5.839   6.885  0.2533  0.0459 -0.2936
  103MOL   C42247546   5.158   5.696   6.991 -0.1232  0.5611 -0.0356
  103MOL   C42347547   5.185   5.587   6.903 -0.3627  1.1059  0.0182
  103MOL   C42447548   5.113   5.470   6.915 -0.1748  0.0576  0.4087
  103MOL   C42547549   5.007   5.460   7.005  0.2900 -0.6662  0.6364
  103MOL   C42647550   4.931   5.331   6.994  0.2090  0.2989  0.8313
  103MOL   O42747551   4.985   5.223   6.966 -0.0742 -0.2747 -0.0771
  103MOL   O42847552   4.802   5.351   7.010  0.4652  0.5666  0.0865
  103MOL   C42947553   4.968   5.566   7.090 -0.4162 -0.0612  0.5173
  103MOL   C43047554   5.043   5.683   7.076  0.0378 -0.4349 -0.6271
  103MOL   H43147555   5.021   6.124   7.037 -1.9103 -1.3848  1.4512
  103MOL   H43247556   5.126   6.231   7.127  1.1647  0.2831  1.3425
  103MOL   H43347557   5.314   6.070   7.118  1.4607 -1.6052 -1.6842
  103MOL   H43447558   5.239   6.068   6.955  0.2016 -1.5889 -0.6675
  103MOL   H43547559   5.259   5.588   6.825  1.0414  2.8097  1.3203
  103MOL   H43647560   5.133   5.381   6.858 -2.0328 -0.3919  0.4265
  103MOL   H43747561   4.880   5.568   7.153  0.4913 -0.8549  1.8282
  103MOL   H43847562   5.016   5.767   7.139  1.2175 -0.9849  0.6524
  103MOL   O43947563   4.719   5.222   7.008 -0.4062 -0.3178  0.5643
  103MOL   C44047564   4.691   5.175   7.136 -0.2835 -0.3930  0.2479
  103MOL   C44147565   4.604   5.041   7.122 -0.7234  0.5874 -0.5806
  103MOL   O44247566   4.680   4.936   7.065 -0.4306 -1.1918 -0.1650
  103MOL   C44347567   4.779   4.871   7.138  0.4628 -0.4141 -0.2744
  103MOL   O44447568   4.787   4.892   7.258  0.0203 -0.2655  0.5579
  103MOL   C44547569   4.866   4.788   7.056 -0.4697 -0.0864 -0.5163
  103MOL   C44647570   4.827   4.739   6.930  0.6755  1.0130 -0.1192
  103MOL   C44747571   4.910   4.646   6.866 -0.3489  0.2297 -0.3758
  103MOL   C44847572   5.032   4.600   6.919  0.5353  0.0340  0.6235
  103MOL   C44947573   5.119   4.501   6.845  0.6986 -0.0029 -0.0230
  103MOL   O45047574   5.087   4.466   6.733  0.4970  0.4003  0.3247
  103MOL   O45147575   5.218   4.444   6.917  0.5449  0.2979  0.2221
  103MOL   C45247576   5.075   4.656   7.042 -0.0716 -0.0775  0.2322
  103MOL   C45347577   4.992   4.748   7.111  0.4476 -0.5084  0.3245
  103MOL   H45447578   4.783   5.152   7.191 -1.1998 -3.5336  0.5760
  103MOL   H45547579   4.627   5.246   7.188 -1.7835 -0.2534 -1.7485
  103MOL   H45647580   4.518   5.059   7.057 -0.9781 -1.8144 -0.9365
  103MOL   H45747581   4.554   5.005   7.212 -0.1053  2.8993  0.7449
  103MOL   H45847582   4.725   4.747   6.896 -0.3432  0.5668  2.6955
  103MOL   H45947583   4.868   4.592   6.782 -2.5462 -3.3174  2.8122
  103MOL   H46047584   5.170   4.628   7.082 -0.2926 -0.4466  0.4997
  103MOL   H46147585   5.023   4.789   7.206 -0.4365 -0.9187  0.7928
  103MOL   H46247586   5.249   4.380   6.855 -1.5214  0.6042 -1.1784
  104MOL     O147587   5.262   6.866   0.440 -0.0625  0.0264 -0.1976
  104MOL     C247588   5.133   6.932   0.447  0.2403  0.4153  0.3739
  104MOL     C347589   5.064   6.837   0.545  0.2818  0.7077 -0.2415
  104MOL     O447590   5.030   6.709   0.480 -0.6060  0.4967 -0.1837
  104MOL     C547591   4.931   6.690   0.384 -0.1486 -0.0746  0.1097
  104MOL     O647592   4.860   6.783   0.348 -0.3059 -0.0138 -0.4022
  104MOL     C747593   4.910   6.546   0.343  0.2551  0.2092  0.3363
  104MOL     C847594   4.800   6.515   0.259 -0.5546 -0.1240  1.0554
  104MOL     C947595   4.791   6.383   0.209 -0.2148 -0.4545 -0.3499
  104MOL    C1047596   4.900   6.288   0.231  0.9730 -0.5432  0.0255
  104MOL    C1147597   4.884   6.149   0.174  0.0295 -0.4452 -0.0980
  104MOL    O1247598   4.794   6.122   0.090 -0.5159  0.0546 -0.0539
  104MOL    O1347599   4.953   6.048   0.230  0.0580  0.1624  0.6209
  104MOL    C1447600   5.001   6.322   0.315  0.0343  0.1978 -0.2109
  104MOL    C1547601   5.012   6.449   0.368  1.1808  0.5017  0.0763
  104MOL    H1647602   5.136   7.029   0.498  1.5388  0.0557  1.0037
  104MOL    H1747603   5.091   6.942   0.347  0.4535  1.6764  0.3955
  104MOL    H1847604   4.970   6.885   0.570  0.0383  1.1357 -1.9605
  104MOL    H1947605   5.116   6.819   0.639 -0.5691 -1.6415 -0.1896
  104MOL    H2047606   4.742   6.596   0.219 -2.6785 -0.9200  2.3937
  104MOL    H2147607   4.704   6.358   0.150 -1.6146 -0.2116  1.5746
  104MOL    H2247608   5.077   6.253   0.347 -1.0043 -1.4071 -1.0967
  104MOL    H2347609   5.100   6.478   0.423  0.2930 -1.3033  2.5133
  104MOL    H2447610   5.298   6.870   0.527  2.8209 -1.5167 -1.2638
  104MOL    O2547611   4.956   5.924   0.145 -0.2966  0.0889 -0.1804
  104MOL    C2647612   4.867   5.827   0.199 -0.2318 -0.0146  0.7559
  104MOL    C2747613   4.889   5.705   0.110 -0.5076 -0.6539  0.4877
  104MOL    O2847614   4.790   5.706   0.013  0.3291 -1.0771  0.0239
  104MOL    C2947615   4.763   5.594   8.221 -0.2291  0.1390 -0.2912
  104MOL    O3047616   4.849   5.500   8.215  0.0650  0.3316  0.3174
  104MOL    C3147617   4.630   5.585   8.160  0.1716  0.1104  0.4657
  104MOL    C3247618   4.538   5.695   8.167  0.1119  0.7238  0.2031
  104MOL    C3347619   4.409   5.681   8.132 -0.3886  0.0877 -0.1056
  104MOL    C3447620   4.369   5.560   8.064  0.4431 -0.1575 -0.0347
  104MOL    C3547621   4.230   5.550   8.023 -0.1169  0.0356 -0.5587
  104MOL    O3647622   4.143   5.620   8.083  0.2957 -1.1047  0.3653
  104MOL    O3747623   4.197   5.457   7.932 -0.3778 -0.2624  0.1715
  104MOL    C3847624   4.459   5.454   8.059 -0.2086 -0.5434 -0.3367
  104MOL    C3947625   4.590   5.462   8.111 -0.1747 -0.7397  0.4607
  104MOL    H4047626   4.878   5.818   0.307 -1.0081  0.9092  0.9191
  104MOL    H4147627   4.762   5.856   0.197  0.1057  1.1802 -2.0688
  104MOL    H4247628   4.889   5.612   0.167 -0.4362 -1.4168 -0.7267
  104MOL    H4347629   4.988   5.715   0.064 -0.3478 -0.7922  0.8033
  104MOL    H4447630   4.569   5.784   8.221  1.4350 -0.5374  1.5838
  104MOL    H4547631   4.340   5.764   8.140  1.4169  1.3758  2.6210
  104MOL    H4647632   4.424   5.359   8.021  0.1012 -0.1114 -1.6986
  104MOL    H4747633   4.655   5.376   8.112  1.1535  0.2275  2.1756
  104MOL    O4847634   4.050   5.419   7.942  0.1247  0.0282  0.7296
  104MOL    C4947635   3.981   5.463   7.823 -0.1290  0.2299 -0.3947
  104MOL    C5047636   3.836   5.433   7.833 -0.3526  0.2582 -0.6808
  104MOL    O5147637   3.763   5.494   7.945  0.2545 -0.2960  0.0367
  104MOL    C5247638   3.754   5.627   7.951 -0.2740  0.6241  0.9178
  104MOL    O5347639   3.799   5.703   7.864  0.0017 -0.1474 -0.0190
  104MOL    C5447640   3.684   5.673   8.070  0.4849 -0.1912  0.3019
  104MOL    C5547641   3.586   5.602   8.145  0.1611  0.1002 -0.1497
  104MOL    C5647642   3.515   5.667   8.247  0.0608  0.1493 -0.0799
  104MOL    C5747643   3.542   5.799   0.004 -0.0481  0.4066 -0.0451
  104MOL    C5847644   3.468   5.874   0.109  0.3624  0.4406  0.6349
  104MOL    O5947645   3.521   5.968   0.161  0.7424  0.1054 -0.2054
  104MOL    O6047646   3.344   5.828   0.124 -0.2597 -0.1132 -0.2058
  104MOL    C6147647   3.649   5.870   8.217 -0.5887 -0.4704 -0.2091
  104MOL    C6247648   3.720   5.806   8.112 -0.7850  0.0068 -0.5217
  104MOL    H6347649   4.012   5.562   7.788  2.5269 -0.1665  0.6779
  104MOL    H6447650   4.027   5.407   7.741  2.0792  1.5557 -0.1204
  104MOL    H6547651   3.825   5.327   7.854 -0.1284  0.5797  1.1981
  104MOL    H6647652   3.779   5.465   7.746 -1.0225  0.8600 -0.0198
  104MOL    H6747653   3.551   5.501   8.135 -1.2896  0.5811  0.0386
  104MOL    H6847654   3.434   5.621   0.026 -1.2483  1.8069 -0.6026
  104MOL    H6947655   3.674   5.971   8.244  0.3032 -0.5483 -0.7292
  104MOL    H7047656   3.801   5.852   8.058 -2.0875 -0.1736 -2.6689
  104MOL    O7147657   3.260   5.912   0.220 -0.6756 -0.4460  0.2787
  104MOL    C7247658   3.159   5.971   0.144 -0.5976  0.8853 -0.0514
  104MOL    C7347659   3.103   6.088   0.224 -0.2589  0.2831 -0.0373
  104MOL    O7447660   3.004   6.059   0.319  0.1265  0.1203 -0.4201
  104MOL    C7547661   2.880   6.020   0.292  0.1376  0.7659  0.7043
  104MOL    O7647662   2.835   6.000   0.177 -0.0119 -0.1351 -0.1067
  104MOL    C7747663   2.801   6.011   0.417 -0.2730 -0.0856  0.6566
  104MOL    C7847664   2.864   6.018   0.545 -0.0948  0.9772 -0.0027
  104MOL    C7947665   2.789   5.986   0.659  0.5716 -0.5740  0.0619
  104MOL    C8047666   2.647   5.969   0.657 -0.4758 -0.5329  0.2299
  104MOL    C8147667   2.571   5.946   0.781 -0.1236 -0.0340  0.0586
  104MOL    O8247668   2.620   5.914   0.891  0.2150  0.3821 -0.2026
  104MOL    O8347669   2.435   5.960   0.760 -0.0643 -0.0913 -0.2314
  104MOL    C8447670   2.587   5.979   0.527 -0.5224  0.1747 -0.3429
  104MOL    C8547671   2.660   6.000   0.410 -0.0710  0.4658  0.4218
  104MOL    H8647672   3.199   6.022   0.056  0.7190  1.9011  1.1034
  104MOL    H8747673   3.082   5.904   0.105 -1.5538  2.0911 -0.2652
  104MOL    H8847674   3.056   6.149   0.147 -0.1612  0.9291  0.4078
  104MOL    H8947675   3.189   6.140   0.265  0.7634 -0.1144 -1.6503
  104MOL    H9047676   2.968   6.043   0.556  0.0208  0.9521 -0.9872
  104MOL    H9147677   2.837   6.002   0.754  1.0618  3.1261 -0.7440
  104MOL    H9247678   2.481   5.972   0.503 -0.5671 -0.8614  0.1326
  104MOL    H9347679   2.610   6.004   0.314  1.1298  0.6817 -0.2061
  104MOL    O9447680   2.349   5.915   0.880 -0.1932  0.0371 -0.1708
  104MOL    C9547681   2.303   6.034   0.945 -0.0332 -0.5054 -0.1421
  104MOL    C9647682   2.181   6.010   1.036 -0.7441 -0.8065 -0.1561
  104MOL    O9747683   2.215   5.954   1.162 -0.2766 -0.3341  0.7818
  104MOL    C9847684   2.239   6.030   1.276 -0.2294  0.5583  0.7780
  104MOL    O9947685   2.205   6.145   1.293 -0.3093  0.0771 -0.0379
  104MOL   C10047686   2.303   5.944   1.379 -0.8754 -0.4827 -0.2400
  104MOL   C10147687   2.331   6.003   1.504  0.2017 -0.5788 -0.4378
  104MOL   C10247688   2.381   5.929   1.609 -0.2266 -0.1529 -0.2784
  104MOL   C10347689   2.415   5.791   1.594  0.7729 -0.0005 -0.4418
  104MOL   C10447690   2.474   5.712   1.717 -0.2617 -0.8626  0.1276
  104MOL   O10547691   2.473   5.757   1.825 -0.1012 -0.2501  0.4662
  104MOL   O10647692   2.532   5.602   1.682 -0.2814 -0.0076  0.2013
  104MOL   C10747693   2.389   5.726   1.468 -0.0193  0.0897 -0.4316
  104MOL   C10847694   2.328   5.804   1.363  0.3722 -0.3749 -0.0352
  104MOL   H10947695   2.380   6.096   0.992  0.6673 -0.9515 -0.6849
  104MOL   H11047696   2.272   6.093   0.859  0.3366  0.7778  0.5799
  104MOL   H11147697   2.117   5.936   0.988 -0.4816 -0.3789 -1.1904
  104MOL   H11247698   2.135   6.106   1.057  1.3622 -0.1828  1.7751
  104MOL   H11347699   2.324   6.110   1.512  1.7819 -0.3284 -2.1628
  104MOL   H11447700   2.400   5.983   1.701 -0.3788 -0.6575  0.0571
  104MOL   H11547701   2.420   5.624   1.453  1.1869  0.3349  0.3514
  104MOL   H11647702   2.315   5.754   1.269 -0.2230 -1.1396  0.4465
  104MOL   O11747703   2.641   5.563   1.779  0.7931  0.3182  0.2440
  104MOL   C11847704   2.755   5.533   1.696  0.2861  0.1377 -0.5627
  104MOL   C11947705   2.888   5.529   1.775  0.3722  0.1027  1.0085
  104MOL   O12047706   2.987   5.587   1.695  0.2405  0.3631  0.1420
  104MOL   C12147707   3.025   5.521   1.583  0.2623  0.6312 -0.0888
  104MOL   O12247708   2.969   5.429   1.528  0.2286  0.1512  0.1181
  104MOL   C12347709   3.137   5.588   1.518 -0.4671  0.1022  0.9226
  104MOL   C12447710   3.188   5.552   1.388  0.2779  0.3976 -0.1530
  104MOL   C12547711   3.293   5.625   1.329  0.5497 -0.3202 -0.3972
  104MOL   C12647712   3.353   5.729   1.403  0.3703  0.1026 -0.7469
  104MOL   C12747713   3.459   5.796   1.330 -0.3749  0.5042 -0.0272
  104MOL   O12847714   3.485   5.778   1.213 -0.2452 -0.1567  0.4234
  104MOL   O12947715   3.526   5.874   1.408 -0.3484  0.1083  0.6541
  104MOL   C13047716   3.306   5.764   1.530 -0.5446 -0.2000 -0.3775
  104MOL   C13147717   3.200   5.693   1.585  0.6898  0.3385 -0.2017
  104MOL   H13247718   2.725   5.443   1.642 -0.3374  0.6705 -1.1278
  104MOL   H13347719   2.758   5.618   1.627  1.5237 -0.2246 -0.9632
  104MOL   H13447720   2.926   5.427   1.781 -0.5754 -0.1689  2.7235
  104MOL   H13547721   2.882   5.572   1.875  1.4135  3.2535 -0.1920
  104MOL   H13647722   3.135   5.474   1.335  1.4166 -1.0321  0.7970
  104MOL   H13747723   3.331   5.602   1.231 -0.9411 -1.5333 -0.7155
  104MOL   H13847724   3.353   5.840   1.590  0.1790 -0.7001 -0.3000
  104MOL   H13947725   3.151   5.740   1.669 -0.2016  2.2706 -1.7663
  104MOL   O14047726   3.613   5.969   1.329  0.7954 -0.7415  0.2576
  104MOL   C14147727   3.553   6.103   1.336 -0.3708  1.0622  0.4539
  104MOL   C14247728   3.592   6.163   1.474 -0.3018  0.0131 -0.0282
  104MOL   O14347729   3.501   6.137   1.583 -0.5377 -0.0348  0.5158
  104MOL   C14447730   3.374   6.181   1.579  0.3465  0.0441  0.0314
  104MOL   O14547731   3.314   6.234   1.483 -0.9421  0.3279 -0.7312
  104MOL   C14647732   3.312   6.166   1.720 -0.0526  0.2893 -0.5311
  104MOL   C14747733   3.200   6.244   1.752 -0.1165 -0.0476  0.2661
  104MOL   C14847734   3.138   6.236   1.879  0.0125 -0.0004  0.4489
  104MOL   C14947735   3.185   6.142   1.974  0.5574 -0.1485 -0.0171
  104MOL   C15047736   3.124   6.136   2.110  0.7692  0.2534  0.7087
  104MOL   O15147737   3.042   6.214   2.151 -0.6079 -0.0931  0.4712
  104MOL   O15247738   3.174   6.046   2.188 -0.0345  0.3508 -0.1884
  104MOL   C15347739   3.290   6.053   1.941  0.0740  0.3904 -0.5373
  104MOL   C15447740   3.350   6.062   1.812 -0.7337 -0.3526 -0.5969
  104MOL   H15547741   3.608   6.163   1.263  0.6915  1.6528  1.7125
  104MOL   H15647742   3.446   6.107   1.319 -0.0875 -0.5897 -1.8630
  104MOL   H15747743   3.591   6.271   1.456  0.3299 -0.0473 -0.4323
  104MOL   H15847744   3.692   6.136   1.507 -0.5146 -0.3102  0.3572
  104MOL   H15947745   3.159   6.318   1.684  1.1987  0.1623 -0.3005
  104MOL   H16047746   3.062   6.305   1.912  0.9131  1.2185  0.0057
  104MOL   H16147747   3.317   5.966   1.999  0.8446 -0.2657 -1.8607
  104MOL   H16247748   3.423   5.989   1.782  1.5081  1.0439  1.3120
  104MOL   O16347749   3.159   6.074   2.339  0.8205  0.1201 -0.1902
  104MOL   C16447750   3.044   6.005   2.390 -0.2293 -0.0957  0.7427
  104MOL   C16547751   3.046   6.018   2.537 -0.1579  0.1172  0.4164
  104MOL   O16647752   2.950   5.933   2.608 -0.6725  0.0338 -0.3931
  104MOL   C16747753   2.824   5.966   2.596 -0.0042  0.2392 -0.2312
  104MOL   O16847754   2.783   6.055   2.524  0.5315 -0.3299  0.4457
  104MOL   C16947755   2.726   5.881   2.673  0.1117  0.1686 -0.5912
  104MOL   C17047756   2.587   5.899   2.638  0.7583  0.0755 -0.3235
  104MOL   C17147757   2.491   5.811   2.689 -0.0387  0.6199  0.2124
  104MOL   C17247758   2.532   5.709   2.785 -0.1107 -1.0369  0.4842
  104MOL   C17347759   2.440   5.597   2.833  0.3144 -0.9180 -0.1700
  104MOL   O17447760   2.464   5.520   2.923  0.1682  0.3108  0.7779
  104MOL   O17547761   2.322   5.594   2.764  0.3351 -0.4895  0.1414
  104MOL   C17647762   2.669   5.703   2.830  0.3491 -0.1277  0.0187
  104MOL   C17747763   2.762   5.782   2.764 -0.6588 -0.6447  0.2094
  104MOL   H17847764   2.955   6.044   2.343  0.7322 -0.0310 -1.0492
  104MOL   H17947765   3.050   5.901   2.357 -1.2234 -0.3843  1.4401
  104MOL   H18047766   3.034   6.123   2.562  2.8070  1.0768 -1.7993
  104MOL   H18147767   3.144   5.991   2.578 -0.0740 -0.2737 -0.0363
  104MOL   H18247768   2.551   5.985   2.585 -2.6046 -1.3405 -0.4195
  104MOL   H18347769   2.388   5.823   2.659  0.2936  1.5134 -0.5957
  104MOL   H18447770   2.706   5.637   2.906  0.3822 -0.8042 -0.5823
  104MOL   H18547771   2.866   5.771   2.791  0.6791  3.1718 -2.8174
  104MOL   O18647772   2.217   5.500   2.823 -0.3007  0.1746 -0.2103
  104MOL   C18747773   2.135   5.564   2.922  0.4200  0.5889  0.2978
  104MOL   C18847774   2.080   5.697   2.859  1.0189  0.2218  0.2627
  104MOL   O18947775   1.997   5.772   2.954  0.0168  0.4158 -0.0248
  104MOL   C19047776   1.889   5.849   2.924  0.5104 -0.2473  0.2011
  104MOL   O19147777   1.846   5.866   2.807  0.3396 -0.0299 -0.1823
  104MOL   C19247778   1.828   5.896   3.049 -0.0486 -0.3216 -0.4280
  104MOL   C19347779   1.689   5.927   3.051  0.6113  0.3438  0.0304
  104MOL   C19447780   1.627   5.956   3.172 -0.4088  0.3189  0.6341
  104MOL   C19547781   1.702   5.979   3.288 -0.9108  0.3177 -0.8313
  104MOL   C19647782   1.634   6.002   3.419  0.5063  0.4543 -0.1835
  104MOL   O19747783   1.521   6.044   3.439 -0.0091 -0.9760  0.4872
  104MOL   O19847784   1.704   5.959   3.525  0.5766  0.1008  0.4006
  104MOL   C19947785   1.848   5.962   3.285  0.7810 -0.1133 -0.2543
  104MOL   C20047786   1.905   5.920   3.163  0.1969 -0.5486 -0.2188
  104MOL   H20147787   2.050   5.499   2.943 -0.8517  2.0869 -0.1035
  104MOL   H20247788   2.183   5.573   3.019 -1.6846 -0.5504  1.4862
  104MOL   H20347789   2.041   5.679   2.759  0.5369 -0.5875  0.5982
  104MOL   H20447790   2.171   5.756   2.846  2.1018 -1.3460  0.6495
  104MOL   H20547791   1.620   5.918   2.968 -0.8152  1.2441  1.0928
  104MOL   H20647792   1.522   5.982   3.179  0.1742  2.4999  1.7058
  104MOL   H20747793   1.921   5.982   3.362  0.8592  0.4627 -0.4705
  104MOL   H20847794   2.012   5.910   3.164  0.0855 -1.8294 -0.1071
  104MOL   O20947795   1.634   5.965   3.653 -0.0681 -0.6416  0.0320
  104MOL   C21047796   1.582   5.833   3.690  0.6688  0.9497 -0.2708
  104MOL   C21147797   1.670   5.762   3.793 -0.0032 -0.0806  0.0205
  104MOL   O21247798   1.762   5.670   3.741 -0.2236 -0.5003  0.8186
  104MOL   C21347799   1.892   5.715   3.710  0.6890  0.1772  1.0991
  104MOL   O21447800   1.918   5.834   3.709 -0.0742 -0.1211  0.3145
  104MOL   C21547801   1.982   5.598   3.673 -0.5805 -0.0503 -0.0425
  104MOL   C21647802   2.116   5.626   3.645 -0.0762 -0.0319 -0.4804
  104MOL   C21747803   2.207   5.519   3.615 -0.4321  0.1744 -0.2513
  104MOL   C21847804   2.163   5.386   3.598 -0.3114  0.0884  0.6546
  104MOL   C21947805   2.256   5.269   3.574 -0.1123 -0.1441 -0.5353
  104MOL   O22047806   2.214   5.158   3.547 -0.0211  0.3750 -0.7138
  104MOL   O22147807   2.386   5.297   3.575 -0.3103  0.8500 -0.1844
  104MOL   C22247808   2.026   5.364   3.613  0.5857  0.3696 -0.8324
  104MOL   C22347809   1.940   5.463   3.662  0.0375 -1.1059  0.8880
  104MOL   H22447810   1.492   5.848   3.749 -0.1082 -2.3943 -0.5203
  104MOL   H22547811   1.549   5.770   3.608  2.1409 -0.9303  0.5296
  104MOL   H22647812   1.620   5.695   3.863 -1.6840  0.5446 -0.5743
  104MOL   H22747813   1.719   5.836   3.856  0.4642  1.4572 -2.1016
  104MOL   H22847814   2.147   5.729   3.639  0.3243 -0.1902 -1.3522
  104MOL   H22947815   2.310   5.543   3.593 -0.3969  0.1458 -0.1109
  104MOL   H23047816   1.992   5.263   3.594 -0.2434  0.5299 -0.2335
  104MOL   H23147817   1.839   5.442   3.694  0.0282  0.9326  2.3075
  104MOL   O23247818   2.476   5.176   3.587 -0.0045  0.0811 -0.0935
  104MOL   C23347819   2.564   5.179   3.480 -0.5743 -0.1766 -0.6902
  104MOL   C23447820   2.688   5.094   3.512 -0.0216 -0.2878  0.1385
  104MOL   O23547821   2.772   5.080   3.400 -0.5204 -0.0211 -0.1025
  104MOL   C23647822   2.851   5.174   3.352 -0.0512  0.3626  0.0762
  104MOL   O23747823   2.844   5.289   3.387  0.5742 -0.2163 -0.1126
  104MOL   C23847824   2.945   5.117   3.249  0.3517  0.4128 -0.4245
  104MOL   C23947825   3.056   5.194   3.213 -0.6793  0.2136  0.2466
  104MOL   C24047826   3.131   5.150   3.099  0.1662 -0.1740 -0.0952
  104MOL   C24147827   3.104   5.033   3.026 -0.5410  0.2363  0.3584
  104MOL   C24247828   3.174   5.004   2.897  0.0596 -0.3127 -0.0856
  104MOL   O24347829   3.146   4.908   2.832 -0.3257 -0.5556 -0.1249
  104MOL   O24447830   3.264   5.096   2.862  0.4002  0.5029 -0.1358
  104MOL   C24547831   2.989   4.961   3.065 -0.1632  0.6071 -0.5154
  104MOL   C24647832   2.915   4.996   3.178  0.1694 -0.9654  0.5995
  104MOL   H24747833   2.507   5.128   3.403  0.8089 -0.0856 -1.7809
  104MOL   H24847834   2.586   5.281   3.450 -1.6461  0.7286  1.4570
  104MOL   H24947835   2.654   4.995   3.540 -1.4675 -0.3897 -1.8567
  104MOL   H25047836   2.743   5.143   3.593  1.5384  1.0195 -1.6669
  104MOL   H25147837   3.080   5.285   3.267  4.0660 -0.6444 -0.2061
  104MOL   H25247838   3.204   5.224   3.072 -0.4183 -0.6103 -2.9718
  104MOL   H25347839   2.954   4.876   3.008 -1.0524  0.0456  0.8315
  104MOL   H25447840   2.823   4.944   3.199 -1.3841  2.2403  2.0251
  104MOL   O25547841   3.305   5.080   2.714 -0.6111 -0.1986  0.1044
  104MOL   C25647842   3.234   5.172   2.633 -0.3166  0.0996 -0.2816
  104MOL   C25747843   3.289   5.175   2.487 -0.3072 -0.4660  0.3868
  104MOL   O25847844   3.411   5.258   2.482 -0.3289  0.4790 -0.6274
  104MOL   C25947845   3.428   5.345   2.372  0.1333  1.0307 -0.0782
  104MOL   O26047846   3.354   5.332   2.270 -0.2401 -0.9108 -0.3635
  104MOL   C26147847   3.536   5.448   2.390 -0.5340  0.6207  0.6514
  104MOL   C26247848   3.619   5.442   2.506 -0.3504  0.0606 -0.3679
  104MOL   C26347849   3.714   5.542   2.534 -0.5924 -0.1149 -1.0168
  104MOL   C26447850   3.740   5.643   2.440  0.4015 -0.1691  0.5738
  104MOL   C26547851   3.829   5.756   2.478 -0.3353 -0.4293 -0.6117
  104MOL   O26647852   3.884   5.838   2.405 -0.4900 -0.6158  0.3358
  104MOL   O26747853   3.836   5.765   2.619  0.1120 -0.3678 -0.2606
  104MOL   C26847854   3.668   5.645   2.321  0.5104 -0.2365 -0.7519
  104MOL   C26947855   3.570   5.548   2.298  0.4851 -0.3701 -0.5800
  104MOL   H27047856   3.126   5.163   2.631 -0.3442 -0.6732  2.6508
  104MOL   H27147857   3.262   5.267   2.678 -1.6073 -0.0386  0.8107
  104MOL   H27247858   3.220   5.226   2.419  0.8091  1.6152  0.7840
  104MOL   H27347859   3.299   5.076   2.443  1.9960  0.2436 -0.7831
  104MOL   H27447860   3.607   5.364   2.579  0.7647 -0.7248 -1.0178
  104MOL   H27547861   3.767   5.540   2.628 -1.0982 -1.6531 -0.7508
  104MOL   H27647862   3.690   5.722   2.249 -0.6486  0.5437 -0.2811
  104MOL   H27747863   3.513   5.561   2.207 -0.6924  0.0895  0.2164
  104MOL   O27847864   3.947   5.855   2.673 -0.1779 -0.2241  0.2274
  104MOL   C27947865   4.070   5.789   2.667 -0.2859  0.5202 -0.1698
  104MOL   C28047866   4.171   5.872   2.742  0.1266  0.0887 -0.1281
  104MOL   O28147867   4.187   5.831   2.873 -0.1739 -0.1199 -0.6580
  104MOL   C28247868   4.307   5.833   2.928 -0.1526  0.5236  0.2964
  104MOL   O28347869   4.409   5.860   2.871  0.2017  0.1878 -0.3847
  104MOL   C28447870   4.299   5.771   3.069 -0.1848 -0.1118 -0.7176
  104MOL   C28547871   4.415   5.742   3.139  0.1169 -0.1622 -0.0556
  104MOL   C28647872   4.406   5.692   3.269  0.0857 -0.8547 -0.0337
  104MOL   C28747873   4.286   5.674   3.340 -0.0053 -0.4171 -0.1868
  104MOL   C28847874   4.278   5.610   3.475  0.2615  0.4182 -0.0668
  104MOL   O28947875   4.172   5.564   3.515  0.2585  0.4864  0.5586
  104MOL   O29047876   4.394   5.612   3.549  0.0502  0.2584 -0.2770
  104MOL   C29147877   4.170   5.705   3.273  0.1452  0.5656 -1.0270
  104MOL   C29247878   4.173   5.756   3.137 -0.1244  0.2512  0.4367
  104MOL   H29347879   4.046   5.691   2.707 -0.8267  0.4303 -0.7188
  104MOL   H29447880   4.097   5.771   2.563 -4.5101 -0.6962 -1.1328
  104MOL   H29547881   4.130   5.973   2.732 -1.8277 -0.6559  0.1513
  104MOL   H29647882   4.260   5.865   2.680 -1.4652 -2.1833 -2.2519
  104MOL   H29747883   4.509   5.752   3.086 -0.3941 -1.3619 -1.2193
  104MOL   H29847884   4.501   5.671   3.317  0.7057  3.1979  0.7048
  104MOL   H29947885   4.072   5.695   3.317  0.9511 -0.4149  0.5686
  104MOL   H30047886   4.079   5.771   3.085 -1.1258  0.2303  2.2236
  104MOL   O30147887   4.398   5.528   3.675  0.8426  0.0410 -0.3729
  104MOL   C30247888   4.429   5.613   3.786  0.5659  1.1411 -0.0886
  104MOL   C30347889   4.460   5.521   3.906  0.7020  0.5647 -0.0211
  104MOL   O30447890   4.596   5.478   3.916  0.0311 -0.2825  0.3753
  104MOL   C30547891   4.654   5.493   4.035 -0.6675 -0.1363 -0.0348
  104MOL   O30647892   4.607   5.556   4.128  0.7502 -0.1307  0.1027
  104MOL   C30747893   4.785   5.426   4.041 -0.0422 -0.8685 -0.1187
  104MOL   C30847894   4.851   5.377   3.930 -0.6627  0.4021  0.1979
  104MOL   C30947895   4.979   5.311   3.936 -0.3689  0.7766  0.1716
  104MOL   C31047896   5.041   5.304   4.064 -0.1233  0.8039  0.0004
  104MOL   C31147897   5.172   5.232   4.086  0.1975 -0.1884  0.3931
  104MOL   O31247898   5.244   5.225   4.186 -0.1864 -0.0961 -0.2854
  104MOL   O31347899   5.201   5.157   3.978 -0.2751  0.4340 -0.3106
  104MOL   C31447900   4.977   5.362   4.167  0.4197  0.0307 -0.7175
  104MOL   C31547901   4.848   5.420   4.167  0.4392  0.2497 -0.6457
  104MOL   H31647902   4.515   5.679   3.773  1.8380 -0.5442 -0.3819
  104MOL   H31747903   4.343   5.678   3.803  1.1154  1.6687  0.6725
  104MOL   H31847904   4.398   5.431   3.896 -1.6303  2.3820 -2.7486
  104MOL   H31947905   4.429   5.581   3.992  1.0463  0.7860 -0.0514
  104MOL   H32047906   4.802   5.384   3.834 -2.7568  0.9050  1.2722
  104MOL   H32147907   5.021   5.272   3.845  1.6841 -0.5077  1.6345
  104MOL   H32247908   5.030   5.354   4.261  0.8696 -1.4516 -1.0976
  104MOL   H32347909   4.799   5.457   4.256  1.8458 -0.4094  0.4289
  104MOL   O32447910   5.320   5.058   3.993  0.3326  0.7328 -0.0690
  104MOL   C32547911   5.435   5.112   3.931  0.5439 -0.3241  0.5762
  104MOL   C32647912   5.508   5.227   4.003  0.5756 -0.5055 -0.4622
  104MOL   O32747913   5.446   5.337   3.933 -0.4206  0.0974 -0.3317
  104MOL   C32847914   5.508   5.463   3.929 -0.4146  0.0842  0.3517
  104MOL   O32947915   5.624   5.485   3.974 -0.3581  0.0997  0.6843
  104MOL   C33047916   5.428   5.562   3.851 -0.2200  0.8135 -0.4003
  104MOL   C33147917   5.489   5.676   3.797  0.7684 -0.1271 -0.6463
  104MOL   C33247918   5.420   5.758   3.701  0.4188 -0.0127  0.1787
  104MOL   C33347919   5.296   5.724   3.649 -0.4534  0.1030 -0.0670
  104MOL   C33447920   5.221   5.804   3.549  0.4668 -0.2317 -0.4891
  104MOL   O33547921   5.098   5.813   3.548 -0.0083  0.1418  0.2733
  104MOL   O33647922   5.301   5.851   3.451  0.3758 -0.4587  0.3994
  104MOL   C33747923   5.232   5.614   3.714 -0.0452  0.4906  1.0478
  104MOL   C33847924   5.298   5.534   3.810  0.2848  1.1533 -0.1046
  104MOL   H33947925   5.510   5.032   3.933 -2.5979 -3.3374  2.6210
  104MOL   H34047926   5.439   5.125   3.823  1.3412  0.6685  0.7192
  104MOL   H34147927   5.616   5.232   3.991  0.6209  1.0240  0.4819
  104MOL   H34247928   5.484   5.224   4.109  1.5849  0.9281 -0.1790
  104MOL   H34347929   5.582   5.700   3.847 -0.5717  2.8142  0.6007
  104MOL   H34447930   5.466   5.853   3.675 -0.4804  0.3716 -0.0264
  104MOL   H34547931   5.129   5.590   3.692 -0.1015  0.7897  0.9917
  104MOL   H34647932   5.238   5.456   3.854  0.0943  2.0994  1.3493
  104MOL   O34747933   5.226   5.883   3.323 -0.3101  0.0226 -0.0120
  104MOL   C34847934   5.247   5.780   3.231  0.6540  0.2556  1.1483
  104MOL   C34947935   5.184   5.807   3.097  0.2868 -0.1431  0.8406
  104MOL   O35047936   5.272   5.887   3.021  0.7244 -0.6104  0.6225
  104MOL   C35147937   5.281   5.866   2.895 -0.0382 -0.3594 -0.1834
  104MOL   O35247938   5.198   5.795   2.834 -0.0098  0.3288 -0.6471
  104MOL   C35347939   5.397   5.929   2.824 -0.1564  0.7595 -0.4151
  104MOL   C35447940   5.473   6.029   2.877  0.5062  0.4214  0.0051
  104MOL   C35547941   5.589   6.079   2.813 -0.1354  0.6162  0.4495
  104MOL   C35647942   5.624   6.028   2.682 -0.0685  0.1684 -0.2744
  104MOL   C35747943   5.729   6.093   2.603  0.0169  0.4667  0.1988
  104MOL   O35847944   5.776   6.063   2.491  0.0363 -0.1929  0.5886
  104MOL   O35947945   5.769   6.210   2.663 -0.3201  0.9526  0.2215
  104MOL   C36047946   5.545   5.925   2.626  0.1056 -0.5075  0.1515
  104MOL   C36147947   5.432   5.882   2.694 -0.2475  0.0177 -0.1125
  104MOL   H36247948   5.353   5.759   3.213  0.0694 -0.0571 -2.3455
  104MOL   H36347949   5.192   5.692   3.263 -0.9409  0.9431  0.3710
  104MOL   H36447950   5.085   5.851   3.105  0.1831  0.5214 -3.0478
  104MOL   H36547951   5.162   5.716   3.042 -1.0027  1.9418 -2.2277
  104MOL   H36647952   5.453   6.073   2.974 -1.1184  1.2740 -0.7052
  104MOL   H36747953   5.655   6.151   2.859  1.4364  0.7788 -1.9333
  104MOL   H36847954   5.563   5.884   2.528  3.7139  0.7980  0.2228
  104MOL   H36947955   5.368   5.815   2.640  0.6388 -0.4737 -0.5606
  104MOL   O37047956   5.876   6.292   2.583 -0.2205  0.3409  0.3419
  104MOL   C37147957   5.814   6.415   2.547  0.0499 -0.3784  0.5334
  104MOL   C37247958   5.716   6.399   2.434  0.1445 -1.1752 -0.3147
  104MOL   O37347959   5.587   6.375   2.475  0.4072  0.5412  0.7014
  104MOL   C37447960   5.482   6.407   2.401  0.8529  0.4266 -0.0105
  104MOL   O37547961   5.493   6.470   2.292  0.3370  0.1394  0.1711
  104MOL   C37647962   5.354   6.352   2.469 -0.2029 -0.7328 -0.2912
  104MOL   C37747963   5.368   6.280   2.589  0.3001  0.2894  0.6463
  104MOL   C37847964   5.255   6.224   2.652  0.1447  0.1370 -0.7993
  104MOL   C37947965   5.129   6.243   2.599 -0.6128  0.2952 -0.0597
  104MOL   C38047966   5.004   6.188   2.658  0.0341 -0.2042 -0.2318
  104MOL   O38147967   4.890   6.223   2.634 -0.7711 -0.3197  0.3007
  104MOL   O38247968   5.033   6.095   2.758  0.3862  0.4891 -0.7294
  104MOL   C38347969   5.109   6.318   2.479 -0.0761  0.1879  0.6585
  104MOL   C38447970   5.221   6.377   2.418 -0.0193  0.0368  0.0188
  104MOL   H38547971   5.762   6.475   2.622  0.6303  1.2775 -0.3519
  104MOL   H38647972   5.893   6.472   2.498  0.9912 -0.8459  1.4831
  104MOL   H38747973   5.741   6.310   2.377  0.3683 -1.2564 -0.0895
  104MOL   H38847974   5.732   6.479   2.361  1.8682 -0.0163  1.2818
  104MOL   H38947975   5.461   6.256   2.638 -0.3526 -2.6760  0.5249
  104MOL   H39047976   5.278   6.154   2.730  0.0809 -0.8111 -1.6226
  104MOL   H39147977   5.010   6.329   2.436  1.1773  1.9216 -1.8829
  104MOL   H39247978   5.198   6.439   2.333 -0.7814 -0.3298 -0.0467
  104MOL   O39347979   4.917   6.060   2.840  0.5257 -0.2333 -0.0376
  104MOL   C39447980   4.874   5.935   2.791  0.2706  0.5050 -0.4429
  104MOL   C39547981   4.740   5.894   2.846 -0.3201 -0.5792  0.0452
  104MOL   O39647982   4.741   5.873   2.982 -0.2856  0.2638  0.0156
  104MOL   C39747983   4.778   5.749   3.029 -0.8617  0.1311  0.2076
  104MOL   O39847984   4.803   5.653   2.954 -0.7203 -0.3967 -0.2080
  104MOL   C39947985   4.795   5.744   3.170  0.0830 -0.2808 -0.6777
  104MOL   C40047986   4.843   5.625   3.227  0.4527  0.2759 -0.1798
  104MOL   C40147987   4.860   5.604   3.367 -0.0059  0.1619  0.4364
  104MOL   C40247988   4.820   5.702   3.463 -0.3767 -0.5839 -0.1003
  104MOL   C40347989   4.817   5.666   3.610 -0.2348 -1.0047  0.6001
  104MOL   O40447990   4.856   5.554   3.650  0.0336 -0.4917 -0.0036
  104MOL   O40547991   4.772   5.758   3.698 -0.1440 -0.0795 -0.1422
  104MOL   C40647992   4.779   5.823   3.407 -0.7811 -0.4166 -0.4036
  104MOL   C40747993   4.767   5.843   3.261  0.3501 -0.0003  0.5136
  104MOL   H40847994   4.861   5.930   2.683 -1.2110  0.3724 -0.2614
  104MOL   H40947995   4.945   5.855   2.808 -1.0107 -0.5720 -0.1306
  104MOL   H41047996   4.693   5.812   2.791  1.8918 -1.2670 -0.8860
  104MOL   H41147997   4.669   5.973   2.821  1.8614  1.1299 -0.9691
  104MOL   H41247998   4.857   5.541   3.161 -1.0204  1.1235 -1.6021
  104MOL   H41347999   4.885   5.505   3.404 -1.1045 -0.5053 -0.5530
  104MOL   H41448000   4.756   5.907   3.471 -2.1008  1.0575 -2.7089
  104MOL   H41548001   4.749   5.941   3.220  1.3450 -0.7373 -1.7615
  104MOL   O41648002   4.777   5.702   3.841 -0.1432 -0.7926  0.0844
  104MOL   C41748003   4.874   5.781   3.912  0.7802  0.0320 -0.1349
  104MOL   C41848004   4.801   5.875   4.007  0.7774 -0.2948  0.2254
  104MOL   O41948005   4.732   5.974   3.926  0.2025 -0.3498 -0.1660
  104MOL   C42048006   4.599   5.957   3.900  0.2844 -0.6831  0.0967
  104MOL   O42148007   4.529   5.881   3.961 -0.1182  0.4861  0.0424
  104MOL   C42248008   4.564   6.032   3.775 -0.1226 -0.1851 -0.4738
  104MOL   C42348009   4.509   5.966   3.666  0.5046  0.3438  0.5167
  104MOL   C42448010   4.501   6.033   3.542 -0.3627 -0.2269 -0.1687
  104MOL   C42548011   4.554   6.171   3.519  0.2864  0.9687 -0.4640
  104MOL   C42648012   4.550   6.235   3.385 -0.2857 -0.3863 -0.1450
  104MOL   O42748013   4.576   6.356   3.380  0.1716  0.0748  0.2648
  104MOL   O42848014   4.529   6.156   3.279 -0.0955  0.1923 -0.0568
  104MOL   C42948015   4.604   6.235   3.632 -0.6779  0.2033 -0.3673
  104MOL   C43048016   4.608   6.168   3.757 -0.9995  0.0295  0.0472
  104MOL   H43148017   4.925   5.712   3.980 -0.4487  1.5293  2.3773
  104MOL   H43248018   4.950   5.826   3.848  1.7563  0.6481  1.4507
  104MOL   H43348019   4.865   5.933   4.073 -1.1708 -0.2364  2.0804
  104MOL   H43448020   4.738   5.811   4.068 -0.6488 -0.0606 -0.9842
  104MOL   H43548021   4.466   5.867   3.678  1.0729 -0.0725 -0.7534
  104MOL   H43648022   4.459   5.986   3.454 -0.6158 -0.7417  0.2243
  104MOL   H43748023   4.651   6.332   3.620 -0.8233  0.0102 -2.7076
  104MOL   H43848024   4.659   6.220   3.836 -0.2075 -0.0283 -0.4216
  104MOL   O43948025   4.508   6.237   3.155  0.1383  0.3868 -0.3170
  104MOL   C44048026   4.612   6.197   3.068 -0.0661 -0.6450  0.0705
  104MOL   C44148027   4.589   6.285   2.945 -0.5430 -0.2038  0.4100
  104MOL   O44248028   4.461   6.258   2.896 -0.5104 -0.2195 -0.4984
  104MOL   C44348029   4.441   6.216   2.770 -0.4125  0.3760  0.9404
  104MOL   O44448030   4.535   6.187   2.696 -0.0027 -0.2312 -0.4281
  104MOL   C44548031   4.301   6.216   2.726  0.5377 -0.1342 -0.6163
  104MOL   C44648032   4.191   6.239   2.817  0.4321 -0.1543 -0.9533
  104MOL   C44748033   4.058   6.235   2.770  0.5028  0.1746 -0.2157
  104MOL   C44848034   4.031   6.207   2.631 -0.3984  0.4782 -0.4767
  104MOL   C44948035   3.892   6.217   2.579 -0.0635  0.0921  0.4743
  104MOL   O45048036   3.792   6.226   2.651  0.2588  0.2563  0.9369
  104MOL   O45148037   3.884   6.224   2.437 -0.7914  0.4875  0.3490
  104MOL   C45248038   4.139   6.173   2.549  0.3661  0.2715 -0.3554
  104MOL   C45348039   4.273   6.179   2.593 -0.2042  0.1294  0.2361
  104MOL   H45448040   4.716   6.212   3.097  0.3635  0.3133 -1.8607
  104MOL   H45548041   4.607   6.092   3.038 -1.0587  0.2842 -3.1921
  104MOL   H45648042   4.670   6.287   2.872 -0.7745  1.4879  0.1834
  104MOL   H45748043   4.590   6.389   2.976 -0.9057  0.4552 -1.7429
  104MOL   H45848044   4.217   6.276   2.916  0.1087 -1.6726 -0.2924
  104MOL   H45948045   3.976   6.260   2.835 -0.4182 -3.7410  0.2428
  104MOL   H46048046   4.111   6.140   2.449 -0.0426 -0.0608 -0.1369
  104MOL   H46148047   4.353   6.143   2.529  0.6253  0.1345  1.2524
  104MOL   H46248048   3.803   6.239   2.392  0.7571  0.9252 -2.3884
  105MOL     O148049   0.383   5.247   2.710 -0.4493  0.7640 -0.3224
  105MOL     C248050   0.315   5.123   2.676 -0.2994 -0.8867 -0.6102
  105MOL     C348051   0.203   5.146   2.575  0.5812 -0.5384  0.9972
  105MOL     O448052   0.099   5.229   2.629  0.0356  0.1884  0.0542
  105MOL     C548053   0.099   5.357   2.597 -0.1264 -0.2151 -0.0947
  105MOL     O648054   0.183   5.409   2.525  0.2153 -0.7455  0.6946
  105MOL     C748055   8.275   5.433   2.681  0.2109 -0.0516 -0.1308
  105MOL     C848056   0.015   5.577   2.700  0.3295  0.0810  0.6423
  105MOL     C948057   8.205   5.653   2.778  0.3014  1.0489  0.0921
  105MOL    C1048058   8.093   5.595   2.846  0.1389  0.0862 -0.2522
  105MOL    C1148059   8.018   5.668   2.953 -0.0524  0.3540 -0.1396
  105MOL    O1248060   7.924   5.621   3.013  0.2385  0.9724  0.3905
  105MOL    O1348061   8.059   5.791   2.979 -0.3680  0.3989 -0.2053
  105MOL    C1448062   8.069   5.461   2.817  1.0927  1.1522 -0.1820
  105MOL    C1548063   8.162   5.380   2.742  0.2528  0.0144  0.7118
  105MOL    H1648064   0.393   5.059   2.635  0.4982 -1.5509  1.8529
  105MOL    H1748065   0.266   5.091   2.767  0.6679  2.2905  1.1174
  105MOL    H1848066   0.165   5.044   2.571 -2.2648  0.4006  2.1582
  105MOL    H1948067   0.232   5.177   2.475 -2.1723 -2.4236 -0.4759
  105MOL    H2048068   0.099   5.625   2.651  0.4655  0.6208  1.3920
  105MOL    H2148069   8.243   5.750   2.805 -0.0325  1.4447 -0.8325
  105MOL    H2248070   7.973   5.426   2.852  1.6351 -0.8357 -0.6018
  105MOL    H2348071   8.131   5.277   2.727  4.2037 -1.0069 -1.3244
  105MOL    H2448072   0.430   5.279   2.635 -0.7430 -0.2225 -0.9283
  105MOL    O2548073   7.967   5.869   3.067 -0.3551  0.1917 -0.4208
  105MOL    C2648074   8.012   5.857   3.203 -1.0260  0.0001  0.9057
  105MOL    C2748075   8.117   5.966   3.225  0.1261 -0.2016 -0.0522
  105MOL    O2848076   8.241   5.944   3.163 -0.1152 -0.4881 -0.2411
  105MOL    C2948077   0.030   6.044   3.105 -0.2041 -0.4655 -0.2505
  105MOL    O3048078   0.021   6.160   3.141  0.0561 -0.1875 -0.0170
  105MOL    C3148079   0.130   6.003   3.004 -0.0701 -0.3650 -0.2083
  105MOL    C3248080   0.209   6.097   2.934 -0.6823 -0.3647  0.4006
  105MOL    C3348081   0.308   6.052   2.850  0.3111 -0.1354 -0.4276
  105MOL    C3448082   0.331   5.916   2.826  0.1848 -0.3640 -0.0261
  105MOL    C3548083   0.431   5.859   2.732  0.4179 -0.2877  0.5192
  105MOL    O3648084   0.504   5.931   2.657 -0.0195 -0.3885 -0.2540
  105MOL    O3748085   0.434   5.727   2.734  0.4143  0.0063  0.2779
  105MOL    C3848086   0.249   5.819   2.896 -0.0294  0.0138 -0.1918
  105MOL    C3948087   0.148   5.864   2.980  0.0465  0.3165 -0.3128
  105MOL    H4048088   7.930   5.868   3.274 -3.1735 -0.1527 -1.4779
  105MOL    H4148089   8.054   5.762   3.236 -1.2988 -0.6289 -0.5073
  105MOL    H4248090   8.121   5.968   3.334 -0.4894 -0.7048 -0.0155
  105MOL    H4348091   8.076   6.063   3.197 -1.1483 -0.3064  1.3864
  105MOL    H4448092   0.213   6.203   2.952 -0.4564 -0.2839 -0.1207
  105MOL    H4548093   0.383   6.121   2.814 -0.2066 -0.3614 -1.9620
  105MOL    H4648094   0.259   5.712   2.890 -1.7867 -0.0994 -1.8488
  105MOL    H4748095   0.093   5.797   3.044 -1.0889  1.3252 -0.2054
  105MOL    O4848096   0.561   5.656   2.685 -0.0136  0.3097 -0.1941
  105MOL    C4948097   0.627   5.608   2.800 -0.4538  0.0075 -0.0652
  105MOL    C5048098   0.750   5.545   2.743  0.0788  0.1913 -0.2872
  105MOL    O5148099   0.854   5.555   2.833 -0.0748 -0.1144 -0.1949
  105MOL    C5248100   0.876   5.445   2.923  0.0481 -0.1454 -0.6053
  105MOL    O5348101   0.813   5.339   2.916  0.1987 -0.4883  0.4493
  105MOL    C5448102   0.992   5.468   3.018  0.2917  0.1969 -0.0656
  105MOL    C5548103   1.034   5.367   3.108 -0.0783 -0.0628  0.6044
  105MOL    C5648104   1.143   5.379   3.191 -0.5325 -0.0549  0.4988
  105MOL    C5748105   1.214   5.502   3.196 -0.6976  0.2905 -0.3464
  105MOL    C5848106   1.337   5.508   3.274  0.3487  0.4966 -0.3194
  105MOL    O5948107   1.361   5.437   3.369 -0.0915  0.4329 -0.3458
  105MOL    O6048108   1.407   5.607   3.243 -0.4300  0.1844 -0.0028
  105MOL    C6148109   1.174   5.605   3.109  0.9318  0.0173 -0.9721
  105MOL    C6248110   1.068   5.586   3.020 -0.2391 -1.1402  0.2475
  105MOL    H6348111   0.659   5.687   2.868 -0.2079 -2.5214  2.8630
  105MOL    H6448112   0.569   5.529   2.847 -0.0049 -1.6382 -2.2028
  105MOL    H6548113   0.776   5.598   2.652  1.4488  0.1203  0.0649
  105MOL    H6648114   0.726   5.442   2.719 -0.0871  0.0174  0.5807
  105MOL    H6748115   0.980   5.273   3.109 -0.1873  0.0045  1.2168
  105MOL    H6848116   1.168   5.300   3.261  1.2530  0.5138  0.5298
  105MOL    H6948117   1.229   5.699   3.109  0.4014  0.3300 -1.3915
  105MOL    H7048118   1.054   5.665   2.948  2.8577  0.4187  1.2679
  105MOL    O7148119   1.528   5.626   3.328 -0.1288  0.4321  0.2185
  105MOL    C7248120   1.636   5.567   3.262 -0.1379 -0.6242 -0.5106
  105MOL    C7348121   1.758   5.613   3.334  0.6124 -0.5427 -0.3977
  105MOL    O7448122   1.874   5.529   3.312 -0.6930 -0.1595  0.2457
  105MOL    C7548123   1.993   5.580   3.307 -0.2854 -0.2443 -0.1338
  105MOL    O7648124   2.021   5.695   3.345  0.0615 -0.0457  0.0226
  105MOL    C7748125   2.097   5.489   3.260  0.5572 -0.0122 -0.0854
  105MOL    C7848126   2.055   5.383   3.170 -0.1510 -0.1320 -0.2709
  105MOL    C7948127   2.148   5.285   3.128  0.3862  0.2494 -0.4041
  105MOL    C8048128   2.286   5.306   3.162  0.0369 -0.2362  0.1625
  105MOL    C8148129   2.393   5.221   3.093  0.6063 -0.5211 -0.1467
  105MOL    O8248130   2.369   5.127   3.012 -0.1905 -0.1087 -0.8972
  105MOL    O8348131   2.516   5.272   3.115 -0.5480  0.1682 -1.1330
  105MOL    C8448132   2.324   5.416   3.245  0.4320 -0.1064  0.0912
  105MOL    C8548133   2.232   5.502   3.300  0.1520  0.6197 -0.1187
  105MOL    H8648134   1.639   5.459   3.269  3.5300 -0.5507  0.1382
  105MOL    H8748135   1.630   5.586   3.155 -0.7951 -0.6964 -0.4917
  105MOL    H8848136   1.731   5.603   3.439  3.3446 -0.4363  0.3740
  105MOL    H8948137   1.788   5.715   3.309  2.3173 -1.0047 -0.3131
  105MOL    H9048138   1.953   5.381   3.135  0.3637  1.7863 -2.0111
  105MOL    H9148139   2.109   5.210   3.060 -1.1300  1.3915 -0.8045
  105MOL    H9248140   2.427   5.442   3.263 -0.2589  1.9835  1.1551
  105MOL    H9348141   2.261   5.583   3.365 -2.3537 -1.3824  3.6577
  105MOL    O9448142   2.619   5.203   3.044  0.6014  0.3701  0.2844
  105MOL    C9548143   2.657   5.281   2.930  1.0693 -0.2123 -0.8817
  105MOL    C9648144   2.793   5.231   2.877 -0.6598 -0.5480  0.0472
  105MOL    O9748145   2.848   5.295   2.764  0.3313 -0.2548 -0.0528
  105MOL    C9848146   2.894   5.423   2.775  0.1295  0.0995  0.1240
  105MOL    O9948147   2.912   5.479   2.886  0.0637 -0.7093 -0.0456
  105MOL   C10048148   2.948   5.465   2.645 -0.0897  0.0117 -0.2967
  105MOL   C10148149   3.029   5.582   2.643 -0.0024 -0.0637 -0.0437
  105MOL   C10248150   3.097   5.623   2.528 -0.4540  0.3349  0.6452
  105MOL   C10348151   3.065   5.570   2.402 -0.2840  0.7614 -0.3205
  105MOL   C10448152   3.123   5.627   2.269 -0.0111 -0.2180  0.0305
  105MOL   O10548153   3.212   5.712   2.260  0.1739  0.4050  0.3141
  105MOL   O10648154   3.062   5.575   2.169 -0.0681 -0.4380  0.0076
  105MOL   C10748155   2.986   5.453   2.400 -0.1163 -0.4304  0.5725
  105MOL   C10848156   2.925   5.401   2.516  0.8070  0.6370  0.1313
  105MOL   H10948157   2.580   5.262   2.854  1.8864  0.8057 -1.9855
  105MOL   H11048158   2.663   5.389   2.942 -0.1768 -0.4767  2.7885
  105MOL   H11148159   2.793   5.122   2.873  1.5167 -0.6257  1.2360
  105MOL   H11248160   2.865   5.241   2.958  0.0491  1.1608 -0.7908
  105MOL   H11348161   3.052   5.635   2.734  0.5708 -0.4831  0.0594
  105MOL   H11448162   3.173   5.695   2.555  1.5145 -0.9188 -1.3644
  105MOL   H11548163   2.980   5.395   2.309 -1.3221 -2.6662  2.0265
  105MOL   H11648164   2.860   5.317   2.497  0.4020  0.9838 -0.0299
  105MOL   O11748165   3.129   5.607   2.034  0.0954  0.4289 -0.0699
  105MOL   C11848166   3.231   5.509   2.005 -0.3652 -0.2186  0.3332
  105MOL   C11948167   3.316   5.562   1.891 -0.5970 -0.5069  0.0939
  105MOL   O12048168   3.409   5.657   1.941 -0.8310 -0.4936 -0.7957
  105MOL   C12148169   3.508   5.698   1.864 -0.1555 -0.1204 -0.0393
  105MOL   O12248170   3.521   5.661   1.748  0.0956 -0.0314 -0.6329
  105MOL   C12348171   3.601   5.804   1.927  0.1778  0.1902 -0.1187
  105MOL   C12448172   3.695   5.872   1.842  0.1622  0.2862 -0.6442
  105MOL   C12548173   3.770   5.975   1.892 -0.0810  0.4481 -0.2887
  105MOL   C12648174   3.751   6.020   2.023  0.2020 -0.2855  0.3763
  105MOL   C12748175   3.829   6.130   2.075 -0.0253 -0.7476 -0.1339
  105MOL   O12848176   3.796   6.189   2.174 -0.5911  0.2042 -0.0932
  105MOL   O12948177   3.948   6.146   2.009  0.1443 -0.6421 -0.0674
  105MOL   C13048178   3.663   5.950   2.111  0.6002  1.0224 -0.2169
  105MOL   C13148179   3.583   5.849   2.057 -0.2033 -0.2583 -0.4382
  105MOL   H13248180   3.293   5.491   2.093  0.9727 -0.8658 -0.7222
  105MOL   H13348181   3.180   5.415   1.986 -1.3173  0.3755 -0.0918
  105MOL   H13448182   3.257   5.607   1.811 -1.0606  1.1262  1.3375
  105MOL   H13548183   3.370   5.475   1.853 -0.8848 -1.2181  1.2986
  105MOL   H13648184   3.714   5.839   1.741 -1.4618 -1.2259 -0.4813
  105MOL   H13748185   3.853   6.012   1.833  0.0505 -0.1988 -0.5143
  105MOL   H13848186   3.641   5.976   2.213  2.4663 -1.6746  0.9482
  105MOL   H13948187   3.511   5.798   2.120  0.1655 -0.7719 -0.4278
  105MOL   O14048188   4.035   6.245   2.083 -0.2123 -0.1702  0.2312
  105MOL   C14148189   4.126   6.178   2.166 -0.1234 -0.1583 -0.0980
  105MOL   C14248190   4.221   6.274   2.232 -0.4152  0.0909  0.1821
  105MOL   O14348191   4.333   6.312   2.147 -0.1283 -0.3889 -0.2688
  105MOL   C14448192   4.440   6.381   2.186  0.5233 -0.6012 -0.1383
  105MOL   O14548193   4.453   6.423   2.306  0.6255  0.4295  0.0379
  105MOL   C14648194   4.532   6.412   2.068 -0.0060 -0.0874  0.0424
  105MOL   C14748195   4.631   6.505   2.096  0.3247 -0.2184 -0.0608
  105MOL   C14848196   4.694   6.578   1.987  0.2799 -0.6552 -0.0055
  105MOL   C14948197   4.674   6.537   1.852  0.2879 -0.6145 -0.9152
  105MOL   C15048198   4.750   6.592   1.740 -0.0387  0.3029  0.5801
  105MOL   O15148199   4.741   6.543   1.625  0.2733  0.1690  0.1895
  105MOL   O15248200   4.828   6.688   1.771  0.0056  0.2951  0.4427
  105MOL   C15348201   4.583   6.431   1.832  0.3815 -0.8001 -0.4464
  105MOL   C15448202   4.513   6.371   1.937  0.2115 -0.5107  0.1989
  105MOL   H15548203   4.077   6.123   2.246  1.7251  0.2519  1.3657
  105MOL   H15648204   4.175   6.111   2.096 -1.5400 -0.8445 -0.4600
  105MOL   H15748205   4.267   6.231   2.322  0.9535 -3.9655 -2.2916
  105MOL   H15848206   4.172   6.364   2.268 -0.5378 -0.2623  0.9192
  105MOL   H15948207   4.646   6.550   2.193  1.2708  1.8368 -1.1274
  105MOL   H16048208   4.767   6.651   2.018  0.2157 -0.1158 -1.0998
  105MOL   H16148209   4.560   6.393   1.734  0.4411 -0.3976 -0.6189
  105MOL   H16248210   4.438   6.297   1.912 -0.1086 -0.6539  1.5492
  105MOL   O16348211   4.895   6.749   1.647 -0.1980 -0.3589 -0.0939
  105MOL   C16448212   5.018   6.677   1.626 -0.2682  0.5880 -0.1050
  105MOL   C16548213   5.081   6.710   1.488  0.3456  0.0426 -0.7125
  105MOL   O16648214   5.150   6.842   1.485  0.0912 -0.6378  0.4812
  105MOL   C16748215   5.273   6.853   1.539  0.9819  0.5004  0.1939
  105MOL   O16848216   5.344   6.756   1.569 -0.9085 -0.2422  0.3323
  105MOL   C16948217   5.318   6.993   1.555 -0.7282  0.3860  0.0637
  105MOL   C17048218   5.453   7.022   1.587  0.3770  0.1403  0.2469
  105MOL   C17148219   5.487   7.160   1.604  0.1906 -0.6313 -0.3056
  105MOL   C17248220   5.397   7.268   1.587  0.0670 -0.7715  0.0588
  105MOL   C17348221   5.440   7.412   1.610  0.0001 -0.6009  0.4175
  105MOL   O17448222   5.555   7.461   1.620 -0.1759  0.2854  0.2283
  105MOL   O17548223   5.332   7.490   1.612 -0.3609  0.7701 -0.2722
  105MOL   C17648224   5.265   7.237   1.556 -0.1865 -0.1786  0.0457
  105MOL   C17748225   5.226   7.103   1.543 -0.3824  0.5651 -0.7169
  105MOL   H17848226   5.089   6.708   1.703 -0.4784  0.4824  0.1316
  105MOL   H17948227   4.995   6.570   1.628  0.9475  0.3326  3.0350
  105MOL   H18048228   5.001   6.713   1.414 -0.7405 -0.5255  0.4158
  105MOL   H18148229   5.143   6.625   1.457 -0.7495 -0.9866 -0.1355
  105MOL   H18248230   5.530   6.949   1.607 -1.1201 -2.2868 -2.5362
  105MOL   H18348231   5.588   7.184   1.636 -0.3018 -1.4857  2.0344
  105MOL   H18448232   5.193   7.315   1.536  0.0440 -0.3160 -1.3522
  105MOL   H18548233   5.123   7.072   1.528 -0.5656 -0.3473  2.1392
  105MOL   O18648234   5.368   7.639   1.639  0.9064  0.2059  0.2493
  105MOL   C18748235   5.352   7.718   1.519  0.6822  0.2066 -0.3464
  105MOL   C18848236   5.351   7.869   1.551  0.5770  0.0667 -0.0387
  105MOL   O18948237   5.277   7.948   1.462  0.4389  0.6895  0.3880
  105MOL   C19048238   5.313   8.073   1.424  0.1546  0.2718 -0.7077
  105MOL   O19148239   5.417   8.130   1.452 -0.7956  0.2219  0.5877
  105MOL   C19248240   5.192   8.143   1.366  0.5680  0.2496  0.2713
  105MOL   C19348241   5.202   0.008   1.343 -0.4326 -0.1309  0.3748
  105MOL   C19448242   5.090   0.089   1.314 -0.5386  0.6936  0.6703
  105MOL   C19548243   4.958   0.037   1.319 -0.2224 -0.0916 -0.3066
  105MOL   C19648244   4.838   0.121   1.301  0.0796 -0.4880  0.8595
  105MOL   O19748245   4.727   0.079   1.273 -0.5446 -0.2201  0.2140
  105MOL   O19848246   4.858   0.252   1.334  0.7039  0.0441 -0.4440
  105MOL   C19948247   4.948   8.174   1.328 -0.1382  0.1059  0.4334
  105MOL   C20048248   5.054   8.090   1.357 -0.5131  0.3862  0.5905
  105MOL   H20148249   5.433   7.689   1.452 -0.7473 -2.3270 -1.0149
  105MOL   H20248250   5.256   7.688   1.477  0.1934  1.5718 -0.2451
  105MOL   H20348251   5.455   7.904   1.554  1.2990 -1.9222 -0.8715
  105MOL   H20448252   5.311   7.890   1.650 -1.5874 -0.1043 -0.8588
  105MOL   H20548253   5.300   0.052   1.352 -0.2835  0.0048 -1.5218
  105MOL   H20648254   5.109   0.194   1.293  1.7489  0.1336 -0.1884
  105MOL   H20748255   4.848   8.133   1.330 -1.2617  2.7591  0.4114
  105MOL   H20848256   5.041   7.987   1.386  1.6618 -0.1953 -0.3886
  105MOL   O20948257   4.734   0.334   1.345  0.0571  0.0975  0.3453
  105MOL   C21048258   4.726   0.411   1.222 -0.2886  0.6520  0.0776
  105MOL   C21148259   4.606   0.501   1.224  0.2326 -0.3074 -0.0191
  105MOL   O21248260   4.493   0.412   1.256 -1.2478 -0.0172 -0.6363
  105MOL   C21348261   4.403   0.454   1.340  0.3045 -0.6441 -0.0225
  105MOL   O21448262   4.389   0.567   1.379  0.0045  0.2764 -0.6861
  105MOL   C21548263   4.311   0.342   1.385 -0.6894  0.5963  0.1185
  105MOL   C21648264   4.359   0.204   1.362 -0.1561  0.4027 -0.3336
  105MOL   C21748265   4.276   0.102   1.393 -0.3673 -0.1408 -0.4998
  105MOL   C21848266   4.154   0.122   1.460 -0.7438  0.2045 -0.2791
  105MOL   C21948267   4.058   0.007   1.495  0.5400  0.4118 -0.4632
  105MOL   O22048268   4.059   8.166   1.448 -0.1939  0.3534 -0.0735
  105MOL   O22148269   3.957   0.046   1.583 -0.7750  0.1761 -0.0505
  105MOL   C22248270   4.113   0.248   1.496 -0.7563 -0.2826  0.2798
  105MOL   C22348271   4.193   0.363   1.458 -0.0966  0.2606 -0.0980
  105MOL   H22448272   4.809   0.482   1.215  1.1274 -0.9054  0.6056
  105MOL   H22548273   4.718   0.345   1.136  0.5256  0.4124  0.1814
  105MOL   H22648274   4.596   0.551   1.127  3.5662  0.2512 -0.1474
  105MOL   H22748275   4.625   0.576   1.302 -0.7443 -1.0406  0.9276
  105MOL   H22848276   4.449   0.189   1.304  1.0099  1.5959  1.1143
  105MOL   H22948277   4.304   0.001   1.369  1.6155  0.8965 -2.6762
  105MOL   H23048278   4.021   0.273   1.547  0.5012  0.8837  2.0537
  105MOL   H23148279   4.170   0.468   1.471  0.4905  0.3526  0.2181
  105MOL   O23248280   3.865   8.210   1.621  0.1841 -0.3467  0.2793
  105MOL   C23348281   3.920   8.146   1.736 -0.3113 -0.2575  0.1819
  105MOL   C23448282   3.841   8.015   1.752 -0.0583 -0.3682 -0.2341
  105MOL   O23548283   3.877   7.908   1.666  0.0008 -0.6129 -0.0354
  105MOL   C23648284   3.816   7.904   1.548  0.2271 -0.4589 -0.2087
  105MOL   O23748285   3.709   7.958   1.524 -0.5236 -0.8207  0.0482
  105MOL   C23848286   3.883   7.814   1.452  0.1816 -0.1597  0.5049
  105MOL   C23948287   3.940   7.693   1.497 -0.3196 -0.2064 -0.2696
  105MOL   C24048288   4.012   7.618   1.405  0.0386  0.1112  0.2761
  105MOL   C24148289   4.027   7.651   1.271 -0.0024 -0.2289 -0.9301
  105MOL   C24248290   4.124   7.566   1.191 -0.5668 -0.1465 -0.4067
  105MOL   O24348291   4.192   7.473   1.240 -0.2459 -0.0172 -0.0958
  105MOL   O24448292   4.123   7.608   1.062 -0.5469  0.0099 -0.1044
  105MOL   C24548293   3.951   7.761   1.224  0.6505 -0.3046  0.0727
  105MOL   C24648294   3.882   7.841   1.313  0.4942  0.3736 -0.8085
  105MOL   H24748295   4.027   8.125   1.733 -0.2048  0.1977  0.8177
  105MOL   H24848296   3.892   8.202   1.825  0.4147 -1.7660  1.3866
  105MOL   H24948297   3.734   8.036   1.755 -0.3034 -1.6347  0.4661
  105MOL   H25048298   3.874   7.972   1.847 -2.6327 -1.4535  0.2334
  105MOL   H25148299   3.938   7.667   1.602 -0.3747  1.8812  0.2608
  105MOL   H25248300   4.052   7.525   1.443  0.9153  1.0349  1.6596
  105MOL   H25348301   3.949   7.788   1.119  1.9243 -0.1284  0.0944
  105MOL   H25448302   3.840   7.935   1.281 -2.0916 -0.3813  0.2757
  105MOL   O25548303   4.175   7.499   0.973 -0.2261  0.3127  0.0987
  105MOL   C25648304   4.270   7.559   0.891  0.5372 -0.0982 -0.5055
  105MOL   C25748305   4.357   7.458   0.815 -0.6764 -0.4659 -0.3583
  105MOL   O25848306   4.475   7.434   0.890  0.0961  0.0078 -0.0147
  105MOL   C25948307   4.488   7.320   0.960  0.3296  0.7699  0.7480
  105MOL   O26048308   4.389   7.250   0.980  0.2153  0.0993 -0.2695
  105MOL   C26148309   4.628   7.284   1.003 -0.3195  0.4438 -0.5470
  105MOL   C26248310   4.742   7.361   0.961 -0.0085 -0.6283  0.1747
  105MOL   C26348311   4.871   7.323   1.006  0.3264 -0.3460 -0.3172
  105MOL   C26448312   4.889   7.216   1.093 -0.0743  0.4847  0.2494
  105MOL   C26548313   5.023   7.190   1.148 -0.5567 -0.0332  0.1713
  105MOL   O26648314   5.046   7.119   1.245  0.1845  0.6187 -0.7060
  105MOL   O26748315   5.125   7.239   1.071  0.0441 -0.0861  0.2214
  105MOL   C26848316   4.783   7.124   1.113 -0.3164  0.9273  0.2412
  105MOL   C26948317   4.651   7.164   1.068 -0.1239 -0.1723 -0.0688
  105MOL   H27048318   4.199   7.610   0.826 -3.3487 -0.3221  3.2913
  105MOL   H27148319   4.334   7.630   0.943 -0.4544  1.1112 -0.8907
  105MOL   H27248320   4.385   7.498   0.718  2.1431  1.3691  1.1717
  105MOL   H27348321   4.306   7.364   0.792  0.7418 -0.6162 -2.9895
  105MOL   H27448322   4.731   7.448   0.899  1.5745 -0.5154  0.0256
  105MOL   H27548323   4.952   7.389   0.980 -0.5243  2.0576  2.8719
  105MOL   H27648324   4.791   7.028   1.163 -2.2651 -0.1531 -1.4279
  105MOL   H27748325   4.574   7.090   1.085  1.9794 -2.8761 -1.8921
  105MOL   O27848326   5.255   7.264   1.142 -0.1532 -0.4086 -0.2401
  105MOL   C27948327   5.271   7.402   1.169  0.2905  0.3144  0.1125
  105MOL   C28048328   5.420   7.420   1.208 -0.6511 -0.0917  0.1937
  105MOL   O28148329   5.499   7.453   1.088  0.4303 -0.0105 -0.4873
  105MOL   C28248330   5.573   7.369   1.028  0.3817  0.4884 -0.1440
  105MOL   O28348331   5.601   7.258   1.073 -0.2021  0.0405 -0.8091
  105MOL   C28448332   5.618   7.403   0.887  0.0456 -0.3199  0.1921
  105MOL   C28548333   5.698   7.310   0.818  0.0637 -0.9816  0.1752
  105MOL   C28648334   5.728   7.333   0.682 -0.6243  0.2317 -0.1784
  105MOL   C28748335   5.709   7.459   0.620 -0.3015  0.4656 -0.0922
  105MOL   C28848336   5.766   7.490   0.488 -0.4095  0.4669  0.0190
  105MOL   O28948337   5.733   7.581   0.415  1.1613  0.2653  0.1542
  105MOL   O29048338   5.871   7.410   0.462  0.2166 -0.0917 -0.2424
  105MOL   C29148339   5.640   7.557   0.694  0.6840 -0.1088  0.0413
  105MOL   C29248340   5.590   7.529   0.828  0.1988 -0.6707 -0.4668
  105MOL   H29348341   5.255   7.451   1.073  0.4091 -0.1965 -0.1735
  105MOL   H29448342   5.193   7.431   1.239 -0.7011  1.7681 -1.5638
  105MOL   H29548343   5.459   7.331   1.256  3.4482  0.3843 -2.0743
  105MOL   H29648344   5.432   7.507   1.273 -3.1137  0.0203  0.5453
  105MOL   H29748345   5.738   7.222   0.868 -0.2992 -1.1074  0.2459
  105MOL   H29848346   5.776   7.255   0.625  1.5855  1.6964 -0.4183
  105MOL   H29948347   5.630   7.649   0.638 -0.9947 -0.7859 -0.8080
  105MOL   H30048348   5.537   7.606   0.882  1.1461  0.7663 -1.5584
  105MOL   O30148349   5.955   7.460   0.350  0.0550  0.3629  0.1363
  105MOL   C30248350   5.916   7.396   0.227 -0.0257 -0.4360 -0.2968
  105MOL   C30348351   5.979   7.259   0.229 -0.1397  0.7066 -0.1138
  105MOL   O30448352   6.121   7.253   0.228  0.3745  0.0425 -0.1566
  105MOL   C30548353   6.174   7.134   0.210 -0.0616  0.3149  0.9435
  105MOL   O30648354   6.115   7.036   0.243 -0.3333  0.2420  0.1293
  105MOL   C30748355   6.315   7.139   0.158  0.5022  0.5461 -0.8576
  105MOL   C30848356   6.374   7.021   0.105  0.0895 -0.1806  0.2166
  105MOL   C30948357   6.510   7.029   0.075 -0.1360 -0.2201 -0.1612
  105MOL   C31048358   6.590   7.140   0.088 -0.0239  0.3214 -0.2141
  105MOL   C31148359   6.736   7.139   0.061  0.2423  0.0370  0.8160
  105MOL   O31248360   6.806   7.239   0.043 -0.3345 -0.2460 -0.1265
  105MOL   O31348361   6.797   7.016   0.071 -0.0423  0.5512 -0.0798
  105MOL   C31448362   6.525   7.255   0.135 -0.5718  0.6759  0.3477
  105MOL   C31548363   6.390   7.259   0.175  0.0229 -0.0392  0.1842
  105MOL   H31648364   5.810   7.370   0.228  0.7643 -4.0420  1.2855
  105MOL   H31748365   5.937   7.457   0.140 -0.6266  0.2717  0.0480
  105MOL   H31848366   5.937   7.210   0.140 -0.4608  1.3052 -0.2989
  105MOL   H31948367   5.942   7.199   0.312  0.0185  2.4100  1.2048
  105MOL   H32048368   6.317   6.932   0.082 -0.8157 -0.4666  3.3686
  105MOL   H32148369   6.557   6.948   0.021 -0.6931 -0.6166 -0.0569
  105MOL   H32248370   6.591   7.340   0.150  0.8766 -0.6933  1.9518
  105MOL   H32348371   6.347   7.353   0.207 -0.8895 -0.0558 -0.9360
  105MOL   O32448372   6.943   7.021   0.099  0.4541 -0.0141 -0.3584
  105MOL   C32548373   7.001   6.942   0.001 -0.3860  0.3209 -0.3160
  105MOL   C32648374   7.082   6.828   0.065  0.6029  0.2768 -0.2988
  105MOL   O32748375   7.165   6.875   0.165  0.3667 -0.3688  0.0294
  105MOL   C32848376   7.295   6.821   0.172  0.6067 -0.9635 -0.1847
  105MOL   O32948377   7.337   6.740   0.090  0.3628 -0.3790  0.3290
  105MOL   C33048378   7.369   6.879   0.285 -0.7050  0.5464 -0.1029
  105MOL   C33148379   7.304   6.961   0.381  1.3704  0.0824 -0.1683
  105MOL   C33248380   7.374   7.021   0.489 -0.2538  0.1289 -0.0491
  105MOL   C33348381   7.514   6.992   0.505  0.1218 -0.6085  0.5641
  105MOL   C33448382   7.586   7.033   0.627  0.9032 -0.2735  0.1810
  105MOL   O33548383   7.695   6.992   0.656  0.1980 -0.0901 -0.0828
  105MOL   O33648384   7.521   7.137   0.683 -0.5942 -0.0706  0.2634
  105MOL   C33748385   7.580   6.914   0.406 -0.0634 -0.8517 -0.0241
  105MOL   C33848386   7.510   6.859   0.294  0.9881  0.5437  0.1520
  105MOL   H33948387   6.934   6.878   8.219 -1.3487  0.1379  0.9966
  105MOL   H34048388   7.062   6.998   8.205 -0.7893  2.1994  0.7736
  105MOL   H34148389   7.128   6.769   8.262 -1.5736  0.4978 -1.7902
  105MOL   H34248390   7.007   6.769   0.118 -0.5585  0.5128 -1.6653
  105MOL   H34348391   7.198   6.978   0.385  1.2857 -0.5696  0.6498
  105MOL   H34448392   7.313   7.083   0.553 -1.3930 -0.5884 -0.4160
  105MOL   H34548393   7.684   6.890   0.415 -0.0359 -0.3050  1.2017
  105MOL   H34648394   7.550   6.787   0.224  2.0924  0.5075  0.8047
  105MOL   O34748395   7.593   7.208   0.790  0.2894  0.1852  0.0816
  105MOL   C34848396   7.697   7.288   0.732  0.1685 -0.6512 -0.1433
  105MOL   C34948397   7.768   7.357   0.855  0.0791 -0.7530 -0.6707
  105MOL   O35048398   7.709   7.478   0.893  0.3358 -0.2043  0.7414
  105MOL   C35148399   7.595   7.483   0.970 -0.1785  0.2116 -0.0536
  105MOL   O35248400   7.533   7.377   0.994 -0.0091 -0.1031  0.2281
  105MOL   C35348401   7.553   7.618   1.012 -0.3892  0.0606  0.2825
  105MOL   C35448402   7.425   7.633   1.069  1.1901  0.2196 -0.1393
  105MOL   C35548403   7.379   7.752   1.116  0.1674  0.0151 -0.1068
  105MOL   C35648404   7.450   7.875   1.097 -0.2659 -0.5990 -0.4874
  105MOL   C35748405   7.391   8.006   1.129 -0.3454  0.3345 -0.3312
  105MOL   O35848406   7.275   8.017   1.174  0.2479  0.2885  0.3321
  105MOL   O35948407   7.478   8.111   1.131 -0.6491  0.7823  0.0145
  105MOL   C36048408   7.586   7.854   1.055 -1.1149 -0.5106 -0.5863
  105MOL   C36148409   7.634   7.728   1.018  0.1795 -0.2729 -0.5187
  105MOL   H36248410   7.781   7.235   0.687  1.4728  1.6135 -0.4398
  105MOL   H36348411   7.648   7.355   0.661 -2.9391 -3.3741 -0.6494
  105MOL   H36448412   7.869   7.385   0.828 -0.4249 -0.9157 -2.8175
  105MOL   H36548413   7.778   7.288   0.939 -0.7113 -0.7061 -0.5339
  105MOL   H36648414   7.365   7.545   1.088  1.1008  0.2222 -0.4020
  105MOL   H36748415   7.275   7.748   1.147  0.4084 -0.7562  0.6161
  105MOL   H36848416   7.656   7.934   1.040 -0.5287 -1.2509 -1.8680
  105MOL   H36948417   7.735   7.717   0.980  0.6621 -1.6831  1.1335
  105MOL   O37048418   7.415   8.235   1.169 -0.3434  0.2086  0.3963
  105MOL   C37148419   7.440   8.262   1.306  0.1301 -0.0955  0.0565
  105MOL   C37248420   7.311   0.025   1.379  0.7361  0.1521 -0.7396
  105MOL   O37348421   7.244   8.178   1.402  0.2875 -0.2987  0.6147
  105MOL   C37448422   7.117   8.186   1.448  0.6156  0.2560 -0.1304
  105MOL   O37548423   7.055   0.016   1.466  1.0015  0.1627 -0.0194
  105MOL   C37648424   7.059   8.053   1.478  0.0735  0.0740 -0.1926
  105MOL   C37748425   7.140   7.938   1.474 -0.5599  0.6326  0.3759
  105MOL   C37848426   7.079   7.812   1.488 -0.6442  0.4194 -0.1599
  105MOL   C37948427   6.940   7.795   1.501 -0.5858  0.1013  0.9898
  105MOL   C38048428   6.875   7.659   1.517  0.6014 -0.3827  1.4805
  105MOL   O38148429   6.938   7.556   1.542 -0.1906 -0.2334  0.0895
  105MOL   O38248430   6.739   7.656   1.483  0.2125 -0.1789 -0.1121
  105MOL   C38348431   6.859   7.906   1.488 -0.4937  0.8011  0.2092
  105MOL   C38448432   6.918   8.031   1.482 -0.6839  0.1275  0.1206
  105MOL   H38548433   7.483   8.170   1.346 -0.1435 -1.2279 -2.2018
  105MOL   H38648434   7.513   0.067   1.316 -0.4951  0.5353 -0.3868
  105MOL   H38748435   7.247   0.076   1.308 -0.4475  0.5879  0.6083
  105MOL   H38848436   7.320   0.085   1.470 -1.3330 -0.7655  0.1025
  105MOL   H38948437   7.246   7.951   1.458 -0.5348 -1.6907 -1.5940
  105MOL   H39048438   7.141   7.724   1.491 -0.2068  0.7425  0.3358
  105MOL   H39148439   6.751   7.902   1.494 -0.6645 -2.7163 -3.1944
  105MOL   H39248440   6.852   8.113   1.508 -0.0228  0.4609  0.7513
  105MOL   O39348441   6.669   7.532   1.531 -0.0447  0.2892 -0.0115
  105MOL   C39448442   6.663   7.453   1.415  0.1919 -0.3212 -0.0984
  105MOL   C39548443   6.595   7.321   1.454  0.3090  0.5380 -0.1842
  105MOL   O39648444   6.682   7.220   1.519  0.0222  0.0918 -0.4575
  105MOL   C39748445   6.760   7.146   1.440  0.4000  0.0625  0.4193
  105MOL   O39848446   6.770   7.160   1.315 -0.1613 -0.1941 -0.6929
  105MOL   C39948447   6.847   7.060   1.522 -0.4338  0.4652 -0.4917
  105MOL   C40048448   6.952   6.988   1.459  0.6324 -0.0883  0.5032
  105MOL   C40148449   7.021   6.885   1.519 -0.3759  0.0619 -0.5431
  105MOL   C40248450   6.985   6.863   1.655  0.1634  0.3283 -0.0965
  105MOL   C40348451   7.064   6.757   1.728  0.2558 -0.0954  0.0454
  105MOL   O40448452   7.178   6.717   1.693  0.0032 -0.1510  0.0834
  105MOL   O40548453   6.992   6.694   1.820 -0.7710 -0.0947 -0.1763
  105MOL   C40648454   6.880   6.932   1.723  0.1789 -0.2224  0.7878
  105MOL   C40748455   6.812   7.027   1.653  0.4242  0.3339 -0.6244
  105MOL   H40848456   6.597   7.500   1.343  1.4498 -1.2074 -1.8947
  105MOL   H40948457   6.764   7.432   1.379  0.4809 -0.6113  0.8622
  105MOL   H41048458   6.555   7.283   1.360 -5.4719  0.9682  1.9012
  105MOL   H41148459   6.527   7.351   1.534  1.5223 -1.5313  1.7048
  105MOL   H41248460   6.970   6.996   1.353  0.5402  1.4976  0.6040
  105MOL   H41348461   7.088   6.825   1.459  1.8978  1.9609 -0.0104
  105MOL   H41448462   6.845   6.901   1.821  0.2066 -0.6489  0.6619
  105MOL   H41548463   6.732   7.086   1.695  1.5143  1.2796  0.1626
  105MOL   O41648464   7.068   6.586   1.892  0.3446  0.2526  0.3631
  105MOL   C41748465   7.122   6.643   2.018  0.1539 -0.0441  0.1280
  105MOL   C41848466   7.099   6.546   2.135  0.0795  0.2418 -0.6467
  105MOL   O41948467   7.151   6.597   2.261  0.2808  0.2087  0.1621
  105MOL   C42048468   7.125   6.536   2.375  0.3589 -0.3485  0.0543
  105MOL   O42148469   7.060   6.432   2.385  0.2616  0.6624 -0.1437
  105MOL   C42248470   7.191   6.611   2.485  0.0508  0.3263  0.5786
  105MOL   C42348471   7.239   6.747   2.478  0.3315  0.7846  0.2737
  105MOL   C42448472   7.297   6.808   2.591  0.7590 -0.4400 -0.3844
  105MOL   C42548473   7.322   6.739   2.709  0.1994  0.4328  0.0283
  105MOL   C42648474   7.392   6.809   2.817 -0.2791  0.3880 -0.3442
  105MOL   O42748475   7.414   6.934   2.816 -0.1538 -0.1542 -0.4006
  105MOL   O42848476   7.438   6.719   2.903  0.0546  0.6352 -0.5118
  105MOL   C42948477   7.275   6.603   2.715 -0.1341 -0.8666 -0.1500
  105MOL   C43048478   7.205   6.549   2.608  0.1038  1.3001 -0.6511
  105MOL   H43148479   7.229   6.663   2.006  0.1622 -1.1432 -1.8852
  105MOL   H43248480   7.084   6.742   2.042  2.4316  1.8717 -3.6542
  105MOL   H43348481   7.124   6.442   2.117 -1.1854 -0.3122  0.6941
  105MOL   H43448482   6.992   6.545   2.156  0.1791  0.0973 -0.1278
  105MOL   H43548483   7.212   6.804   2.390 -0.8042 -2.0653 -1.2625
  105MOL   H43648484   7.337   6.908   2.583  0.3205 -0.0234  2.1387
  105MOL   H43748485   7.288   6.554   2.810  4.8338  0.7477  0.1546
  105MOL   H43848486   7.162   6.454   2.638 -1.0081  1.4467 -1.7505
  105MOL   O43948487   7.489   6.786   3.034 -0.6775  0.1651  0.0737
  105MOL   C44048488   7.630   6.765   3.036 -0.0085  0.9064 -0.7111
  105MOL   C44148489   7.661   6.768   3.184  0.1775 -0.1549  0.3240
  105MOL   O44248490   7.700   6.899   3.224 -0.0242 -0.4576 -0.2187
  105MOL   C44348491   7.774   6.919   3.340  0.0771  0.0952 -0.6974
  105MOL   O44448492   7.792   6.834   3.429 -0.4493  0.0825  0.6252
  105MOL   C44548493   7.822   7.059   3.338 -0.3551  0.1867  0.1509
  105MOL   C44648494   7.908   7.106   3.449 -0.4484 -0.1719 -0.2407
  105MOL   C44748495   7.949   7.239   3.453 -0.0415  0.2976  0.4845
  105MOL   C44848496   7.934   7.329   3.341 -0.3179  0.6696 -0.0089
  105MOL   C44948497   8.000   7.465   3.340  0.7971 -0.0078 -0.3586
  105MOL   O45048498   8.007   7.539   3.242  0.3244 -0.3552  0.6633
  105MOL   O45148499   8.059   7.497   3.457 -0.4193 -0.3545 -0.4759
  105MOL   C45248500   7.854   7.280   3.235  0.1459 -0.2429 -0.2363
  105MOL   C45348501   7.803   7.151   3.232 -0.9595 -0.5913  0.3364
  105MOL   H45448502   7.654   6.668   2.993 -1.8419  0.0118  0.2048
  105MOL   H45548503   7.692   6.837   2.982  0.7235  0.5731 -0.3237
  105MOL   H45648504   7.743   6.698   3.202 -0.8148 -0.8800  2.2075
  105MOL   H45748505   7.572   6.737   3.238 -1.3812  0.3391 -1.9077
  105MOL   H45848506   7.930   7.046   3.536  2.0146 -1.8887 -1.9900
  105MOL   H45948507   8.001   7.267   3.543  1.6639 -0.6141 -0.1849
  105MOL   H46048508   7.848   7.339   3.145  2.7326  2.1472  1.0911
  105MOL   H46148509   7.757   7.121   3.139 -0.4348  0.7096 -0.3488
  105MOL   H46248510   8.135   7.547   3.433 -0.7153  0.3545  0.0735
  106MOL     O148511   8.163   2.975   5.124  0.1829 -0.3234 -0.5149
  106MOL     C248512   8.261   2.966   5.222  0.1341 -0.3635 -0.4484
  106MOL     C348513   8.237   2.827   5.299  0.4678  0.6371 -0.6336
  106MOL     O448514   0.031   2.819   5.426  0.2258 -0.6240 -0.3349
  106MOL     C548515   0.161   2.782   5.429  0.1155  0.5102  0.0881
  106MOL     O648516   0.235   2.753   5.329  0.3067  0.2373  0.0341
  106MOL     C748517   0.221   2.788   5.565  0.0087 -0.4383 -0.0490
  106MOL     C848518   0.136   2.820   5.669 -0.9185  0.3566 -0.1201
  106MOL     C948519   0.185   2.832   5.798  0.0856 -0.3704 -0.1517
  106MOL    C1048520   0.321   2.814   5.830 -0.1525 -0.0151  0.7474
  106MOL    C1148521   0.386   2.823   5.965 -0.4666 -0.4327  0.1832
  106MOL    O1248522   0.507   2.812   5.984  0.1602  0.8143  0.8510
  106MOL    O1348523   0.292   2.841   6.068 -0.1684  0.4086 -0.3604
  106MOL    C1448524   0.404   2.773   5.731 -0.1436 -0.2650  0.7450
  106MOL    C1548525   0.359   2.764   5.598  0.8269 -1.6603  0.2821
  106MOL    H1648526   0.078   2.967   5.164  0.1568  0.3134 -0.3972
  106MOL    H1748527   8.256   3.050   5.291  0.1400  0.8055 -1.8423
  106MOL    H1848528   8.268   2.743   5.236 -0.9354 -1.6718  1.6643
  106MOL    H1948529   8.135   2.820   5.337  0.3914  0.3803 -0.8828
  106MOL    H2048530   0.034   2.845   5.645 -1.0093 -0.9631 -1.2274
  106MOL    H2148531   0.120   2.854   5.881  0.7424  0.5467  0.1294
  106MOL    H2248532   0.509   2.750   5.741 -0.4398 -1.8004  0.4256
  106MOL    H2348533   0.432   2.729   5.527 -0.7469  0.2030 -2.3397
  106MOL    H2448534   8.088   3.020   5.160 -1.2389 -0.1998 -3.4530
  106MOL    O2548535   0.358   2.834   6.204  0.4032 -0.5583 -0.3035
  106MOL    C2648536   0.368   2.971   6.254 -0.3632  0.1768 -0.3600
  106MOL    C2748537   0.445   2.973   6.384 -0.6045  0.2233 -0.4096
  106MOL    O2848538   0.576   2.939   6.353  0.0752 -0.1892 -0.0073
  106MOL    C2948539   0.671   3.040   6.341 -0.6885 -0.8037  1.1142
  106MOL    O3048540   0.640   3.157   6.348 -0.6287 -0.1603  0.0992
  106MOL    C3148541   0.809   2.976   6.309 -0.0076 -0.5441 -0.0322
  106MOL    C3248542   0.823   2.834   6.278 -0.3397 -0.3320 -1.1739
  106MOL    C3348543   0.947   2.791   6.227  0.1092 -0.5901 -0.4083
  106MOL    C3448544   1.062   2.874   6.216  0.0295  0.8833  0.5844
  106MOL    C3548545   1.190   2.825   6.181  0.9386  0.1408  0.7316
  106MOL    O3648546   1.290   2.897   6.173 -0.0901 -0.3364  0.4063
  106MOL    O3748547   1.198   2.692   6.147 -0.0603 -0.3583 -0.3060
  106MOL    C3848548   1.042   3.011   6.250 -0.6628 -0.3124  0.0698
  106MOL    C3948549   0.917   3.059   6.286 -0.3788 -0.4118 -0.1029
  106MOL    H4048550   0.408   3.048   6.188 -1.5461  0.6324 -0.5437
  106MOL    H4148551   0.269   3.015   6.260 -0.8162 -0.5426 -2.1869
  106MOL    H4248552   0.406   2.894   6.450 -2.5813  1.9623  0.5565
  106MOL    H4348553   0.431   3.062   6.446  2.1845 -1.2555  2.5058
  106MOL    H4448554   0.738   2.768   6.288 -1.0558  0.1305 -3.8489
  106MOL    H4548555   0.951   2.686   6.203  1.6247 -0.5466 -0.4145
  106MOL    H4648556   1.124   3.082   6.243 -1.9299  1.0402 -1.5578
  106MOL    H4748557   0.901   3.166   6.292  0.0846 -0.3642  0.2838
  106MOL    O4848558   1.344   2.645   6.160  0.8756 -0.1891 -0.7109
  106MOL    C4948559   1.407   2.660   6.031 -0.5853 -0.3567 -0.6014
  106MOL    C5048560   1.556   2.619   6.035  0.0288  0.1066 -0.7853
  106MOL    O5148561   1.643   2.726   6.083 -0.2249  0.2139  0.1139
  106MOL    C5248562   1.723   2.789   5.991  0.2664 -0.0567 -0.0481
  106MOL    O5348563   1.747   2.757   5.875  0.6814  0.2042  0.1896
  106MOL    C5448564   1.778   2.914   6.049  0.1537  0.0104 -0.5253
  106MOL    C5548565   1.893   2.975   5.992  0.2961 -0.0449  0.3736
  106MOL    C5648566   1.955   3.082   6.058 -0.3918  0.9895  0.3458
  106MOL    C5748567   1.896   3.139   6.172  0.4946  0.3330 -0.5938
  106MOL    C5848568   1.955   3.257   6.242  0.7937  0.9105  0.1574
  106MOL    O5948569   1.891   3.336   6.312  0.4239 -0.9039 -0.9579
  106MOL    O6048570   2.085   3.274   6.214  0.6615 -0.6862 -0.5008
  106MOL    C6148571   1.778   3.091   6.223  0.3092 -0.1993 -1.0049
  106MOL    C6248572   1.712   2.982   6.158  0.8672  0.3924  0.7871
  106MOL    H6348573   1.357   2.585   5.969  1.0118 -2.3558  0.4412
  106MOL    H6448574   1.383   2.756   5.986 -0.0062  0.5689  1.0429
  106MOL    H6548575   1.580   2.578   5.937  0.0428 -0.3552 -0.5876
  106MOL    H6648576   1.558   2.531   6.100 -1.4468  0.7899  0.2225
  106MOL    H6748577   1.945   2.936   5.906  0.3479 -0.2906  0.5142
  106MOL    H6848578   2.049   3.108   6.011 -0.6494 -0.6578 -1.1649
  106MOL    H6948579   1.729   3.150   6.299  0.5765 -0.5480 -0.5600
  106MOL    H7048580   1.622   2.944   6.204  2.6077 -1.7371  2.6192
  106MOL    O7148581   2.146   3.391   6.294 -0.2044 -0.4004 -0.0193
  106MOL    C7248582   2.201   3.336   6.408  0.3000 -0.2862  0.4534
  106MOL    C7348583   2.318   3.244   6.379  0.6424  0.4835  0.1571
  106MOL    O7448584   2.417   3.253   6.477 -0.1322 -0.2994 -0.1667
  106MOL    C7548585   2.501   3.359   6.482 -0.1307  0.4325  0.2040
  106MOL    O7648586   2.506   3.441   6.386 -0.4368  0.6548 -0.7937
  106MOL    C7748587   2.588   3.363   6.603  0.0187  0.4714 -0.3475
  106MOL    C7848588   2.660   3.475   6.622  0.2614 -0.1006 -0.2055
  106MOL    C7948589   2.752   3.483   6.727 -0.0087 -0.6238 -0.0061
  106MOL    C8048590   2.775   3.373   6.810 -0.1603  0.2968 -0.1659
  106MOL    C8148591   2.891   3.383   6.913 -0.2382 -0.0633 -0.0421
  106MOL    O8248592   2.926   3.283   6.980  0.1745 -0.5517 -0.3531
  106MOL    O8348593   2.940   3.503   6.919 -0.5517  0.5024 -0.3414
  106MOL    C8448594   2.690   3.258   6.802  0.5955  0.3510  0.1752
  106MOL    C8548595   2.599   3.253   6.694  0.0133 -0.1924  0.1081
  106MOL    H8648596   2.235   3.422   6.464  1.7350 -0.5803  0.0592
  106MOL    H8748597   2.131   3.283   6.472  1.4198 -1.5310  0.6790
  106MOL    H8848598   2.363   3.261   6.281  1.0314 -2.0475 -0.1256
  106MOL    H8948599   2.290   3.140   6.366  2.1755 -0.1929  2.0481
  106MOL    H9048600   2.646   3.562   6.559  0.5749 -0.5510 -0.9012
  106MOL    H9148601   2.802   3.578   6.740  0.1653 -0.7097 -0.0609
  106MOL    H9248602   2.694   3.180   6.876  0.5589  0.1173 -0.0711
  106MOL    H9348603   2.533   3.168   6.692  0.2544 -0.3966  0.7987
  106MOL    O9448604   3.050   3.520   7.025 -0.6387  0.5373  0.1484
  106MOL    C9548605   3.006   3.621   7.115  0.3518 -0.7054 -0.1058
  106MOL    C9648606   3.126   3.695   7.174  0.1382 -0.4820  0.0383
  106MOL    O9748607   3.127   3.831   7.138 -0.2925  0.2152 -0.0890
  106MOL    C9848608   3.171   3.866   7.017 -0.4313  0.3070 -0.0176
  106MOL    O9948609   3.219   3.796   6.925 -0.5909  0.5506 -0.0493
  106MOL   C10048610   3.163   4.011   6.989 -0.7379 -0.3611 -0.1219
  106MOL   C10148611   3.089   4.099   7.071 -0.5124 -0.6015 -0.4424
  106MOL   C10248612   3.088   4.238   7.048  0.3690  0.5244  0.2329
  106MOL   C10348613   3.179   4.293   6.953 -0.0138  0.0414 -0.2312
  106MOL   C10448614   3.187   4.444   6.957  0.2327 -0.3037  0.2556
  106MOL   O10548615   3.148   4.510   7.049 -0.0328 -0.2801  0.2887
  106MOL   O10648616   3.240   4.489   6.844  0.5457 -0.3937 -0.0716
  106MOL   C10748617   3.258   4.206   6.876  0.1911 -0.0424  0.2204
  106MOL   C10848618   3.238   4.065   6.881 -0.0588  0.4921 -0.1883
  106MOL   H10948619   2.933   3.697   7.088  0.8466 -0.3319 -0.3706
  106MOL   H11048620   2.963   3.570   7.201 -0.0867  1.6153  1.0898
  106MOL   H11148621   3.222   3.657   7.139 -0.8623 -2.4795 -0.6028
  106MOL   H11248622   3.139   3.687   7.282  0.2277 -0.1645  0.0515
  106MOL   H11348623   3.031   4.056   7.151  1.2749  1.0959  1.8412
  106MOL   H11448624   3.038   4.307   7.114 -1.4770  0.1746 -0.7371
  106MOL   H11548625   3.317   4.260   6.803  0.0489  0.4733  0.4809
  106MOL   H11648626   3.295   3.999   6.818  1.7644  1.3190  0.5739
  106MOL   O11748627   3.239   4.638   6.830  0.1567  0.0209 -0.0715
  106MOL   C11848628   3.138   4.668   6.742  0.0625 -0.6126  0.3209
  106MOL   C11948629   3.177   4.643   6.598  0.0441 -0.5285 -0.2927
  106MOL   O12048630   3.205   4.761   6.526 -0.0797  0.3032 -0.2073
  106MOL   C12148631   3.294   4.763   6.434 -0.7059 -0.4527 -0.0087
  106MOL   O12248632   3.363   4.674   6.391  0.0374 -0.6644 -0.1222
  106MOL   C12348633   3.301   4.898   6.366  0.4934  0.2203  0.3112
  106MOL   C12448634   3.355   4.910   6.238  0.3885 -0.5611  0.0721
  106MOL   C12548635   3.350   5.032   6.162 -0.8231  0.2338 -0.2633
  106MOL   C12648636   3.277   5.139   6.214  0.4502  0.4501  0.0976
  106MOL   C12748637   3.265   5.257   6.129 -0.4460 -0.1479 -0.4852
  106MOL   O12848638   3.329   5.276   6.025  0.4029  0.6315 -0.2275
  106MOL   O12948639   3.178   5.343   6.176 -0.3128  0.2423 -0.3196
  106MOL   C13048640   3.222   5.125   6.342 -0.0225 -0.3192 -0.4564
  106MOL   C13148641   3.248   5.013   6.425  0.2454  0.0606 -0.8898
  106MOL   H13248642   3.053   4.601   6.758 -1.1293  0.6458 -0.6513
  106MOL   H13348643   3.105   4.770   6.760 -1.7226 -0.8022 -1.6716
  106MOL   H13448644   3.088   4.595   6.555  0.4923 -1.0522 -0.6459
  106MOL   H13548645   3.266   4.581   6.609  0.4455  0.1980  0.6660
  106MOL   H13648646   3.387   4.821   6.187 -2.4763 -1.7595  0.2513
  106MOL   H13748647   3.390   5.030   6.062 -0.9356  1.1586 -0.3334
  106MOL   H13848648   3.158   5.203   6.378  1.3755  0.6271  0.0028
  106MOL   H13948649   3.207   5.001   6.524  1.5394 -2.3995 -0.6058
  106MOL   O14048650   3.166   5.471   6.089 -0.1240  0.5110 -0.3798
  106MOL   C14148651   3.197   5.585   6.172  0.0361  0.1239  0.1444
  106MOL   C14248652   3.088   5.601   6.278 -0.5509  0.3827 -0.6304
  106MOL   O14348653   2.967   5.634   6.205 -0.5187  0.5164  0.2376
  106MOL   C14448654   2.884   5.743   6.217  0.3130 -0.2014 -0.0947
  106MOL   O14548655   2.899   5.829   6.308  0.7358 -0.2840  0.4173
  106MOL   C14648656   2.784   5.749   6.105 -0.5760  0.2300 -0.0430
  106MOL   C14748657   2.779   5.653   6.000 -0.2475 -0.5588 -0.4700
  106MOL   C14848658   2.690   5.676   5.894  0.7827  0.1658  0.2588
  106MOL   C14948659   2.603   5.785   5.884 -0.4157  0.8070 -0.1587
  106MOL   C15048660   2.496   5.787   5.783  0.7741  0.1792 -0.0462
  106MOL   O15148661   2.462   5.683   5.719  0.2531 -0.3896  0.6236
  106MOL   O15248662   2.450   5.911   5.763  0.0603  0.2725  0.7016
  106MOL   C15348663   2.617   5.882   5.983  0.5431  0.2701  0.0827
  106MOL   C15448664   2.710   5.865   6.089  0.3008 -0.6431  0.7558
  106MOL   H15548665   3.296   5.562   6.212 -0.6264  0.3272  1.9623
  106MOL   H15648666   3.206   5.680   6.121  0.1084 -1.4027 -2.8115
  106MOL   H15748667   3.117   5.682   6.344  0.9947 -0.4130 -0.3046
  106MOL   H15848668   3.081   5.508   6.334  1.0330 -0.2070 -1.3842
  106MOL   H15948669   2.850   5.571   5.996 -1.4280 -1.7590  1.8432
  106MOL   H16048670   2.680   5.602   5.816 -1.0487 -0.0535  0.6872
  106MOL   H16148671   2.558   5.972   5.991 -0.5664 -0.3617 -0.7916
  106MOL   H16248672   2.705   5.945   6.162 -1.6500 -0.0154 -0.0127
  106MOL   O16348673   2.320   5.913   5.684 -0.3687 -0.4820  0.1739
  106MOL   C16448674   2.353   5.938   5.548 -0.6449 -0.3890 -0.1499
  106MOL   C16548675   2.231   5.947   5.457 -0.9323 -0.1033 -0.0987
  106MOL   O16648676   2.164   5.821   5.451  0.1539 -0.3918  0.0391
  106MOL   C16748677   2.049   5.804   5.526 -0.4615 -0.7879  0.6384
  106MOL   O16848678   2.006   5.883   5.608 -0.1086 -0.3386  0.2332
  106MOL   C16948679   1.979   5.680   5.488  0.2883 -0.0636 -0.1503
  106MOL   C17048680   2.005   5.626   5.361  0.1368  0.4509 -0.9651
  106MOL   C17148681   1.946   5.503   5.321 -0.7392  0.3616  0.2668
  106MOL   C17248682   1.867   5.427   5.416 -0.2481 -1.5494 -0.4029
  106MOL   C17348683   1.801   5.299   5.369  0.7097 -0.0511 -0.8160
  106MOL   O17448684   1.716   5.240   5.441 -0.6503  0.2685  0.1811
  106MOL   O17548685   1.839   5.264   5.248  0.1019 -0.1339  0.3829
  106MOL   C17648686   1.832   5.494   5.539  0.1138 -0.0040 -0.0197
  106MOL   C17748687   1.889   5.617   5.577 -0.3010 -0.3472 -0.4201
  106MOL   H17848688   2.403   6.035   5.557 -0.8218 -0.3860  0.8979
  106MOL   H17948689   2.422   5.860   5.516  0.0171  0.2605 -0.3166
  106MOL   H18048690   2.271   5.975   5.359  1.2865 -0.5588  0.6442
  106MOL   H18148691   2.156   6.025   5.469  1.0231  1.8677 -0.3852
  106MOL   H18248692   2.076   5.674   5.296  0.5595  0.5242 -0.4505
  106MOL   H18348693   1.971   5.474   5.220 -0.2947  1.2339  0.1217
  106MOL   H18448694   1.770   5.439   5.608 -0.9206  0.1681 -0.7890
  106MOL   H18548695   1.871   5.665   5.673  2.0073 -0.2100 -0.0206
  106MOL   O18648696   1.758   5.146   5.205  0.5781 -0.0942  0.8593
  106MOL   C18748697   1.635   5.193   5.136  1.1556 -0.5933 -0.5774
  106MOL   C18848698   1.529   5.086   5.161 -0.7293  0.0867 -0.2176
  106MOL   O18948699   1.543   4.984   5.073  0.6189 -0.0896 -0.2164
  106MOL   C19048700   1.437   4.909   5.041  0.4299  0.1684  0.5561
  106MOL   O19148701   1.321   4.912   5.078 -0.0780  0.4637  0.2433
  106MOL   C19248702   1.470   4.796   4.941 -0.9520 -1.0388 -0.2623
  106MOL   C19348703   1.601   4.745   4.936 -0.1171 -0.6694  0.1579
  106MOL   C19448704   1.639   4.653   4.840  0.4497 -0.0805  0.4664
  106MOL   C19548705   1.543   4.602   4.748 -0.3742 -0.6198  0.3274
  106MOL   C19648706   1.572   4.490   4.656  0.4989 -0.7463  0.1664
  106MOL   O19748707   1.493   4.456   4.564  0.0096  0.2531  0.0074
  106MOL   O19848708   1.688   4.434   4.689  0.2670  0.3104 -0.9328
  106MOL   C19948709   1.415   4.655   4.748 -0.0898 -0.3200  0.4720
  106MOL   C20048710   1.377   4.748   4.847  0.0183  0.2830 -0.1546
  106MOL   H20148711   1.604   5.290   5.176 -0.1710 -1.0823 -0.3759
  106MOL   H20248712   1.643   5.202   5.028 -0.5595 -1.9351 -0.8433
  106MOL   H20348713   1.432   5.132   5.142 -0.4828  1.1524  1.0451
  106MOL   H20448714   1.532   5.047   5.262 -1.1873  0.8468  0.0908
  106MOL   H20548715   1.682   4.766   5.005  1.5212 -2.1749 -1.2583
  106MOL   H20648716   1.733   4.603   4.855  1.0669 -0.0704 -2.9043
  106MOL   H20748717   1.334   4.618   4.687  1.0403 -2.2271  0.0872
  106MOL   H20848718   1.277   4.788   4.853 -0.0654  0.0759 -0.1388
  106MOL   O20948719   1.733   4.327   4.593 -0.2439  0.0239  0.4833
  106MOL   C21048720   1.827   4.380   4.502  0.0593  0.1239 -0.2182
  106MOL   C21148721   1.943   4.281   4.483 -0.4377 -0.9569  0.1532
  106MOL   O21248722   1.937   4.219   4.359  0.2782 -0.0552 -0.2837
  106MOL   C21348723   1.976   4.272   4.241  0.4716  0.2224  0.4298
  106MOL   O21448724   2.013   4.389   4.230  0.0634  0.2493 -0.3425
  106MOL   C21548725   1.974   4.168   4.131  0.4001  1.2463 -0.1195
  106MOL   C21648726   1.955   4.031   4.150  0.1862  0.3887 -0.7641
  106MOL   C21748727   1.951   3.942   4.038  0.1965  0.5661  0.1127
  106MOL   C21848728   1.982   3.990   3.911 -0.2107  0.0683 -0.6947
  106MOL   C21948729   1.984   3.896   3.793  0.4381 -0.2046 -0.2039
  106MOL   O22048730   1.998   3.929   3.674 -0.3718  0.2113 -0.2884
  106MOL   O22148731   1.961   3.770   3.823  0.6489 -0.1659 -0.1311
  106MOL   C22248732   2.004   4.120   3.889  0.5109  0.1275 -0.4790
  106MOL   C22348733   2.002   4.211   3.999 -0.3762  0.5851 -0.1053
  106MOL   H22448734   1.780   4.405   4.406 -1.9893  0.0648  0.7442
  106MOL   H22548735   1.868   4.470   4.548 -0.5660  0.6747 -0.7232
  106MOL   H22648736   1.936   4.208   4.564 -2.9331 -0.2129  0.6672
  106MOL   H22748737   2.033   4.342   4.488 -0.9509 -0.0732 -1.1980
  106MOL   H22848738   1.936   4.000   4.252 -0.2570  0.9484 -0.6757
  106MOL   H22948739   1.935   3.836   4.053  0.5125  0.6471  1.0437
  106MOL   H23048740   1.996   4.154   3.787  0.4439  2.5325  0.2973
  106MOL   H23148741   2.022   4.315   3.978  0.7700  0.4810  0.4905
  106MOL   O23248742   1.943   3.672   3.712 -0.4217 -0.1772  0.5238
  106MOL   C23348743   1.822   3.616   3.726  0.9000  0.1474 -0.8740
  106MOL   C23448744   1.713   3.704   3.659 -0.3623 -0.2549 -0.7548
  106MOL   O23548745   1.672   3.796   3.764  0.4921  0.3168 -0.2556
  106MOL   C23648746   1.658   3.925   3.739 -0.2001  0.2770 -0.8058
  106MOL   O23748747   1.674   3.983   3.637  0.1912 -0.7949  0.4125
  106MOL   C23848748   1.622   4.001   3.862  0.4433  0.3526 -0.1256
  106MOL   C23948749   1.551   3.933   3.964  0.3316  0.0624  0.6794
  106MOL   C24048750   1.499   4.005   4.077  0.0328 -0.7145 -0.4015
  106MOL   C24148751   1.533   4.143   4.088 -0.1310 -0.6210  0.3548
  106MOL   C24248752   1.493   4.217   4.215 -0.9047  0.6462  0.2995
  106MOL   O24348753   1.546   4.329   4.243 -0.5260  0.0815 -0.3307
  106MOL   O24448754   1.408   4.144   4.289  0.2888  0.3173 -0.0893
  106MOL   C24548755   1.616   4.207   3.990  0.4151  0.7979  0.2504
  106MOL   C24648756   1.656   4.138   3.871 -0.0101  0.1199  0.9695
  106MOL   H24748757   1.832   3.523   3.670 -1.1032  0.7745 -2.3528
  106MOL   H24848758   1.800   3.592   3.830 -0.9310 -0.4808 -1.3827
  106MOL   H24948759   1.627   3.642   3.630 -0.4724 -0.9844  1.0924
  106MOL   H25048760   1.758   3.742   3.567 -1.0628  1.7160 -0.2921
  106MOL   H25148761   1.521   3.829   3.959 -0.0491  0.2213 -0.4983
  106MOL   H25248762   1.450   3.950   4.155  5.2430 -1.1958  2.7770
  106MOL   H25348763   1.641   4.312   3.999  1.4461  0.8836 -2.8858
  106MOL   H25448764   1.711   4.195   3.798 -0.3943 -2.0732 -1.0804
  106MOL   O25548765   1.401   4.183   4.434  0.1931 -0.2299  0.0648
  106MOL   C25648766   1.504   4.123   4.506 -0.8858 -0.2135 -0.3150
  106MOL   C25748767   1.479   3.982   4.559  0.0139  0.4554  0.3075
  106MOL   O25848768   1.483   3.879   4.460  0.5258 -0.6397  0.2291
  106MOL   C25948769   1.594   3.836   4.410 -0.4509 -0.0257 -0.6007
  106MOL   O26048770   1.707   3.867   4.452 -0.6806 -0.0961 -0.1481
  106MOL   C26148771   1.582   3.739   4.292  0.1831  0.1593 -0.3101
  106MOL   C26248772   1.693   3.693   4.219  0.3390  0.1813 -0.2437
  106MOL   C26348773   1.675   3.615   4.104  0.3214 -0.1066  0.5075
  106MOL   C26448774   1.547   3.584   4.060  0.6331  0.4055 -0.2585
  106MOL   C26548775   1.521   3.500   3.940 -0.0638  0.0395  0.0708
  106MOL   O26648776   1.588   3.401   3.901  0.0240 -1.1805  0.1599
  106MOL   O26748777   1.429   3.566   3.865  0.8229 -0.0405  0.0542
  106MOL   C26848778   1.438   3.631   4.133 -0.4106  0.1833  0.1904
  106MOL   C26948779   1.457   3.695   4.256  0.0056  0.0861  0.9905
  106MOL   H27048780   1.594   4.123   4.444 -1.2025  1.1865 -0.7964
  106MOL   H27148781   1.528   4.190   4.588 -1.9482 -0.9521  0.6144
  106MOL   H27248782   1.383   3.984   4.610  0.2743  1.3354  0.7821
  106MOL   H27348783   1.550   3.968   4.641  0.1556  1.8331  0.4444
  106MOL   H27448784   1.793   3.718   4.253  0.5162 -1.4684  0.5401
  106MOL   H27548785   1.764   3.571   4.060  0.2514 -0.2022  0.4633
  106MOL   H27648786   1.338   3.602   4.104 -0.0550 -1.0692  0.1819
  106MOL   H27748787   1.365   3.731   4.300 -0.6120  1.8905 -1.6642
  106MOL   O27848788   1.376   3.495   3.745  0.5911  0.0566  0.3350
  106MOL   C27948789   1.245   3.460   3.765 -0.7164  0.1631  0.2148
  106MOL   C28048790   1.223   3.335   3.849  0.0967  0.5704 -0.8092
  106MOL   O28148791   1.233   3.351   3.993 -0.1330 -0.0388  0.5550
  106MOL   C28248792   1.128   3.414   4.057  0.2118 -0.5729  0.2309
  106MOL   O28348793   1.035   3.461   3.996  0.5903  0.1365  0.2297
  106MOL   C28448794   1.139   3.416   4.206 -0.2728  0.7190  0.0015
  106MOL   C28548795   1.258   3.361   4.271 -0.2652 -0.5593 -0.6849
  106MOL   C28648796   1.278   3.383   4.411  0.6338  0.0195  0.1999
  106MOL   C28748797   1.175   3.444   4.486  0.1144 -0.3455 -0.3630
  106MOL   C28848798   1.192   3.472   4.629 -0.4888  0.2900 -0.1608
  106MOL   O28948799   1.304   3.475   4.684 -0.2320 -0.0785  0.2652
  106MOL   O29048800   1.081   3.503   4.695 -0.7474  0.5605 -0.7270
  106MOL   C29148801   1.051   3.481   4.423  0.3953 -0.1125 -0.7600
  106MOL   C29248802   1.037   3.474   4.286  0.2979  0.1377 -0.1555
  106MOL   H29348803   1.180   3.546   3.783  0.2213  0.5947  1.5872
  106MOL   H29448804   1.222   3.430   3.663  1.8319 -1.6459  0.1270
  106MOL   H29548805   1.285   3.250   3.819  0.7660  0.2455  1.3794
  106MOL   H29648806   1.123   3.295   3.831 -0.4629  1.0923  0.9926
  106MOL   H29748807   1.344   3.323   4.217  0.8537  1.3917 -0.3388
  106MOL   H29848808   1.363   3.345   4.466 -1.1616 -0.7047  2.5823
  106MOL   H29948809   0.976   3.526   4.486  1.9863  2.0261 -0.3124
  106MOL   H30048810   0.951   3.523   4.241  0.5186  2.1424  1.5326
  106MOL   O30148811   1.113   3.573   4.823 -0.7086 -0.1639 -0.3977
  106MOL   C30248812   1.043   3.510   4.929 -0.2967  0.3833 -0.5240
  106MOL   C30348813   0.900   3.554   4.912  0.1889 -0.6187 -0.4263
  106MOL   O30448814   0.831   3.536   5.034 -0.0751 -0.8259 -0.4815
  106MOL   C30548815   0.819   3.637   5.127  0.5220 -0.2625 -0.6662
  106MOL   O30648816   0.850   3.759   5.108  0.3389  0.2314 -0.0157
  106MOL   C30748817   0.783   3.586   5.255 -0.2155  0.6297 -1.0708
  106MOL   C30848818   0.800   3.676   5.367 -0.0909  0.7909 -0.2109
  106MOL   C30948819   0.771   3.630   5.502  0.0249  0.0210 -0.2334
  106MOL   C31048820   0.690   3.520   5.514  0.3548  0.2082 -0.4796
  106MOL   C31148821   0.633   3.477   5.647  0.4198  0.0555 -0.5189
  106MOL   O31248822   0.596   3.359   5.659 -0.3915  0.0916  0.4206
  106MOL   O31348823   0.645   3.569   5.738 -0.1815 -0.0313 -0.0245
  106MOL   C31448824   0.669   3.429   5.409 -0.9542  0.5736  0.5901
  106MOL   C31548825   0.722   3.464   5.276  0.0447  0.3641  0.1897
  106MOL   H31648826   1.055   3.402   4.939  1.6716  0.7233  1.0612
  106MOL   H31748827   1.083   3.557   5.019  0.3743  0.4146 -0.8320
  106MOL   H31848828   0.846   3.485   4.847  0.4389 -0.8595 -0.3836
  106MOL   H31948829   0.891   3.658   4.879 -2.7056 -0.6957  0.0307
  106MOL   H32048830   0.842   3.775   5.352  0.4932  0.3559 -1.5797
  106MOL   H32148831   0.782   3.699   5.585  0.6450 -0.8696  0.4344
  106MOL   H32248832   0.617   3.336   5.424 -0.7526  0.7132  2.2877
  106MOL   H32348833   0.700   3.402   5.190  2.0515  0.0858 -0.1546
  106MOL   O32448834   0.584   3.535   5.873 -0.0089 -0.2128 -0.0485
  106MOL   C32548835   0.687   3.482   5.955 -0.5382 -0.1312  0.0894
  106MOL   C32648836   0.629   3.382   6.049  0.4963  0.6901  0.7033
  106MOL   O32748837   0.556   3.447   6.149  0.3274  0.0434  0.5714
  106MOL   C32848838   0.615   3.487   6.263  0.2095  0.1074  0.7591
  106MOL   O32948839   0.736   3.483   6.279 -0.0539  0.3295 -0.2106
  106MOL   C33048840   0.520   3.540   6.365 -0.9610 -0.0169 -1.3478
  106MOL   C33148841   0.576   3.548   6.492 -0.1869 -0.3944 -0.1514
  106MOL   C33248842   0.492   3.595   6.596  0.2331  0.1704  0.6042
  106MOL   C33348843   0.364   3.647   6.581  0.0178  0.5584  0.4053
  106MOL   C33448844   0.278   3.689   6.694  0.5528 -0.5570  0.1278
  106MOL   O33548845   0.158   3.690   6.685  0.3389  0.0675 -0.0379
  106MOL   O33648846   0.346   3.727   6.803 -0.4218 -0.1230 -0.1154
  106MOL   C33748847   0.306   3.642   6.450  0.3250 -0.1054 -0.7144
  106MOL   C33848848   0.385   3.588   6.342  0.5801  0.0658 -0.5999
  106MOL   H33948849   0.767   3.440   5.895 -0.7349 -1.6100  0.8403
  106MOL   H34048850   0.727   3.563   6.016  0.2556  1.2241 -2.1785
  106MOL   H34148851   0.712   3.330   6.097 -0.5960  0.5160  2.4764
  106MOL   H34248852   0.560   3.312   6.003  1.0442 -0.0413  0.9882
  106MOL   H34348853   0.674   3.513   6.518 -0.3167 -0.4574  0.2563
  106MOL   H34448854   0.534   3.583   6.695  1.8623  0.7735  0.0087
  106MOL   H34548855   0.207   3.678   6.426 -0.5883 -2.4991 -0.6357
  106MOL   H34648856   0.351   3.605   6.241 -2.5330  1.0140  0.5415
  106MOL   O34748857   0.267   3.777   6.922 -0.0408  0.1965  0.0382
  106MOL   C34848858   0.300   3.687   7.028  0.6193 -0.8328  0.7306
  106MOL   C34948859   0.235   3.551   6.999  0.5586  0.1734 -0.1651
  106MOL   O35048860   0.316   3.449   6.935 -0.4137  0.2933  0.0432
  106MOL   C35148861   0.403   3.375   7.013 -0.5086 -0.4093  0.1741
  106MOL   O35248862   0.407   3.380   7.138 -0.1707 -0.3218 -0.2598
  106MOL   C35348863   0.506   3.299   6.935 -0.2815 -0.2877  0.0738
  106MOL   C35448864   0.487   3.253   6.797  0.2439  0.0302 -0.3945
  106MOL   C35548865   0.579   3.171   6.735 -0.4722  0.4653  0.7909
  106MOL   C35648866   0.704   3.156   6.797  0.2613  0.1603  0.8340
  106MOL   C35748867   0.811   3.077   6.722 -0.5850 -0.4423  0.3922
  106MOL   O35848868   0.773   3.017   6.622 -0.4122  0.6479  0.6072
  106MOL   O35948869   0.933   3.084   6.783  0.3735 -0.0931 -0.0624
  106MOL   C36048870   0.729   3.210   6.925  1.2649 -1.1989 -0.7821
  106MOL   C36148871   0.631   3.283   6.992 -0.7040  0.3627 -0.1098
  106MOL   H36248872   0.406   3.682   7.053  1.0739 -0.8059 -1.1175
  106MOL   H36348873   0.249   3.740   7.109 -0.3769 -3.7749  2.1008
  106MOL   H36448874   0.143   3.563   6.941 -0.1605 -1.7202  0.5546
  106MOL   H36548875   0.188   3.519   7.092 -0.0017 -0.6366 -0.7154
  106MOL   H36648876   0.397   3.276   6.743  0.3937  1.4190 -0.0802
  106MOL   H36748877   0.552   3.143   6.635 -1.4241  3.4730  0.1597
  106MOL   H36848878   0.823   3.191   6.973  1.2802  1.6521  0.3876
  106MOL   H36948879   0.650   3.305   7.096  0.5778 -1.4095  0.0552
  106MOL   O37048880   1.029   2.978   6.742  0.2474 -0.2362 -0.2502
  106MOL   C37148881   1.130   3.031   6.650  0.5486  0.1030  0.3885
  106MOL   C37248882   1.210   2.919   6.587 -0.1047  0.6947  0.1336
  106MOL   O37348883   1.348   2.909   6.621  0.0469 -0.2344  0.1510
  106MOL   C37448884   1.429   3.001   6.576  0.5789  0.2151  0.0448
  106MOL   O37548885   1.399   3.100   6.508  0.0255  0.5398  0.1373
  106MOL   C37648886   1.574   2.979   6.603  0.9567 -0.1007 -0.4840
  106MOL   C37748887   1.624   2.872   6.686 -0.1934 -0.0756 -0.1517
  106MOL   C37848888   1.764   2.860   6.715  0.1640 -0.5209 -1.4363
  106MOL   C37948889   1.857   2.960   6.674 -0.0981 -0.3202  0.5443
  106MOL   C38048890   2.005   2.965   6.706  0.7577  0.2203  0.3249
  106MOL   O38148891   2.057   2.891   6.794  0.5065 -0.3556  0.5328
  106MOL   O38248892   2.073   3.058   6.631  0.7405  0.2236 -0.6076
  106MOL   C38348893   1.802   3.068   6.594  0.2059  0.2807 -0.5431
  106MOL   C38448894   1.668   3.078   6.567 -0.8025  0.6801  0.0800
  106MOL   H38548895   1.071   3.090   6.580  1.4731  0.9013  0.2709
  106MOL   H38648896   1.186   3.104   6.709 -1.3128  0.0177  2.3444
  106MOL   H38748897   1.198   2.947   6.482  1.4349  0.3526 -0.1488
  106MOL   H38848898   1.164   2.823   6.612 -0.7240  0.7153 -0.9251
  106MOL   H38948899   1.552   2.802   6.725 -1.9580  1.4020 -0.6881
  106MOL   H39048900   1.795   2.772   6.771 -1.2647 -0.8371 -1.1427
  106MOL   H39148901   1.862   3.152   6.563  0.2176  0.7998  0.8373
  106MOL   H39248902   1.643   3.165   6.508 -1.9653  0.9882  1.0160
  106MOL   O39348903   2.217   3.083   6.668 -0.0514 -0.8858  0.5625
  106MOL   C39448904   2.232   3.211   6.733  0.0485  0.1962  0.0697
  106MOL   C39548905   2.225   3.181   6.878 -0.2399  0.6170  0.4078
  106MOL   O39648906   2.095   3.166   6.929  0.0374 -0.3070  0.1700
  106MOL   C39748907   2.002   3.269   6.927 -0.4349  0.1718  0.5420
  106MOL   O39848908   2.016   3.376   6.874  0.2447 -0.3839  0.0880
  106MOL   C39948909   1.875   3.220   6.990  0.5961  0.2838  0.2374
  106MOL   C40048910   1.780   3.317   7.025 -0.6824  0.2083 -0.1284
  106MOL   C40148911   1.669   3.292   7.100  0.3005 -0.8781 -0.2352
  106MOL   C40248912   1.650   3.158   7.149  0.4969 -0.3708 -0.3767
  106MOL   C40348913   1.527   3.120   7.225  0.7824 -0.1707  0.3303
  106MOL   O40448914   1.439   3.198   7.255 -0.0513 -0.9734  0.4221
  106MOL   O40548915   1.523   2.993   7.263  0.3984  0.1712  0.2824
  106MOL   C40648916   1.728   3.054   7.094  0.6142  0.0702 -0.3237
  106MOL   C40748917   1.840   3.087   7.019  0.0670  0.2257 -0.4629
  106MOL   H40848918   2.334   3.247   6.724  0.8025 -2.6269 -3.6356
  106MOL   H40948919   2.167   3.291   6.696 -1.2139  0.6267  3.0599
  106MOL   H41048920   2.256   3.264   6.941 -1.7218  1.0693  0.5406
  106MOL   H41148921   2.271   3.088   6.912 -0.1363 -0.2538 -1.9965
  106MOL   H41248922   1.804   3.412   6.982 -1.0518  0.0814 -0.6147
  106MOL   H41348923   1.602   3.371   7.130  1.7692 -0.1785  1.2759
  106MOL   H41448924   1.693   2.953   7.113  0.0178  0.3286 -0.0440
  106MOL   H41548925   1.901   3.000   7.000  0.0178  0.1526 -0.2888
  106MOL   O41648926   1.392   2.960   7.338 -0.3171  0.1085  0.3154
  106MOL   C41748927   1.398   2.991   7.480  0.3589  0.4402  0.1194
  106MOL   C41848928   1.513   2.917   7.558  0.1876 -0.8109  0.4375
  106MOL   O41948929   1.624   3.005   7.556  0.2136  0.7464 -0.5754
  106MOL   C42048930   1.614   3.137   7.608 -0.5292 -0.1960  0.8161
  106MOL   O42148931   1.536   3.176   7.690  0.3129  0.6147 -0.4935
  106MOL   C42248932   1.734   3.209   7.566  0.5135  0.1013  0.3900
  106MOL   C42348933   1.817   3.176   7.452  0.1823 -0.4976 -0.1390
  106MOL   C42448934   1.931   3.258   7.427 -0.0775 -0.5843  0.1872
  106MOL   C42548935   1.974   3.366   7.506  1.5566  0.2076 -0.0329
  106MOL   C42648936   2.106   3.428   7.487  0.4778 -0.0774  0.4609
  106MOL   O42748937   2.177   3.399   7.390  0.0677  0.2758 -0.2664
  106MOL   O42848938   2.148   3.501   7.592  0.1649 -0.0646  0.5760
  106MOL   C42948939   1.887   3.398   7.613  0.2352  0.5259 -0.0802
  106MOL   C43048940   1.775   3.323   7.644 -0.0652  0.2854  1.1913
  106MOL   H43148941   1.402   3.099   7.494 -0.5072  0.4309  0.4853
  106MOL   H43248942   1.302   2.963   7.523 -0.1037  0.9297 -0.5914
  106MOL   H43348943   1.529   2.816   7.520 -1.7412 -0.9407 -0.0919
  106MOL   H43448944   1.467   2.915   7.657 -0.7877  2.1045  0.0754
  106MOL   H43548945   1.789   3.101   7.380  0.0319  0.7833 -1.4596
  106MOL   H43648946   1.987   3.226   7.340  0.9711  0.2463  0.5375
  106MOL   H43748947   1.908   3.479   7.681  0.8365  1.1375 -0.9898
  106MOL   H43848948   1.710   3.348   7.727  0.2936  0.7549  1.3308
  106MOL   O43948949   2.255   3.594   7.569  0.4946  0.2775 -0.1948
  106MOL   C44048950   2.375   3.534   7.616  0.4363 -0.6781 -0.1331
  106MOL   C44148951   2.485   3.641   7.610  0.8014  0.1546  0.1637
  106MOL   O44248952   2.593   3.607   7.703  0.1399 -0.1655  0.9542
  106MOL   C44348953   2.677   3.501   7.673  0.2500  0.4260 -0.3185
  106MOL   O44448954   2.662   3.432   7.574  0.0414 -0.7545  0.0197
  106MOL   C44548955   2.791   3.479   7.769 -0.1290  0.3958  0.0395
  106MOL   C44648956   2.821   3.564   7.878 -0.8028  0.1087 -0.0918
  106MOL   C44748957   2.925   3.528   7.963 -0.1454  0.3806  0.2767
  106MOL   C44848958   3.014   3.415   7.942  0.5426  0.7712  0.8037
  106MOL   C44948959   3.134   3.376   8.025 -0.4644  0.0138 -0.1825
  106MOL   O45048960   3.150   3.408   8.141 -0.0115 -0.1892 -0.2181
  106MOL   O45148961   3.232   3.316   7.952 -0.0685  0.6222  0.0364
  106MOL   C45248962   2.970   3.328   7.843  0.3180  0.0075 -0.2197
  106MOL   C45348963   2.864   3.356   7.753 -0.6849 -0.5589  0.0940
  106MOL   H45448964   2.348   3.520   7.721  1.7558 -1.2778  0.1390
  106MOL   H45548965   2.393   3.443   7.558  1.8343 -1.1149  0.9349
  106MOL   H45648966   2.449   3.736   7.648  0.3367  0.0135  0.0749
  106MOL   H45748967   2.523   3.663   7.511  0.5055 -0.6702 -0.1396
  106MOL   H45848968   2.760   3.649   7.901 -0.3706 -0.0415  1.6607
  106MOL   H45948969   2.948   3.588   8.050 -0.1749 -0.1347  0.6403
  106MOL   H46048970   3.024   3.236   7.828  3.9231  1.7667  1.4201
  106MOL   H46148971   2.830   3.295   7.671 -1.4131 -2.3741  1.6937
  106MOL   H46248972   3.305   3.296   8.008  0.1119  1.8725  0.2769
  107MOL     O148973   0.663   1.743   4.423  0.1252  0.6473  0.0604
  107MOL     C248974   0.632   1.745   4.560 -0.4619  0.3547  0.4048
  107MOL     C348975   0.568   1.619   4.613 -0.0851 -0.2328 -0.5818
  107MOL     O448976   0.573   1.604   4.752  0.3633 -0.0565  0.2955
  107MOL     C548977   0.496   1.667   4.839 -1.3554  0.1124  0.2194
  107MOL     O648978   0.403   1.738   4.807  0.4911 -0.9100 -0.1718
  107MOL     C748979   0.526   1.637   4.985 -0.4171  0.2705  0.4397
  107MOL     C848980   0.460   1.713   5.088 -0.3911  0.6831 -0.3199
  107MOL     C948981   0.493   1.680   5.220  0.8755  0.4063 -0.8586
  107MOL    C1048982   0.574   1.567   5.255  0.0365  0.1867 -0.2842
  107MOL    C1148983   0.597   1.547   5.397  0.2610 -0.3611 -0.7776
  107MOL    O1248984   0.565   1.623   5.488  0.7430  0.2448  0.0816
  107MOL    O1348985   0.634   1.424   5.421  0.1513 -0.5492 -0.5053
  107MOL    C1448986   0.635   1.491   5.151  0.2602  0.2417 -0.0881
  107MOL    C1548987   0.608   1.524   5.018  0.0810  0.4973 -0.0068
  107MOL    H1648988   0.736   1.743   4.592  0.6093 -0.5437 -2.8869
  107MOL    H1748989   0.589   1.839   4.595  0.9419  0.7446  1.0955
  107MOL    H1848990   0.629   1.536   4.575  2.0390  1.3308 -0.6489
  107MOL    H1948991   0.467   1.599   4.576 -0.4287 -0.8319  0.6567
  107MOL    H2048992   0.399   1.800   5.068  0.3451  0.6117 -3.1078
  107MOL    H2148993   0.448   1.737   5.300 -1.0759  0.0673 -1.6840
  107MOL    H2248994   0.690   1.400   5.169  0.1806  0.2802  0.3655
  107MOL    H2348995   0.649   1.468   4.935 -1.4723  0.4035 -0.7343
  107MOL    H2448996   0.691   1.655   4.401  1.2906  1.1442 -0.4969
  107MOL    O2548997   0.618   1.393   5.564  0.1906  0.2482 -0.3587
  107MOL    C2648998   0.745   1.416   5.630  0.0391 -0.3735 -1.0635
  107MOL    C2748999   0.865   1.338   5.593 -0.3494  0.0676 -0.8461
  107MOL    O2849000   0.921   1.383   5.462  0.4349  0.4500 -1.0215
  107MOL    C2949001   1.025   1.457   5.456 -0.0004  0.6114 -0.1223
  107MOL    O3049002   1.079   1.511   5.554  0.5857 -0.3915 -0.2713
  107MOL    C3149003   1.079   1.460   5.319 -0.1350  0.0130  0.4342
  107MOL    C3249004   1.213   1.504   5.309  0.0197  0.4391 -0.0124
  107MOL    C3349005   1.274   1.515   5.187  0.1970 -0.5378  0.1834
  107MOL    C3449006   1.211   1.474   5.069 -0.5210  0.2298  0.0767
  107MOL    C3549007   1.286   1.486   4.943  0.3688 -0.5461 -0.0719
  107MOL    O3649008   1.400   1.533   4.930  0.2081 -0.4084 -0.1328
  107MOL    O3749009   1.220   1.431   4.834 -0.0116  0.0762  0.3902
  107MOL    C3849010   1.080   1.421   5.074  0.0635 -0.4218 -0.5051
  107MOL    C3949011   1.013   1.412   5.202  0.0878 -0.3369 -0.8040
  107MOL    H4049012   0.765   1.523   5.631 -1.5351 -0.0639 -0.4729
  107MOL    H4149013   0.712   1.387   5.730  0.3555 -1.1868 -1.1913
  107MOL    H4249014   0.833   1.235   5.580 -1.3599  0.3338 -0.5015
  107MOL    H4349015   0.939   1.327   5.673 -1.6449  1.6949  0.6180
  107MOL    H4449016   1.274   1.523   5.396 -0.4757 -1.4527  0.7655
  107MOL    H4549017   1.371   1.562   5.182 -1.1851  2.3027 -0.5199
  107MOL    H4649018   1.034   1.380   4.985 -0.0345  0.9548 -1.1124
  107MOL    H4749019   0.920   1.357   5.205  0.9267 -1.7203  0.9061
  107MOL    O4849020   1.295   1.436   4.707 -0.0947  0.0159  0.4793
  107MOL    C4949021   1.350   1.312   4.686  0.9928  0.9025 -0.4808
  107MOL    C5049022   1.267   1.237   4.582  0.0574  0.4551 -0.3893
  107MOL    O5149023   1.146   1.202   4.640  0.1925  0.2604 -0.6628
  107MOL    C5249024   1.029   1.238   4.575 -0.0397 -0.5731 -0.0007
  107MOL    O5349025   1.022   1.281   4.461  0.3422 -1.5205 -0.2610
  107MOL    C5449026   0.905   1.210   4.660  0.2303  0.9761  0.0556
  107MOL    C5549027   0.920   1.179   4.795 -0.1730  0.0915 -0.4334
  107MOL    C5649028   0.799   1.154   4.866  0.1880 -0.5107  0.1251
  107MOL    C5749029   0.669   1.150   4.808 -0.7574  0.2353 -0.4425
  107MOL    C5849030   0.545   1.118   4.889  0.4008  0.4286  0.4078
  107MOL    O5949031   0.552   1.123   5.014  0.2545  0.5246  0.4044
  107MOL    O6049032   0.436   1.092   4.823 -0.3163  0.3135 -0.2227
  107MOL    C6149033   0.659   1.183   4.668 -0.1638  0.1722  0.0638
  107MOL    C6249034   0.774   1.219   4.599  0.2367  0.3912  0.1300
  107MOL    H6349035   1.448   1.333   4.643  2.0612  1.6819  2.2495
  107MOL    H6449036   1.363   1.252   4.776 -0.4837 -1.5932 -1.8755
  107MOL    H6549037   1.312   1.145   4.546 -0.2224  0.7557 -1.5132
  107MOL    H6649038   1.255   1.294   4.490 -1.1312  0.7254 -0.0784
  107MOL    H6749039   1.016   1.183   4.844  0.6318  0.1077 -1.9706
  107MOL    H6849040   0.813   1.150   4.974  1.7485 -0.5303 -0.0580
  107MOL    H6949041   0.562   1.197   4.623  0.9892  1.2506 -2.1995
  107MOL    H7049042   0.765   1.258   4.499  1.9996 -0.2899 -0.3117
  107MOL    O7149043   0.325   1.040   4.915  0.2446 -0.3228 -0.3228
  107MOL    C7249044   0.334   0.900   4.918 -0.7463 -0.3900 -0.4252
  107MOL    C7349045   0.257   0.848   4.801 -0.2757  0.1466  0.3701
  107MOL    O7449046   0.115   0.833   4.824 -0.6083  0.2008 -0.1975
  107MOL    C7549047   0.036   0.798   4.725 -0.5299  0.3580 -0.3487
  107MOL    O7649048   0.064   0.788   4.605 -0.3277  0.0524 -0.1209
  107MOL    C7749049   8.171   0.779   4.766 -1.1141  0.3367  0.0643
  107MOL    C7849050   8.070   0.789   4.671  0.6141  0.0966  0.3808
  107MOL    C7949051   7.935   0.784   4.711 -0.4563  0.0984 -0.3058
  107MOL    C8049052   7.894   0.738   4.841 -0.1237 -0.1829  0.7188
  107MOL    C8149053   7.749   0.720   4.860  0.1447  0.3299 -0.4887
  107MOL    O8249054   7.672   0.733   4.765 -0.1156  0.1000 -0.7047
  107MOL    O8349055   7.713   0.676   4.978  0.1534  0.5671  0.1508
  107MOL    C8449056   7.997   0.737   4.939 -0.0822  0.9202  0.2484
  107MOL    C8549057   8.133   0.759   4.900  0.1919  0.8577  0.2414
  107MOL    H8649058   0.440   0.882   4.932 -0.9164  0.6654  2.6328
  107MOL    H8749059   0.290   0.855   5.007 -0.8815  0.2799 -0.1524
  107MOL    H8849060   0.284   0.749   4.764 -0.9528  1.3502 -3.5429
  107MOL    H8949061   0.279   0.911   4.715  1.6609 -1.1693 -0.1186
  107MOL    H9049062   8.095   0.810   4.569 -2.9410  0.0469 -0.5762
  107MOL    H9149063   7.864   0.802   4.631 -0.0181 -1.0869 -0.9717
  107MOL    H9249064   7.977   0.728   5.045 -0.2928 -0.6618  0.0732
  107MOL    H9349065   8.213   0.739   4.971 -2.2401 -1.0737  2.5480
  107MOL    O9449066   7.563   0.710   5.003 -0.3077  0.3346  0.2098
  107MOL    C9549067   7.548   0.828   5.084  0.9795  0.4610  0.2711
  107MOL    C9649068   7.565   0.797   5.229  0.2010 -0.0855  0.4411
  107MOL    O9749069   7.684   0.718   5.244 -0.4454 -0.1638 -0.7864
  107MOL    C9849070   7.712   0.674   5.368 -0.6162  0.2834 -0.0278
  107MOL    O9949071   7.639   0.686   5.465  0.1343  0.3501  0.1103
  107MOL   C10049072   7.846   0.611   5.364  1.4820 -0.2634  0.1511
  107MOL   C10149073   7.916   0.581   5.244 -0.3221  0.3275  0.0370
  107MOL   C10249074   8.036   0.520   5.244  0.4838  0.2918 -0.2921
  107MOL   C10349075   8.097   0.474   5.369  0.4572 -0.3841  0.1930
  107MOL   C10449076   8.232   0.401   5.374  0.5172 -0.7285 -0.3669
  107MOL   O10549077   0.001   0.349   5.482 -0.9649 -0.0120 -0.3512
  107MOL   O10649078   0.024   0.398   5.258  0.5701  0.3677 -0.4442
  107MOL   C10749079   8.030   0.497   5.489 -0.2684 -0.6261 -0.0829
  107MOL   C10849080   7.902   0.566   5.484 -0.4258 -0.3658  0.6859
  107MOL   H10949081   7.618   0.907   5.056 -1.1428  2.6803  1.0417
  107MOL   H11049082   7.450   0.872   5.067  1.0375  0.8579  0.9711
  107MOL   H11149083   7.475   0.744   5.258  0.1668  0.8184  2.0427
  107MOL   H11249084   7.566   0.884   5.295  4.3014  0.4875 -0.2015
  107MOL   H11349085   7.865   0.587   5.149  0.9945  1.3843 -0.6261
  107MOL   H11449086   8.088   0.502   5.151 -0.3499 -1.5708 -0.4168
  107MOL   H11549087   8.073   0.460   5.581  2.5360 -1.4087 -1.6388
  107MOL   H11649088   7.855   0.600   5.576 -1.0651 -0.1864  0.2943
  107MOL   O11749089   0.154   0.322   5.245  0.3789 -0.6425  0.6755
  107MOL   C11849090   0.127   0.199   5.194 -0.0456 -0.5965 -0.5400
  107MOL   C11949091   0.256   0.116   5.176 -0.3848 -0.0907  0.0137
  107MOL   O12049092   0.224   8.253   5.179 -0.0571 -0.4187  0.5211
  107MOL   C12149093   0.256   8.177   5.286 -0.9012 -0.3122  0.0509
  107MOL   O12249094   0.310   8.212   5.392 -0.5296  0.0063  0.3506
  107MOL   C12349095   0.236   8.031   5.255 -0.3678 -0.1757 -0.3501
  107MOL   C12449096   0.265   7.935   5.357 -0.2989  0.0725  0.2611
  107MOL   C12549097   0.245   7.797   5.333 -0.1018  0.0485 -0.9225
  107MOL   C12649098   0.194   7.763   5.204 -0.2865 -0.2777 -0.4773
  107MOL   C12749099   0.156   7.630   5.172 -0.3037  1.5037  0.1051
  107MOL   O12849100   0.055   7.607   5.104  0.1794  0.1288  0.0070
  107MOL   O12949101   0.241   7.535   5.231 -0.0972  0.2887  0.4755
  107MOL   C13049102   0.160   7.859   5.101 -0.4522 -0.5964 -0.2539
  107MOL   C13149103   0.195   7.991   5.128 -0.3965 -0.5020 -0.1385
  107MOL   H13249104   0.058   0.148   5.263 -0.1465 -0.5870 -0.6346
  107MOL   H13349105   0.067   0.207   5.104  1.3590 -2.0159 -1.6284
  107MOL   H13449106   0.336   0.150   5.241  0.7016  0.0241 -1.3588
  107MOL   H13549107   0.305   0.142   5.083  1.4124 -1.3860  0.5733
  107MOL   H13649108   0.299   7.962   5.456 -0.1975  2.3558 -0.3554
  107MOL   H13749109   0.273   7.721   5.404 -0.1955  0.9799  0.1323
  107MOL   H13849110   0.116   7.829   5.007 -0.7734  0.8967 -0.5951
  107MOL   H13949111   0.180   8.062   5.048  0.0917  1.7100  1.6860
  107MOL   O14049112   0.184   7.394   5.227  0.0426 -0.0923 -0.0434
  107MOL   C14149113   0.282   7.324   5.144 -0.1478  0.4681 -0.3409
  107MOL   C14249114   0.231   7.182   5.123 -0.3733 -0.1872 -0.3774
  107MOL   O14349115   0.268   7.095   5.229 -0.2464 -0.2655  0.2293
  107MOL   C14449116   0.357   6.989   5.221 -0.1448  0.2220 -0.8677
  107MOL   O14549117   0.423   6.963   5.121 -0.4344 -0.4323 -0.4202
  107MOL   C14649118   0.375   6.913   5.351  0.5989  0.3569 -0.3788
  107MOL   C14749119   0.273   6.912   5.446  0.3212 -0.1954  0.4751
  107MOL   C14849120   0.270   6.807   5.548  0.3378  0.4661  0.2809
  107MOL   C14949121   0.369   6.708   5.551  0.1086  0.6357  0.1731
  107MOL   C15049122   0.351   6.587   5.626  0.0220 -0.4670  0.6063
  107MOL   O15149123   0.426   6.487   5.619  0.0874  0.5576  0.1975
  107MOL   O15249124   0.248   6.581   5.703 -0.1894  0.5287 -0.5549
  107MOL   C15349125   0.485   6.729   5.471  0.1010 -0.0394  0.3745
  107MOL   C15449126   0.479   6.817   5.362 -0.4441  0.0681  0.2068
  107MOL   H15549127   0.302   7.365   5.045  1.4067 -1.5675 -0.9173
  107MOL   H15649128   0.377   7.301   5.193 -0.8491 -0.3498  0.6599
  107MOL   H15749129   0.272   7.150   5.027  0.0579  0.0923 -0.2901
  107MOL   H15849130   0.123   7.183   5.113 -0.3731 -1.3786 -0.5351
  107MOL   H15949131   0.190   6.980   5.439 -0.9274 -1.8970 -1.8359
  107MOL   H16049132   0.182   6.806   5.611 -0.1167 -1.4118 -0.3628
  107MOL   H16149133   0.563   6.655   5.480 -0.5676 -0.7572  0.2984
  107MOL   H16249134   0.564   6.805   5.297 -0.4798 -0.2058  0.2101
  107MOL   O16349135   0.228   6.448   5.768 -0.4017 -0.0561 -0.2637
  107MOL   C16449136   0.105   6.401   5.708  0.5379  0.6241 -0.1368
  107MOL   C16549137   8.246   6.475   5.763 -0.7851  0.0632  0.3644
  107MOL   O16649138   8.121   6.425   5.711 -0.1969 -0.8162  0.5805
  107MOL   C16749139   8.010   6.446   5.785  0.8933  0.0912  0.5151
  107MOL   O16849140   8.006   6.505   5.896  0.0513 -0.1404 -0.1991
  107MOL   C16949141   7.887   6.382   5.725 -0.4380 -0.1016  0.0026
  107MOL   C17049142   7.773   6.374   5.807 -0.1925 -0.2227 -0.4554
  107MOL   C17149143   7.664   6.302   5.761  0.0743 -0.4385 -0.1240
  107MOL   C17249144   7.661   6.253   5.628  0.6231 -0.2428  0.2075
  107MOL   C17349145   7.553   6.165   5.580 -0.2667  0.2572  0.0035
  107MOL   O17449146   7.549   6.115   5.465 -0.1602  0.0224 -0.0152
  107MOL   O17549147   7.463   6.139   5.679 -0.0543  0.1253  0.6431
  107MOL   C17649148   7.767   6.270   5.537 -0.1924 -0.3979  0.1609
  107MOL   C17749149   7.879   6.336   5.588  0.4571  0.3716 -0.2257
  107MOL   H17849150   0.103   6.422   5.601  0.2824  1.7884  0.0860
  107MOL   H17949151   0.094   6.295   5.732  1.6607 -0.0071 -2.2997
  107MOL   H18049152   8.245   6.580   5.734  2.5622 -0.2061 -0.9450
  107MOL   H18149153   8.229   6.462   5.870 -0.7654  1.6280  0.5586
  107MOL   H18249154   7.780   6.405   5.911 -0.8875 -1.6682  0.0305
  107MOL   H18349155   7.586   6.291   5.835 -0.1780 -0.0996 -0.3364
  107MOL   H18449156   7.768   6.235   5.435 -0.3305  1.4781 -0.5161
  107MOL   H18549157   7.954   6.355   5.513 -0.8591  4.0016 -0.7774
  107MOL   O18649158   7.351   6.054   5.634 -0.0282 -1.1962 -0.0798
  107MOL   C18749159   7.362   5.926   5.700 -0.3931  0.2423 -0.6288
  107MOL   C18849160   7.306   5.936   5.844 -0.6955  0.3298 -0.9960
  107MOL   O18949161   7.406   6.002   5.927  0.2741  0.0983  0.4213
  107MOL   C19049162   7.373   6.106   5.985 -0.0728  0.0906 -0.4694
  107MOL   O19149163   7.255   6.150   5.992  0.4495  0.7894 -0.6278
  107MOL   C19249164   7.485   6.174   6.059 -0.0997 -0.2465  0.0988
  107MOL   C19349165   7.466   6.301   6.117 -0.1173  0.0551  0.1034
  107MOL   C19449166   7.571   6.373   6.170 -0.3381  1.2895 -0.4902
  107MOL   C19549167   7.703   6.326   6.168 -0.5055 -0.0384 -0.2653
  107MOL   C19649168   7.817   6.413   6.211 -0.5027  0.4224 -0.1855
  107MOL   O19749169   7.933   6.367   6.196  0.1450  0.3698 -0.0372
  107MOL   O19849170   7.791   6.529   6.270  0.5610  0.1611  0.1166
  107MOL   C19949171   7.725   6.200   6.110 -0.0168  0.6784  0.1193
  107MOL   C20049172   7.616   6.124   6.055  0.1842 -0.4325  0.0807
  107MOL   H20149173   7.310   5.848   5.645  2.1041 -1.6459 -0.3908
  107MOL   H20249174   7.467   5.898   5.700 -0.7604 -1.1554 -0.1167
  107MOL   H20349175   7.279   5.837   5.883 -0.7360  0.2100 -1.3205
  107MOL   H20449176   7.210   5.987   5.851 -1.2750 -0.6966 -1.3025
  107MOL   H20549177   7.363   6.332   6.126 -0.3933 -0.6794 -0.5203
  107MOL   H20649178   7.545   6.463   6.224 -0.1696  0.9816  0.1134
  107MOL   H20749179   7.826   6.171   6.085 -0.0729  0.7308 -0.1808
  107MOL   H20849180   7.628   6.032   6.001 -2.8099 -0.1027 -1.2020
  107MOL   O20949181   7.909   6.615   6.296 -0.3709 -0.2341 -0.2134
  107MOL   C21049182   7.923   6.708   6.190 -0.0457  0.0978 -0.2324
  107MOL   C21149183   7.997   6.831   6.229  0.0373 -0.4279  0.7245
  107MOL   O21249184   8.134   6.793   6.220 -0.5823 -0.2436  0.6423
  107MOL   C21349185   8.237   6.878   6.225 -0.2629 -0.0269  0.3046
  107MOL   O21449186   8.227   6.995   6.251 -0.0459  0.1806 -0.1153
  107MOL   C21549187   0.091   6.806   6.194  0.1753 -0.3722  0.4773
  107MOL   C21649188   0.206   6.881   6.164 -0.5534  0.3013 -0.2139
  107MOL   C21749189   0.317   6.815   6.102  0.3966  0.4145 -0.7890
  107MOL   C21849190   0.323   6.677   6.092 -0.0549 -0.3440  0.1019
  107MOL   C21949191   0.442   6.619   6.020  0.4036  0.0753  0.1133
  107MOL   O22049192   0.538   6.689   5.981 -0.6253  0.3494 -0.3139
  107MOL   O22149193   0.427   6.483   6.000 -0.1249 -0.3883  0.4009
  107MOL   C22249194   0.214   6.602   6.139  0.0608 -0.1644  1.2747
  107MOL   C22349195   0.097   6.664   6.174  0.1737 -0.4411 -0.4456
  107MOL   H22449196   7.965   6.668   6.098  1.1530  0.0805  0.3132
  107MOL   H22549197   7.827   6.741   6.149  0.9781  0.1986 -2.6704
  107MOL   H22649198   7.963   6.854   6.330  0.8239 -0.5675  1.0212
  107MOL   H22749199   7.985   6.916   6.162 -1.2155  0.3771  1.9407
  107MOL   H22849200   0.195   6.988   6.175 -0.5278  0.1417  1.4584
  107MOL   H22949201   0.403   6.876   6.076  1.3034 -1.2607 -1.7764
  107MOL   H23049202   0.216   6.494   6.137  0.8811 -0.1542  1.3985
  107MOL   H23149203   0.016   6.597   6.199  2.6856 -2.8170  1.5595
  107MOL   O23249204   0.518   6.425   5.899 -0.1340 -0.2374 -0.3569
  107MOL   C23349205   0.644   6.388   5.960  0.1401  0.1368 -0.3469
  107MOL   C23449206   0.720   6.302   5.852  0.1306 -0.3476  0.2547
  107MOL   O23549207   0.768   6.383   5.747 -0.1126  0.4306 -0.1704
  107MOL   C23649208   0.847   6.324   5.658  0.1245 -1.0975 -0.0908
  107MOL   O23749209   0.894   6.209   5.668 -0.2226 -0.0659 -0.0119
  107MOL   C23849210   0.884   6.411   5.540 -0.7254 -0.8746  0.1496
  107MOL   C23949211   0.841   6.546   5.525 -0.0743  0.7730  0.3566
  107MOL   C24049212   0.890   6.630   5.424 -0.3860 -0.4892  0.6829
  107MOL   C24149213   0.972   6.574   5.323 -0.0584 -0.3660  0.2884
  107MOL   C24249214   1.019   6.657   5.207  0.8269 -0.2695  0.8596
  107MOL   O24349215   0.989   6.777   5.194 -0.1812  0.0785  0.1427
  107MOL   O24449216   1.091   6.583   5.120  0.3280 -0.4887 -0.3246
  107MOL   C24549217   1.015   6.438   5.333  0.9853  0.6777  0.0557
  107MOL   C24649218   0.965   6.359   5.437  0.3169  0.1899  0.3407
  107MOL   H24749219   0.709   6.471   5.988 -2.1952  1.5010  1.2593
  107MOL   H24849220   0.627   6.321   6.045  0.4221  0.7833  0.2303
  107MOL   H24949221   0.646   6.227   5.822 -0.4367  0.0414  0.6900
  107MOL   H25049222   0.802   6.252   5.904  1.4912 -0.3670 -1.8489
  107MOL   H25149223   0.771   6.578   5.601 -2.7875  1.4647 -2.3307
  107MOL   H25249224   0.849   6.731   5.418 -0.5567 -0.3695  3.3578
  107MOL   H25349225   1.079   6.389   5.262 -1.6842 -2.4543 -0.3193
  107MOL   H25449226   1.012   6.264   5.456 -0.7329 -0.3262  0.3615
  107MOL   O25549227   1.132   6.664   5.003  0.3508  0.7474 -0.6114
  107MOL   C25649228   1.066   6.623   4.886 -0.1287  0.0006  0.0135
  107MOL   C25749229   1.093   6.717   4.757 -0.1584 -0.2771 -0.1422
  107MOL   O25849230   1.020   6.688   4.642 -0.4573 -0.2279 -0.4574
  107MOL   C25949231   1.048   6.583   4.565  0.0933 -0.4556 -0.6365
  107MOL   O26049232   1.138   6.504   4.599  0.5228  0.0990 -0.2344
  107MOL   C26149233   0.960   6.562   4.450 -0.7295 -0.0161  0.2195
  107MOL   C26249234   0.843   6.642   4.431  0.5038 -0.3998  0.1424
  107MOL   C26349235   0.765   6.635   4.312  0.3238  0.7720 -0.2842
  107MOL   C26449236   0.814   6.558   4.201 -0.3522  0.1225 -0.3691
  107MOL   C26549237   0.746   6.550   4.066  0.8231 -0.4667  0.3881
  107MOL   O26649238   0.677   6.646   4.027  0.1747 -0.2308 -0.1060
  107MOL   O26749239   0.763   6.436   4.000  0.1466  0.5459 -0.9649
  107MOL   C26849240   0.927   6.481   4.224  0.0532  0.7743 -0.6256
  107MOL   C26949241   0.998   6.484   4.344 -0.0892  0.2814  0.2832
  107MOL   H27049242   1.084   6.518   4.861  0.4125  0.8541 -3.3874
  107MOL   H27149243   0.962   6.632   4.918  0.5604  2.3422  1.6666
  107MOL   H27249244   1.201   6.712   4.744  0.4406  3.0372  2.8458
  107MOL   H27349245   1.069   6.818   4.791 -0.6083 -0.4872  0.1570
  107MOL   H27449246   0.809   6.713   4.505 -2.9166 -1.2606 -0.5374
  107MOL   H27549247   0.673   6.691   4.306  0.4640  0.9634 -0.6953
  107MOL   H27649248   0.969   6.420   4.146 -0.2397 -0.8392  0.4640
  107MOL   H27749249   1.078   6.412   4.355 -1.0045 -0.8580 -0.3711
  107MOL   O27849250   0.698   6.439   3.862  0.2900 -0.3226  0.3158
  107MOL   C27949251   0.791   6.467   3.762 -0.3749 -0.4678 -0.3079
  107MOL   C28049252   0.713   6.498   3.639 -0.7975 -0.2049  0.6375
  107MOL   O28149253   0.804   6.496   3.528  0.1121  0.2147 -0.1719
  107MOL   C28249254   0.753   6.520   3.405 -0.0515  0.1191 -0.1899
  107MOL   O28349255   0.635   6.539   3.383 -0.3062  0.3062  0.5421
  107MOL   C28449256   0.857   6.521   3.299 -0.2815 -1.1958 -0.7740
  107MOL   C28549257   0.990   6.481   3.328 -0.0159  1.1599  0.6313
  107MOL   C28649258   1.094   6.479   3.229  0.0122 -0.3677  0.6144
  107MOL   C28749259   1.057   6.510   3.097  0.6556  0.1679  0.6584
  107MOL   C28849260   1.156   6.489   2.980  0.1461 -0.3534 -0.8358
  107MOL   O28949261   1.275   6.484   2.998  0.2527  0.5208 -0.4753
  107MOL   O29049262   1.104   6.482   2.863  0.0578 -0.1504 -0.3216
  107MOL   C29149263   0.928   6.557   3.070 -0.0936 -1.0675  0.8650
  107MOL   C29249264   0.834   6.563   3.166  0.0832  0.5288 -0.7357
  107MOL   H29349265   0.856   6.550   3.790  1.4340 -1.5887 -1.0254
  107MOL   H29449266   0.861   6.385   3.743  0.9007  0.7583 -0.9791
  107MOL   H29549267   0.669   6.598   3.643 -2.3253 -0.8969  1.3442
  107MOL   H29649268   0.645   6.416   3.617 -1.5256  0.6311 -0.3063
  107MOL   H29749269   1.032   6.453   3.424 -1.9898  0.3295  1.2652
  107MOL   H29849270   1.193   6.443   3.252  1.0867  1.3250 -1.2619
  107MOL   H29949271   0.903   6.588   2.969 -2.2945 -1.2665  1.3212
  107MOL   H30049272   0.736   6.600   3.140 -0.2692 -0.2111 -0.4963
  107MOL   O30149273   1.203   6.451   2.760  0.2705  0.3097 -0.0004
  107MOL   C30249274   1.190   6.313   2.723 -0.3180 -0.1082 -0.2429
  107MOL   C30349275   1.173   6.310   2.570 -0.4605 -0.3039  0.8751
  107MOL   O30449276   1.234   6.185   2.525 -0.1100  0.7610 -0.3256
  107MOL   C30549277   1.188   6.127   2.407 -0.0785 -0.4180  0.0410
  107MOL   O30649278   1.098   6.176   2.333  0.2919 -0.1108 -0.4011
  107MOL   C30749279   1.261   6.007   2.354  0.0395 -0.1411 -0.3509
  107MOL   C30849280   1.384   5.973   2.420  0.7029  0.3752  0.8582
  107MOL   C30949281   1.458   5.861   2.377 -0.3926 -0.1503 -0.2889
  107MOL   C31049282   1.423   5.788   2.268 -0.0324  0.6125 -1.1616
  107MOL   C31149283   1.496   5.661   2.232  0.5811  0.5370 -0.6769
  107MOL   O31249284   1.608   5.633   2.274  0.0275  0.8694  0.1971
  107MOL   O31349285   1.442   5.599   2.130  0.0089  0.2066  0.4945
  107MOL   C31449286   1.300   5.823   2.200 -0.3379 -1.1973 -0.2546
  107MOL   C31549287   1.224   5.933   2.246  0.5100 -0.4575  0.1671
  107MOL   H31649288   1.284   6.263   2.747  0.4103 -0.0474 -2.7844
  107MOL   H31749289   1.111   6.254   2.769  1.4358 -0.0147  3.0503
  107MOL   H31849290   1.228   6.388   2.517  0.8030 -1.4481  0.4724
  107MOL   H31949291   1.071   6.325   2.537  0.5783  0.7357 -2.1022
  107MOL   H32049292   1.422   6.036   2.498  1.4527 -1.7023  2.2229
  107MOL   H32149293   1.549   5.828   2.425 -0.1701 -0.9978 -1.2557
  107MOL   H32249294   1.247   5.771   2.121 -0.4695 -0.2881 -0.7698
  107MOL   H32349295   1.131   5.955   2.196  0.5930  1.0452  0.6542
  107MOL   O32449296   1.519   5.481   2.080 -0.0722  0.4765 -0.1373
  107MOL   C32549297   1.450   5.359   2.104 -0.3069  0.1312 -0.4332
  107MOL   C32649298   1.426   5.321   2.253  0.8363 -0.2313 -0.0445
  107MOL   O32749299   1.368   5.193   2.257 -0.1549 -0.4188  0.2593
  107MOL   C32849300   1.394   5.124   2.374  0.6153 -0.4069 -0.9210
  107MOL   O32949301   1.442   5.173   2.474 -0.5319 -0.0362 -0.2435
  107MOL   C33049302   1.374   4.974   2.364  0.5646 -0.8299  0.2829
  107MOL   C33149303   1.434   4.886   2.456  0.4089 -0.2636  0.2555
  107MOL   C33249304   1.399   4.748   2.457 -0.1843 -0.6132 -0.1962
  107MOL   C33349305   1.303   4.699   2.372  0.2364 -0.2287  0.3866
  107MOL   C33449306   1.264   4.559   2.377  0.3436 -0.1788  0.5242
  107MOL   O33549307   1.218   4.502   2.277 -0.1796  0.0343 -0.4306
  107MOL   O33649308   1.277   4.502   2.504  0.0198  0.1919 -0.0664
  107MOL   C33749309   1.246   4.789   2.281 -0.2102  0.2050 -0.3136
  107MOL   C33849310   1.287   4.923   2.273  0.4694 -0.0742 -0.2193
  107MOL   H33949311   1.357   5.363   2.048 -0.5019  1.3667 -0.0372
  107MOL   H34049312   1.516   5.289   2.053  1.3915  0.2615  1.5186
  107MOL   H34149313   1.361   5.395   2.299 -3.6205 -2.4056 -2.4634
  107MOL   H34249314   1.522   5.337   2.301 -0.2699  1.2811  1.7365
  107MOL   H34349315   1.510   4.913   2.528 -0.8967  1.4754  1.0376
  107MOL   H34449316   1.454   4.690   2.528 -0.0861  0.2872  0.4743
  107MOL   H34549317   1.175   4.757   2.206  1.1009 -0.6998 -1.1894
  107MOL   H34649318   1.235   4.995   2.210  0.3442  2.5616  2.7465
  107MOL   O34749319   1.165   4.405   2.529  0.0286  0.0105 -0.1119
  107MOL   C34849320   1.212   4.271   2.502 -0.1449  0.0246 -0.3131
  107MOL   C34949321   1.112   4.165   2.541  0.0292  0.4134  0.2381
  107MOL   O35049322   1.156   4.033   2.546  0.4457  0.0168 -0.3544
  107MOL   C35149323   1.158   3.958   2.430 -0.4685  0.4213 -0.3670
  107MOL   O35249324   1.121   4.007   2.323 -0.5121  0.4385 -0.0954
  107MOL   C35349325   1.215   3.823   2.444  0.6399  0.2721 -0.1547
  107MOL   C35449326   1.266   3.767   2.569  0.4574  0.5437  0.2813
  107MOL   C35549327   1.315   3.634   2.580 -0.2647 -0.3927  0.9193
  107MOL   C35649328   1.322   3.557   2.461  0.4840 -0.6699 -0.4349
  107MOL   C35749329   1.386   3.418   2.449  0.4546  0.1738  0.4790
  107MOL   O35849330   1.413   3.366   2.337  0.3031 -0.1025  0.2548
  107MOL   O35949331   1.430   3.377   2.567 -0.0629 -1.0482  0.8795
  107MOL   C36049332   1.279   3.613   2.337  0.4811 -0.7533 -0.1293
  107MOL   C36149333   1.218   3.739   2.332 -0.3680 -0.6533  0.0670
  107MOL   H36249334   1.235   4.255   2.396 -0.5745  2.2605 -0.7573
  107MOL   H36349335   1.305   4.256   2.557 -0.1716 -1.1847 -0.5835
  107MOL   H36449336   1.035   4.188   2.467  1.3684 -1.0481 -1.6868
  107MOL   H36549337   1.069   4.178   2.640 -2.8241  1.7299 -1.0968
  107MOL   H36649338   1.257   3.817   2.664  1.6756 -0.8693  1.1657
  107MOL   H36749339   1.360   3.604   2.674 -1.4784 -1.5757  1.1423
  107MOL   H36849340   1.298   3.563   2.244 -1.2809  0.2740 -1.0558
  107MOL   H36949341   1.190   3.774   2.233 -0.3847 -0.5348  0.1135
  107MOL   O37049342   1.509   3.254   2.571  0.1038 -0.3347  0.3082
  107MOL   C37149343   1.436   3.146   2.628 -0.0828  0.8196 -0.0649
  107MOL   C37249344   1.513   3.008   2.638  0.9738  0.8028  0.2606
  107MOL   O37349345   1.431   2.908   2.585  0.3034 -0.2088  0.1659
  107MOL   C37449346   1.328   2.848   2.651 -0.1441  0.2739 -0.1874
  107MOL   O37549347   1.304   2.870   2.772  0.3794  0.4435 -0.3486
  107MOL   C37649348   1.251   2.757   2.565 -0.8368  0.3481  0.3471
  107MOL   C37749349   1.265   2.760   2.421  0.0747 -0.3369 -0.5932
  107MOL   C37849350   1.181   2.686   2.343 -0.0774  0.1566  0.4926
  107MOL   C37949351   1.083   2.599   2.394 -0.2293  0.4900  0.1622
  107MOL   C38049352   0.996   2.518   2.302 -0.2718  0.1928 -0.4307
  107MOL   O38149353   0.986   2.519   2.181 -0.1113  0.3521 -0.2796
  107MOL   O38249354   0.921   2.427   2.375  0.3704  0.1429 -0.3308
  107MOL   C38349355   1.074   2.597   2.536  0.2222 -0.3130 -0.2521
  107MOL   C38449356   1.153   2.671   2.621  0.0355  0.1767 -0.5426
  107MOL   H38549357   1.416   3.178   2.731  0.0591  2.0292 -0.4059
  107MOL   H38649358   1.342   3.134   2.575 -1.2004  0.2815  1.9913
  107MOL   H38749359   1.536   2.977   2.740  1.0976  0.9467  0.2774
  107MOL   H38849360   1.600   2.993   2.574  1.1038 -1.1126  0.8488
  107MOL   H38949361   1.336   2.814   2.361 -1.3201  2.7965  0.4631
  107MOL   H39049362   1.193   2.682   2.235  1.5282  0.3682  0.6428
  107MOL   H39149363   1.001   2.534   2.586  0.0238 -0.4460 -0.7055
  107MOL   H39249364   1.146   2.661   2.728  2.4723 -2.4275 -0.5482
  107MOL   O39349365   0.807   2.366   2.289  0.0780  0.6132 -0.0175
  107MOL   C39449366   0.684   2.410   2.335 -0.3417 -0.1779  0.0926
  107MOL   C39549367   0.652   2.548   2.275  0.4622 -0.4510  0.1225
  107MOL   O39649368   0.692   2.660   2.358  0.5634 -0.7251  0.1207
  107MOL   C39749369   0.612   2.703   2.460  0.2035 -0.1524  0.2540
  107MOL   O39849370   0.506   2.645   2.499 -0.6593  0.4589  0.0682
  107MOL   C39949371   0.670   2.822   2.529 -0.8078 -0.8310  0.1312
  107MOL   C40049372   0.803   2.869   2.507  0.0024  0.4067  0.0210
  107MOL   C40149373   0.857   2.972   2.590  0.1624 -0.2433  0.1425
  107MOL   C40249374   0.781   3.016   2.697 -0.8612  0.2176 -0.3812
  107MOL   C40349375   0.852   3.086   2.811 -0.6564 -0.2325 -0.3054
  107MOL   O40449376   0.944   3.161   2.797 -0.3762 -0.0674 -0.0318
  107MOL   O40549377   0.784   3.067   2.936  0.2657 -0.7170 -0.0493
  107MOL   C40649378   0.647   2.972   2.716 -0.2562 -0.1388  0.4736
  107MOL   C40749379   0.593   2.878   2.627  0.4262  0.0600 -0.3036
  107MOL   H40849380   0.613   2.338   2.294 -0.0324 -0.5814  0.2555
  107MOL   H40949381   0.682   2.413   2.444 -1.7081 -0.8790  0.0963
  107MOL   H41049382   0.544   2.556   2.272  0.3554 -1.7982  0.1427
  107MOL   H41149383   0.697   2.556   2.176 -2.9849  1.7484 -1.3558
  107MOL   H41249384   0.865   2.821   2.434 -0.7722 -1.0196  0.2811
  107MOL   H41349385   0.960   3.004   2.579 -0.5198  2.0026 -0.0983
  107MOL   H41449386   0.590   3.005   2.801 -1.1375  1.1630 -0.6108
  107MOL   H41549387   0.488   2.855   2.636  0.3074  1.1326  1.3004
  107MOL   O41649388   0.865   3.127   3.050 -0.2478 -0.5055  0.4201
  107MOL   C41749389   0.808   3.250   3.087  0.2265  0.6732 -0.6608
  107MOL   C41849390   0.844   3.292   3.234 -0.4867 -0.0935  0.5083
  107MOL   O41949391   0.983   3.298   3.232 -0.4118 -0.7147  0.2342
  107MOL   C42049392   1.047   3.412   3.257 -0.7429 -0.3351  0.1056
  107MOL   O42149393   1.007   3.526   3.227 -0.0146 -0.0040  0.4251
  107MOL   C42249394   1.177   3.389   3.327  0.4824 -0.2752 -0.1615
  107MOL   C42349395   1.211   3.261   3.377 -0.4374 -0.0434 -0.1601
  107MOL   C42449396   1.336   3.234   3.440  0.5540 -0.0112  0.1245
  107MOL   C42549397   1.432   3.337   3.452 -0.3333 -0.5970  0.0272
  107MOL   C42649398   1.566   3.320   3.511 -0.0200 -0.0899 -0.0823
  107MOL   O42749399   1.646   3.416   3.514  0.9378  0.2333 -0.2110
  107MOL   O42849400   1.591   3.207   3.568 -0.1963  0.1884 -0.7796
  107MOL   C42949401   1.398   3.466   3.412 -0.1272 -0.8698 -0.4230
  107MOL   C43049402   1.275   3.489   3.350 -0.1214  0.0136 -0.3146
  107MOL   H43149403   0.842   3.332   3.025  2.3326  0.4343  0.1513
  107MOL   H43249404   0.699   3.242   3.086  0.2136  0.8261 -0.5305
  107MOL   H43349405   0.806   3.223   3.309 -0.5582 -0.4920  0.1074
  107MOL   H43449406   0.796   3.384   3.265  2.6598  1.9733 -0.5018
  107MOL   H43549407   1.140   3.180   3.365 -1.3372  0.4727  1.4515
  107MOL   H43649408   1.361   3.136   3.478 -1.2520 -1.9469 -3.3479
  107MOL   H43749409   1.472   3.545   3.416  1.4805 -2.3710  0.5174
  107MOL   H43849410   1.244   3.588   3.321  0.2573 -0.0470 -0.9464
  107MOL   O43949411   1.708   3.198   3.659 -0.2096  0.8228 -0.4610
  107MOL   C44049412   1.817   3.153   3.582  0.2182  0.0414  0.9761
  107MOL   C44149413   1.923   3.108   3.675 -0.5043 -0.2923 -1.0824
  107MOL   O44249414   1.966   3.212   3.770  0.1235  0.3120 -0.0365
  107MOL   C44349415   2.072   3.296   3.740  0.2383  0.1091 -0.8300
  107MOL   O44449416   2.151   3.275   3.646 -0.8092 -0.2266 -0.8614
  107MOL   C44549417   2.084   3.407   3.844  0.1999  0.2072  0.1411
  107MOL   C44649418   2.000   3.412   3.956  0.1442  0.2905  0.0205
  107MOL   C44749419   2.025   3.500   4.056 -1.1634 -0.4618 -1.1063
  107MOL   C44849420   2.130   3.592   4.051  0.4981  0.0876 -0.3664
  107MOL   C44949421   2.176   3.674   4.168  0.1376  0.9667 -0.5573
  107MOL   O45049422   2.286   3.724   4.166  0.1857  0.3433  0.0908
  107MOL   O45149423   2.084   3.706   4.265 -0.1613 -0.1674  0.0946
  107MOL   C45249424   2.212   3.587   3.936  0.1786 -0.8185 -0.1202
  107MOL   C45349425   2.186   3.499   3.828 -0.1035 -0.0537 -0.6011
  107MOL   H45449426   1.798   3.074   3.509 -1.0606  0.9598  0.2913
  107MOL   H45549427   1.850   3.239   3.524  1.0853 -1.4550 -0.8265
  107MOL   H45649428   2.012   3.082   3.618  1.9674  3.3876  0.8357
  107MOL   H45749429   1.895   3.023   3.737  0.7875 -2.4253 -3.3237
  107MOL   H45849430   1.925   3.336   3.971  0.4813  0.6895  4.3728
  107MOL   H45949431   1.960   3.501   4.142 -0.5689 -1.3933 -0.6437
  107MOL   H46049432   2.297   3.653   3.932 -1.2461  1.3061  2.7342
  107MOL   H46149433   2.248   3.497   3.740 -0.7437 -1.2171 -1.0346
  107MOL   H46249434   2.128   3.745   4.339 -0.2517 -1.5317  0.8978
  108MOL     O149435   7.598   5.320   8.117  0.4782  0.4501 -0.4389
  108MOL     C249436   7.664   5.421   8.190 -0.3308 -0.4166 -0.0489
  108MOL     C349437   7.599   5.472   0.053 -0.2757 -0.0201  0.4618
  108MOL     O449438   7.602   5.362   0.147  0.4301 -0.3655 -0.7030
  108MOL     C549439   7.507   5.267   0.146 -0.2528  0.1316 -0.7246
  108MOL     O649440   7.407   5.271   0.068 -0.3968  0.3779 -0.2122
  108MOL     C749441   7.531   5.162   0.251 -0.0515 -1.0310  0.0239
  108MOL     C849442   7.441   5.050   0.264 -0.6374 -0.2284  0.2907
  108MOL     C949443   7.447   4.955   0.365 -0.3209 -0.4194 -0.9771
  108MOL    C1049444   7.544   4.965   0.472  0.0620 -0.0869  0.6787
  108MOL    C1149445   7.545   4.866   0.587 -0.6099  0.7143  0.0693
  108MOL    O1249446   7.642   4.859   0.667 -0.5491  0.3463  0.9758
  108MOL    O1349447   7.429   4.790   0.600  0.0992  0.3431 -0.2309
  108MOL    C1449448   7.641   5.067   0.457 -0.1611  0.1344 -0.2125
  108MOL    C1549449   7.637   5.165   0.352  0.6297 -0.1881 -0.0958
  108MOL    H1649450   7.772   5.407   8.196  0.0535  2.8908  1.7322
  108MOL    H1749451   7.663   5.503   8.118  1.3060  0.2039  0.5981
  108MOL    H1849452   7.501   5.516   0.036 -0.3781 -0.3094  0.3035
  108MOL    H1949453   7.669   5.551   0.082  1.1032 -0.3686 -1.7888
  108MOL    H2049454   7.359   5.053   0.194  0.4961  1.8387 -1.0064
  108MOL    H2149455   7.384   4.867   0.367  1.0622 -1.4052  1.7184
  108MOL    H2249456   7.719   5.073   0.530  0.1841  0.2563 -0.5888
  108MOL    H2349457   7.710   5.243   0.339 -0.0289  0.8349  2.0328
  108MOL    H2449458   7.504   5.330   8.127  0.2881 -1.2131 -0.4890
  108MOL    O2549459   7.434   4.728   0.734 -0.2678  0.1916 -0.4089
  108MOL    C2649460   7.464   4.581   0.715  0.0682  0.0310 -0.3425
  108MOL    C2749461   7.605   4.561   0.768  0.2187  0.9303 -0.0450
  108MOL    O2849462   7.640   4.425   0.794  0.3412  0.0026 -0.1187
  108MOL    C2949463   7.692   4.352   0.697  0.2565 -0.1147  0.1294
  108MOL    O3049464   7.711   4.396   0.580  0.2679  0.0147  0.7746
  108MOL    C3149465   7.716   4.221   0.744  0.2363  0.7337  0.8090
  108MOL    C3249466   7.684   4.125   0.643 -0.7881  1.0810 -0.4489
  108MOL    C3349467   7.682   3.989   0.680  0.4148  0.3205  0.7231
  108MOL    C3449468   7.719   3.948   0.811 -0.4481 -0.2793 -0.8813
  108MOL    C3549469   7.735   3.804   0.850 -0.2490 -0.2777  0.7608
  108MOL    O3649470   7.742   3.758   0.968 -0.3049 -0.4474 -0.0631
  108MOL    O3749471   7.754   3.725   0.740 -0.1051 -0.0942  0.2755
  108MOL    C3849472   7.765   4.047   0.899  0.7358  0.2413 -0.2824
  108MOL    C3949473   7.752   4.184   0.869 -0.3429  0.1795  0.1260
  108MOL    H4049474   7.398   4.526   0.782 -0.8671  0.7127 -0.6929
  108MOL    H4149475   7.455   4.557   0.609  2.0062  2.0802 -1.0239
  108MOL    H4249476   7.616   4.619   0.860 -2.3853  1.8853 -0.3094
  108MOL    H4349477   7.682   4.606   0.705  0.0210  1.2833 -0.0373
  108MOL    H4449478   7.652   4.154   0.544  1.6172  0.6634 -1.3776
  108MOL    H4549479   7.657   3.913   0.607 -1.0867  0.0055  1.5478
  108MOL    H4649480   7.800   4.032   1.000  3.0241 -1.7492 -1.3276
  108MOL    H4749481   7.771   4.261   0.943  0.0985  1.0199 -0.8518
  108MOL    O4849482   7.790   3.579   0.780  0.6261  0.5485 -0.8289
  108MOL    C4949483   7.928   3.578   0.794  0.6794 -0.0861 -0.1581
  108MOL    C5049484   7.958   3.459   0.890 -0.6723  0.3762  0.3447
  108MOL    O5149485   8.092   3.407   0.880 -0.4553 -0.3717  0.5666
  108MOL    C5249486   8.193   3.468   0.947 -0.0697 -1.1581 -0.0440
  108MOL    O5349487   8.173   3.581   0.999 -0.4234 -0.3046  0.1047
  108MOL    C5449488   0.043   3.391   0.961  0.7208 -0.1921  0.3217
  108MOL    C5549489   0.153   3.450   1.029 -0.3159 -0.0441 -0.0431
  108MOL    C5649490   0.275   3.377   1.033  0.1910 -0.1877  0.4289
  108MOL    C5749491   0.293   3.252   0.970  0.3634  0.0225 -0.6175
  108MOL    C5849492   0.430   3.192   0.964  0.3735 -0.4722 -0.2095
  108MOL    O5949493   0.528   3.248   1.009  0.4955  0.0590  0.1411
  108MOL    O6049494   0.431   3.075   0.896  0.4228 -0.1753  0.3273
  108MOL    C6149495   0.177   3.195   0.910 -0.5315  0.9480 -0.2209
  108MOL    C6249496   0.057   3.261   0.908  0.7143 -0.3470 -0.2008
  108MOL    H6349497   7.957   3.571   0.689  1.0265  0.1477 -0.0796
  108MOL    H6449498   7.972   3.668   0.837 -0.1316 -0.4461  1.4468
  108MOL    H6549499   7.887   3.385   0.852 -1.3824  0.4356  1.5306
  108MOL    H6649500   7.920   3.485   0.989 -1.6924  0.0131  0.0512
  108MOL    H6749501   0.135   3.542   1.082 -0.7563 -0.4463  0.5137
  108MOL    H6849502   0.362   3.417   1.084 -0.8843  2.6347  0.1774
  108MOL    H6949503   0.182   3.103   0.855  0.6721  1.1181 -0.4197
  108MOL    H7049504   8.241   3.229   0.860  1.4554  0.7079 -2.3919
  108MOL    O7149505   0.566   3.014   0.900  0.4199  0.2685 -0.4666
  108MOL    C7249506   0.559   2.896   0.972 -0.3615 -0.2072 -0.2669
  108MOL    C7349507   0.547   2.774   0.873 -0.0563 -0.4869  0.2847
  108MOL    O7449508   0.414   2.747   0.844 -0.5294 -0.2336 -0.2194
  108MOL    C7549509   0.360   2.624   0.886  0.5861 -0.3930 -0.1086
  108MOL    O7649510   0.430   2.535   0.937 -0.7968  0.1787 -0.4952
  108MOL    C7749511   0.219   2.596   0.837 -0.5575 -0.2177 -0.3353
  108MOL    C7849512   0.145   2.477   0.867 -0.7806  0.5483  0.2332
  108MOL    C7949513   0.010   2.459   0.823  0.7796  0.0573 -0.5777
  108MOL    C8049514   8.226   2.556   0.739  0.1614 -0.0069 -0.0386
  108MOL    C8149515   8.088   2.544   0.689 -0.6548  0.4028  0.2882
  108MOL    O8249516   8.038   2.623   0.612  0.5606 -0.6264 -0.0149
  108MOL    O8349517   8.030   2.433   0.744  0.1589 -0.4535  0.1818
  108MOL    C8449518   0.025   2.671   0.705 -0.2831  0.2858 -0.3100
  108MOL    C8549519   0.157   2.688   0.744  0.3591 -0.6791 -0.0026
  108MOL    H8649520   0.648   2.890   1.035  0.3643  0.8510 -1.1687
  108MOL    H8749521   0.474   2.909   1.040  0.8427 -0.9899  1.4279
  108MOL    H8849522   0.582   2.695   0.940  0.2621  0.6133  1.4386
  108MOL    H8949523   0.604   2.785   0.781  0.9105  0.2484  0.9625
  108MOL    H9049524   0.199   2.413   0.935  0.7513  1.4727 -0.1095
  108MOL    H9149525   8.223   2.378   0.857 -0.5149  1.6310  0.8964
  108MOL    H9249526   8.252   2.739   0.637  2.0301  2.0213 -0.3142
  108MOL    H9349527   0.210   2.773   0.702 -1.5027  1.4137  1.7728
  108MOL    O9449528   7.885   2.418   0.708  0.2000 -0.3115 -0.1401
  108MOL    C9549529   7.809   2.472   0.813  0.1173  0.2366  0.2999
  108MOL    C9649530   7.666   2.510   0.762 -0.4940 -0.7293  0.6497
  108MOL    O9749531   7.636   2.646   0.799  0.2144  0.3880  0.3291
  108MOL    C9849532   7.630   2.743   0.712  0.5391 -0.0271 -0.3828
  108MOL    O9949533   7.688   2.737   0.603 -0.0830 -0.2107  0.0560
  108MOL   C10049534   7.550   2.865   0.752 -0.4376  0.3331 -0.0436
  108MOL   C10149535   7.483   2.936   0.652  0.1850  0.2545  0.5494
  108MOL   C10249536   7.394   3.035   0.681 -0.3775  0.0210  0.0992
  108MOL   C10349537   7.372   3.077   0.814 -0.3474 -0.1514 -0.0866
  108MOL   C10449538   7.290   3.203   0.843 -0.2538 -0.4970  0.6581
  108MOL   O10549539   7.216   3.256   0.756  0.3860  0.1284 -0.1505
  108MOL   O10649540   7.304   3.256   0.964 -0.2307 -0.9899 -0.3741
  108MOL   C10749541   7.440   3.011   0.916  0.2989  0.7869 -0.1732
  108MOL   C10849542   7.528   2.904   0.888 -0.0846  0.6922 -0.0636
  108MOL   H10949543   7.810   2.409   0.902 -2.8693 -0.7798 -0.3501
  108MOL   H11049544   7.857   2.561   0.853  1.2270 -0.5148  0.6576
  108MOL   H11149545   7.589   2.446   0.806 -1.7633  1.5189  1.8147
  108MOL   H11249546   7.660   2.488   0.655  1.9770  1.9188 -0.1017
  108MOL   H11349547   7.512   2.911   0.551  0.6779 -0.9507  0.9882
  108MOL   H11449548   7.355   3.099   0.604  0.0331  0.1141 -0.0324
  108MOL   H11549549   7.426   3.052   1.015 -0.4229 -1.0148  0.4753
  108MOL   H11649550   7.560   2.841   0.970  0.6738 -2.0786 -2.3649
  108MOL   O11749551   7.224   3.379   0.984  0.1935 -0.0176  0.5810
  108MOL   C11849552   7.311   3.485   1.010 -0.5109  0.0498  0.0147
  108MOL   C11949553   7.388   3.472   1.134 -0.0406 -0.0678  0.0308
  108MOL   O12049554   7.493   3.382   1.112 -0.2884 -0.8340 -0.3155
  108MOL   C12149555   7.543   3.299   1.199  0.3225 -0.3311  0.3695
  108MOL   O12249556   7.505   3.299   1.317  1.3311 -0.0942  0.2846
  108MOL   C12349557   7.641   3.201   1.142  0.2972  1.0320  0.0981
  108MOL   C12449558   7.656   3.074   1.195  0.5782  0.3055  0.1205
  108MOL   C12549559   7.747   2.980   1.145  0.2215  0.4619  0.3622
  108MOL   C12649560   7.824   3.016   1.031  0.3822 -0.1247  0.1095
  108MOL   C12749561   7.916   2.909   0.975 -0.5219  0.6960 -0.0560
  108MOL   O12849562   7.920   2.792   1.025 -0.0733 -0.3590  0.3107
  108MOL   O12949563   8.002   2.949   0.871 -0.6357  0.1230 -0.2090
  108MOL   C13049564   7.811   3.145   0.973 -0.5306 -0.5109  0.3688
  108MOL   C13149565   7.716   3.235   1.023 -0.2132  0.4326 -1.0464
  108MOL   H13249566   7.382   3.502   0.929 -1.1562 -1.1927 -0.8252
  108MOL   H13349567   7.252   3.576   1.017  0.4311  0.6400  0.3129
  108MOL   H13449568   7.335   3.452   1.227 -0.1179 -0.3001 -0.0617
  108MOL   H13549569   7.437   3.567   1.156  0.3052 -0.0480 -0.8072
  108MOL   H13649570   7.595   3.047   1.281  0.1278  0.0143 -0.2911
  108MOL   H13749571   7.762   2.885   1.193  0.6906  0.4785  0.2542
  108MOL   H13849572   7.867   3.184   0.890 -1.5428 -0.7628 -0.4460
  108MOL   H13949573   7.701   3.329   0.972  1.0304  0.6354 -1.0489
  108MOL   O14049574   8.119   2.858   0.862 -0.0435  0.0260  0.8388
  108MOL   C14149575   8.228   2.902   0.937  0.4093  0.0885 -0.3926
  108MOL   C14249576   8.225   2.835   1.080 -0.4720 -0.4493  0.1117
  108MOL   O14349577   0.028   2.915   1.166 -0.2182  0.0687  0.1854
  108MOL   C14449578   0.159   2.876   1.170 -0.0005  0.0298  0.0654
  108MOL   O14549579   0.206   2.771   1.118 -0.1640 -0.4203 -0.3325
  108MOL   C14649580   0.244   2.973   1.248 -0.4279 -0.9028 -0.3661
  108MOL   C14749581   0.191   3.095   1.299  0.2865  0.9077  0.1754
  108MOL   C14849582   0.280   3.196   1.351 -0.8969  0.4608 -0.4418
  108MOL   C14949583   0.418   3.168   1.371 -0.4890  0.6076 -0.2868
  108MOL   C15049584   0.511   3.253   1.447  0.2206 -0.5673  0.1330
  108MOL   O15149585   0.630   3.242   1.478  0.0588 -0.2797 -0.1544
  108MOL   O15249586   0.450   3.372   1.461 -0.0597  0.2651  0.1221
  108MOL   C15349587   0.466   3.046   1.332  0.3737  0.1514  0.3067
  108MOL   C15449588   0.379   2.953   1.267  0.0897  0.4796  0.9060
  108MOL   H15549589   0.051   2.886   0.892  1.0293  0.7692  0.7072
  108MOL   H15649590   8.224   3.009   0.954  2.5598  0.3064 -1.0538
  108MOL   H15749591   8.255   2.731   1.072  1.6151  0.2996 -2.7051
  108MOL   H15849592   8.130   2.854   1.131 -0.4219 -1.8378  0.7423
  108MOL   H15949593   0.086   3.117   1.285  0.2337 -0.5038 -1.9642
  108MOL   H16049594   0.239   3.289   1.387  1.6100  1.7413 -0.7840
  108MOL   H16149595   0.572   3.026   1.324  0.4308  0.4623  0.3055
  108MOL   H16249596   0.420   2.857   1.240  0.2454  0.0323  2.7002
  108MOL   O16349597   0.541   3.485   1.520 -0.3084 -0.4517  0.1170
  108MOL   C16449598   0.616   3.538   1.409  0.1678 -0.0716 -0.9151
  108MOL   C16549599   0.766   3.539   1.447 -0.1282  0.0860  0.0487
  108MOL   O16649600   0.848   3.588   1.344  0.1725 -0.2939 -0.2398
  108MOL   C16749601   0.898   3.712   1.340  0.1657 -0.0909 -0.2558
  108MOL   O16849602   0.860   3.795   1.417 -0.3748 -0.7610  0.2161
  108MOL   C16949603   0.991   3.731   1.231  0.3159 -0.1769  0.0716
  108MOL   C17049604   1.049   3.626   1.168 -0.4043  0.3055  0.1859
  108MOL   C17149605   1.109   3.628   1.044 -0.2713  0.6411 -0.0365
  108MOL   C17249606   1.122   3.748   0.975 -0.1233  0.1345  0.0139
  108MOL   C17349607   1.189   3.755   0.844  0.3179  0.4953  0.4493
  108MOL   O17449608   1.203   3.859   0.777 -0.1306 -0.6071 -0.7219
  108MOL   O17549609   1.219   3.636   0.784  0.1186  0.3937 -0.0342
  108MOL   C17649610   1.071   3.865   1.038  0.3716 -0.8351  1.0060
  108MOL   C17749611   1.002   3.855   1.160  0.1354 -0.9506 -0.1850
  108MOL   H17849612   0.603   3.487   1.314  1.0120 -1.7881 -0.1305
  108MOL   H17949613   0.598   3.645   1.415 -2.4261 -0.4868 -0.7408
  108MOL   H18049614   0.790   3.434   1.461 -1.3982  0.0181  1.8462
  108MOL   H18149615   0.779   3.596   1.539  0.1674 -1.2046  0.8111
  108MOL   H18249616   1.052   3.535   1.228 -0.5936 -0.0904 -0.4016
  108MOL   H18349617   1.146   3.538   0.998 -1.1424  0.1896  0.1496
  108MOL   H18449618   1.084   3.958   0.985  0.3986  0.2537  2.8996
  108MOL   H18549619   0.977   3.945   1.214 -1.9146 -1.1694 -0.6970
  108MOL   O18649620   1.263   3.635   0.637 -0.0980 -0.6052  0.3504
  108MOL   C18749621   1.151   3.639   0.554 -0.2862 -0.2397 -0.5338
  108MOL   C18849622   1.047   3.530   0.588  0.4741 -0.1237 -0.5752
  108MOL   O18949623   1.104   3.409   0.639  0.6018  0.5450 -0.3167
  108MOL   C19049624   1.161   3.316   0.555  0.5104 -0.8914  0.5669
  108MOL   O19149625   1.156   3.333   0.434 -0.2813 -0.2567 -0.2546
  108MOL   C19249626   1.225   3.200   0.627 -0.5749  0.1271 -0.4192
  108MOL   C19349627   1.307   3.115   0.551  0.6714  0.2940  0.2311
  108MOL   C19449628   1.376   3.006   0.614 -0.1894  0.2435 -0.7257
  108MOL   C19549629   1.373   2.990   0.757 -0.3388 -0.2949 -0.5441
  108MOL   C19649630   1.439   2.865   0.815 -0.2211 -0.7455 -0.3065
  108MOL   O19749631   1.511   2.787   0.753 -0.0514  0.2405 -0.7210
  108MOL   O19849632   1.421   2.851   0.952 -0.2857 -0.7757 -0.2039
  108MOL   C19949633   1.302   3.083   0.834 -0.2392 -0.0796 -0.4037
  108MOL   C20049634   1.221   3.182   0.771  0.2923 -0.1408  0.1485
  108MOL   H20149635   1.099   3.734   0.560  0.0375  0.1532 -3.3897
  108MOL   H20249636   1.179   3.616   0.451  0.2708 -2.0206 -0.0112
  108MOL   H20349637   0.989   3.511   0.497  0.7341 -0.7981 -0.6058
  108MOL   H20449638   0.989   3.564   0.673  1.3636  1.6266 -0.6609
  108MOL   H20549639   1.311   3.131   0.444  1.7481 -0.3311  0.1744
  108MOL   H20649640   1.423   2.930   0.553  1.1847  0.1047  0.4638
  108MOL   H20749641   1.280   3.065   0.938 -0.7695  2.2351 -0.0806
  108MOL   H20849642   1.161   3.239   0.840  2.7304  0.4381  1.8414
  108MOL   O20949643   1.516   2.761   1.030 -0.0848 -0.2599 -0.2534
  108MOL   C21049644   1.470   2.626   1.030  0.5922 -0.5843  0.2863
  108MOL   C21149645   1.508   2.542   1.158  0.1604  0.4423  0.2225
  108MOL   O21249646   1.443   2.583   1.277  0.7432 -0.4267 -0.4941
  108MOL   C21349647   1.494   2.689   1.352 -0.4524  0.0248  0.1662
  108MOL   O21449648   1.587   2.757   1.312 -0.5212 -0.6881 -0.0646
  108MOL   C21549649   1.429   2.708   1.481 -0.4098 -0.4915  0.2253
  108MOL   C21649650   1.498   2.783   1.584 -0.4591 -0.3999  0.5051
  108MOL   C21749651   1.428   2.828   1.702  0.2972 -0.2732 -0.2788
  108MOL   C21849652   1.308   2.768   1.733 -0.2076 -0.5535  0.1645
  108MOL   C21949653   1.244   2.786   1.870 -0.0307 -0.1669  0.2520
  108MOL   O22049654   1.159   2.712   1.920 -0.4118 -0.4770  0.2051
  108MOL   O22149655   1.297   2.900   1.933 -0.0066  0.2154 -0.2647
  108MOL   C22249656   1.241   2.677   1.637  0.5088 -0.1122 -0.0099
  108MOL   C22349657   1.306   2.651   1.518  0.6609  0.4048  0.4446
  108MOL   H22449658   1.362   2.620   1.021  0.2009  1.4676  3.1808
  108MOL   H22549659   1.514   2.579   0.941  0.9053  2.8400 -1.4495
  108MOL   H22649660   1.616   2.548   1.172  0.3580  3.1179 -2.0031
  108MOL   H22749661   1.489   2.435   1.150  0.4948  0.2343  1.9995
  108MOL   H22849662   1.596   2.820   1.559 -1.0826  0.3165 -0.8922
  108MOL   H22949663   1.479   2.895   1.770  2.3139  0.0872 -2.0587
  108MOL   H23049664   1.149   2.635   1.675  0.7171 -2.3635 -1.8970
  108MOL   H23149665   1.265   2.589   1.440 -1.3841  4.2155 -1.6766
  108MOL   O23249666   1.247   2.918   2.072  0.7382 -0.0370  0.1419
  108MOL   C23349667   1.150   3.024   2.083  0.0670  0.2060  0.3735
  108MOL   C23449668   1.221   3.156   2.118  1.3588 -0.4569 -0.0162
  108MOL   O23549669   1.110   3.258   2.127 -0.5348  0.2062 -0.4429
  108MOL   C23649670   1.071   3.297   2.250 -0.3262 -0.7403  0.1371
  108MOL   O23749671   1.097   3.232   2.349 -0.4363 -0.3497  0.5144
  108MOL   C23849672   0.990   3.424   2.250  0.5217  0.1758  0.4307
  108MOL   C23949673   0.960   3.504   2.134  0.1907 -0.3319  0.4013
  108MOL   C24049674   0.892   3.628   2.143  0.4239 -0.1662 -0.4207
  108MOL   C24149675   0.849   3.673   2.264 -1.0333  0.2152 -0.7565
  108MOL   C24249676   0.775   3.796   2.280  0.7560  0.1780 -0.0684
  108MOL   O24349677   0.749   3.851   2.391  0.0950  0.0300 -0.2229
  108MOL   O24449678   0.744   3.860   2.157 -0.5705  0.3496 -0.3687
  108MOL   C24549679   0.889   3.610   2.379 -0.4952  0.4596  0.7552
  108MOL   C24649680   0.962   3.486   2.375 -0.4187 -0.3455 -0.2482
  108MOL   H24749681   1.096   3.042   1.990  3.4894  0.5548 -1.6418
  108MOL   H24849682   1.075   2.990   2.155  0.0997 -0.5455  0.0634
  108MOL   H24949683   1.302   3.196   2.057  1.8248 -0.3387  0.6719
  108MOL   H25049684   1.278   3.154   2.211  1.8089  0.1482 -0.2756
  108MOL   H25149685   0.993   3.462   2.040  0.4732  2.1298 -0.6509
  108MOL   H25249686   0.864   3.685   2.056 -0.3225 -0.9777 -0.7252
  108MOL   H25349687   0.879   3.657   2.476 -1.4375 -1.7699  1.7863
  108MOL   H25449688   1.001   3.433   2.460  1.3597  0.9845 -0.2021
  108MOL   O25549689   0.666   3.981   2.180 -0.2017  0.1798  0.7091
  108MOL   C25649690   0.754   4.091   2.196  0.2785 -0.0999  0.7508
  108MOL   C25749691   0.806   4.157   2.070 -0.2208  0.0350  0.3598
  108MOL   O25849692   0.780   4.290   2.056  0.6877 -0.0855 -0.1869
  108MOL   C25949693   0.871   4.380   2.083 -0.2535 -0.0536 -0.7370
  108MOL   O26049694   0.978   4.352   2.136 -0.0089 -0.4425  0.1921
  108MOL   C26149695   0.829   4.521   2.055 -0.0763  0.0777  0.3455
  108MOL   C26249696   0.727   4.549   1.959 -0.4891  0.4799  0.2937
  108MOL   C26349697   0.690   4.685   1.927 -1.0791  0.6899 -0.1850
  108MOL   C26449698   0.761   4.789   2.003  0.0540  0.6880 -0.0163
  108MOL   C26549699   0.719   4.931   1.996 -0.0345 -0.0582 -0.3580
  108MOL   O26649700   0.787   5.026   2.026 -0.0176  0.0974 -0.3477
  108MOL   O26749701   0.590   4.938   1.951 -0.6949  0.0235 -0.1661
  108MOL   C26849702   0.875   4.762   2.079  0.3781 -0.1148  1.0533
  108MOL   C26949703   0.904   4.628   2.109  0.2010  0.2976 -0.5088
  108MOL   H27049704   0.712   4.178   2.247  1.3592  0.4382  0.7393
  108MOL   H27149705   0.848   4.063   2.243  1.5133 -0.5530 -1.8902
  108MOL   H27249706   0.757   4.104   1.989  0.6936 -0.2568 -0.0152
  108MOL   H27349707   0.910   4.122   2.062  0.9161  3.5903 -1.4205
  108MOL   H27449708   0.671   4.471   1.910 -1.0840  1.1435 -0.0989
  108MOL   H27549709   0.613   4.703   1.855 -0.0796 -0.0552 -1.4688
  108MOL   H27649710   0.937   4.838   2.125  0.6643 -0.6044  1.4908
  108MOL   H27749711   0.980   4.606   2.183  0.0668 -0.6698 -0.6460
  108MOL   O27849712   0.525   5.080   1.956 -0.1918 -0.3150 -0.5946
  108MOL   C27949713   0.491   5.118   1.825  0.2610  0.0305  0.0378
  108MOL   C28049714   0.347   5.083   1.786 -0.1990  0.1358  0.7424
  108MOL   O28149715   0.328   4.975   1.698  0.7913 -0.2078  0.1497
  108MOL   C28249716   0.339   4.842   1.729 -0.4297  0.4184 -0.8055
  108MOL   O28349717   0.374   4.796   1.842 -0.2315 -0.2067 -0.8944
  108MOL   C28449718   0.299   4.751   1.622  0.1606 -0.1332 -1.0483
  108MOL   C28549719   0.234   4.798   1.507  0.1811  0.3484  0.3317
  108MOL   C28649720   0.201   4.703   1.404  0.7465  0.2239  0.4942
  108MOL   C28749721   0.222   4.562   1.423 -0.3012 -0.2239  0.2117
  108MOL   C28849722   0.195   4.468   1.309 -0.6143 -0.3182 -0.5494
  108MOL   O28949723   0.145   4.509   1.206  0.1390 -0.0919 -0.0034
  108MOL   O29049724   0.223   4.335   1.339 -0.1682 -0.1683 -0.0839
  108MOL   C29149725   0.298   4.523   1.534  0.5089  0.5590  0.1751
  108MOL   C29249726   0.327   4.612   1.635 -0.1346  0.8273  0.1006
  108MOL   H29349727   0.493   5.227   1.837 -0.7351  0.1677 -1.0635
  108MOL   H29449728   0.561   5.095   1.745 -0.1502 -0.0880 -0.2848
  108MOL   H29549729   0.308   5.176   1.745 -0.9042 -1.0689 -1.4235
  108MOL   H29649730   0.287   5.078   1.876 -0.0758  0.8068  0.8649
  108MOL   H29749731   0.215   4.902   1.488 -0.2631  0.0519 -0.8772
  108MOL   H29849732   0.158   4.738   1.311 -0.4211  1.5025  1.5034
  108MOL   H29949733   0.335   4.424   1.552  1.2334  1.3115  3.1475
  108MOL   H30049734   0.383   4.572   1.719  0.5779  1.0336 -0.2722
  108MOL   O30149735   0.164   4.243   1.231 -0.4022 -0.2302  0.9596
  108MOL   C30249736   0.271   4.193   1.157  1.5779  0.0110 -0.0380
  108MOL   C30349737   0.237   4.184   1.007 -0.3659 -0.0794 -0.7094
  108MOL   O30449738   0.204   4.309   0.957 -0.2094  0.1745  0.3150
  108MOL   C30549739   0.305   4.401   0.937 -0.6711  0.0319  0.2873
  108MOL   O30649740   0.425   4.381   0.970 -0.3556  0.2426 -0.5102
  108MOL   C30749741   0.263   4.527   0.873  0.2163  0.9188 -0.2747
  108MOL   C30849742   0.349   4.635   0.870  0.2552  0.0764  0.1275
  108MOL   C30949743   0.327   4.750   0.796 -1.1814 -0.9180  0.8859
  108MOL   C31049744   0.220   4.754   0.705  0.0831  0.2511 -0.1234
  108MOL   C31149745   0.188   4.872   0.625 -0.1642  0.3421  0.7135
  108MOL   O31249746   0.085   4.879   0.559  0.3011  0.2226  0.1222
  108MOL   O31349747   0.282   4.971   0.632 -0.0488 -0.1400  0.3499
  108MOL   C31449748   0.137   4.642   0.704  0.0246 -0.7332 -0.5866
  108MOL   C31549749   0.152   4.532   0.793 -0.0732  0.2866  0.2850
  108MOL   H31649750   0.355   4.262   1.167  0.2715  1.9890 -2.3316
  108MOL   H31749751   0.305   4.100   1.203 -0.3481 -1.4346 -1.4506
  108MOL   H31849752   0.152   4.119   0.989  0.6548 -1.4087 -0.8022
  108MOL   H31949753   0.323   4.143   0.953  1.2705  0.1154  1.6492
  108MOL   H32049754   0.436   4.640   0.934  0.3094 -3.2992  0.4522
  108MOL   H32149755   0.387   4.838   0.816  1.4777 -2.6405  0.7432
  108MOL   H32249756   0.051   4.649   0.639 -0.7538 -0.5700  0.4488
  108MOL   H32349757   0.091   4.444   0.780  0.8654 -0.0662 -1.9599
  108MOL   O32449758   0.265   5.090   0.533  0.0925  0.3946  0.3450
  108MOL   C32549759   0.246   5.206   0.613 -0.4474  0.4881  0.7034
  108MOL   C32649760   0.214   5.321   0.514 -0.4141 -0.3710 -0.1435
  108MOL   O32749761   0.107   5.297   0.422  0.7234 -0.2557  0.3274
  108MOL   C32849762   8.266   5.248   0.457 -0.1242 -0.8641  0.0738
  108MOL   O32949763   8.226   5.239   0.573  0.6796 -0.0109  0.1881
  108MOL   C33049764   8.185   5.216   0.340 -0.1298  0.6850 -0.9665
  108MOL   C33149765   8.060   5.147   0.361  0.5706 -0.0896  0.2590
  108MOL   C33249766   7.979   5.105   0.257  0.8430 -0.4587  0.2148
  108MOL   C33349767   8.007   5.146   0.126  0.6483 -0.3247 -0.0279
  108MOL   C33449768   7.915   5.123   0.012  0.0104 -0.3402 -0.5749
  108MOL   O33549769   7.938   5.166   8.175 -0.0937  0.0480  0.7863
  108MOL   O33649770   7.801   5.062   0.049 -0.0474 -0.3037  0.6536
  108MOL   C33749771   8.129   5.205   0.102 -0.1407 -0.7358  0.1295
  108MOL   C33849772   8.221   5.231   0.205 -0.3658  0.1381 -0.6915
  108MOL   H33949773   0.168   5.196   0.688 -0.5787  5.0697  1.3224
  108MOL   H34049774   0.340   5.219   0.668 -0.1709 -0.2384  0.4027
  108MOL   H34149775   0.294   5.357   0.450 -2.4943  2.3032 -1.3990
  108MOL   H34249776   0.189   5.410   0.573  0.6762  0.9065 -1.5749
  108MOL   H34349777   8.018   5.124   0.458  1.9657  0.9897  1.1353
  108MOL   H34449778   7.888   5.050   0.276 -0.4150  1.1155 -1.0708
  108MOL   H34549779   8.153   5.237   0.001  1.1002 -1.4976  0.1778
  108MOL   H34649780   0.043   5.271   0.184 -0.3543  0.8510  0.6287
  108MOL   O34749781   7.693   5.063   8.221  0.0176 -0.2852  0.0073
  108MOL   C34849782   7.721   4.953   8.134 -0.2835 -0.1756 -0.4119
  108MOL   C34949783   7.590   4.894   8.077 -0.4313 -0.6836 -0.4516
  108MOL   O35049784   7.530   4.826   8.184  0.0341  0.0484  0.0159
  108MOL   C35149785   7.410   4.773   8.161 -0.2213  0.0300 -0.2633
  108MOL   O35249786   7.353   4.763   8.052  0.1819  0.1389  0.0577
  108MOL   C35349787   7.344   4.703   0.002 -0.3370  0.2063  0.3287
  108MOL   C35449788   7.227   4.628   8.253 -0.3692  0.5953 -0.0912
  108MOL   C35549789   7.174   4.551   0.083  0.6487 -0.6617 -0.1672
  108MOL   C35649790   7.231   4.548   0.214  0.4905 -0.1097  0.3635
  108MOL   C35749791   7.170   4.476   0.331 -0.4412 -0.5780  0.5073
  108MOL   O35849792   7.056   4.420   0.321  0.4053  0.1848 -0.3179
  108MOL   O35949793   7.243   4.481   0.446  0.7590  0.6465  0.3569
  108MOL   C36049794   7.348   4.622   0.234  0.1121  0.3829 -0.5783
  108MOL   C36149795   7.407   4.697   0.131 -0.6228 -0.4588 -0.3801
  108MOL   H36249796   7.778   4.996   8.052  3.1808 -0.0710  1.9532
  108MOL   H36349797   7.779   4.873   8.181 -0.2783  0.9686  1.5881
  108MOL   H36449798   7.619   4.824   7.999  0.7816  1.4756 -1.9963
  108MOL   H36549799   7.530   4.972   8.029  0.8441 -0.4644 -1.7183
  108MOL   H36649800   7.181   4.631   8.155 -3.3468  4.0627  1.3035
  108MOL   H36749801   7.083   4.495   0.063 -0.2363  1.2991 -1.8156
  108MOL   H36849802   7.396   4.609   0.330  0.0240 -1.0330 -0.7110
  108MOL   H36949803   7.495   4.754   0.155 -1.3966  0.1498  1.0563
  108MOL   O37049804   7.211   4.380   0.549  0.0355 -0.3316 -0.3424
  108MOL   C37149805   7.303   4.280   0.532  0.0555 -0.1886 -0.5268
  108MOL   C37249806   7.252   4.164   0.625 -0.0420 -0.1222  0.4236
  108MOL   O37349807   7.277   4.193   0.761  0.2902  0.4315  0.3079
  108MOL   C37449808   7.182   4.220   0.859  0.2759  0.8604  0.1331
  108MOL   O37549809   7.063   4.236   0.846  0.4123 -0.0157  0.2915
  108MOL   C37649810   7.261   4.239   0.987  1.1995 -0.7659 -1.1170
  108MOL   C37749811   7.193   4.224   1.113 -0.4864  0.3266 -0.2704
  108MOL   C37849812   7.256   4.247   1.230  0.2228  0.5953 -0.4838
  108MOL   C37949813   7.382   4.305   1.235 -0.1348  0.9229  0.5392
  108MOL   C38049814   7.452   4.326   1.365 -0.0140  0.3103 -0.0492
  108MOL   O38149815   7.425   4.253   1.454  0.5906  0.1363  0.1569
  108MOL   O38249816   7.548   4.423   1.367 -0.0572  0.8506  0.3133
  108MOL   C38349817   7.460   4.320   1.110  0.8552  0.1738 -0.0776
  108MOL   C38449818   7.395   4.287   0.988  0.1565 -0.5964 -0.0264
  108MOL   H38549819   7.293   4.234   0.433  1.9158 -2.3197  0.2231
  108MOL   H38649820   7.408   4.309   0.539 -0.3038  1.2496 -0.9340
  108MOL   H38749821   7.294   4.072   0.585 -0.5817  0.4994 -1.6516
  108MOL   H38849822   7.144   4.155   0.637 -0.0047 -0.6314  0.3744
  108MOL   H38949823   7.091   4.190   1.118  0.0833 -1.4619 -0.2554
  108MOL   H39049824   7.210   4.220   1.324 -0.0534 -2.3331 -1.4081
  108MOL   H39149825   7.561   4.357   1.105  1.7732 -2.0730  1.2044
  108MOL   H39249826   7.444   4.309   0.894  0.8776 -1.4350  0.1498
  108MOL   O39349827   7.628   4.405   1.497 -0.1840  0.0274 -0.6279
  108MOL   C39449828   7.618   4.515   1.583  0.3975  0.0465  0.0099
  108MOL   C39549829   7.725   4.528   1.686 -0.2999  0.0990  0.3060
  108MOL   O39649830   7.808   4.635   1.644 -0.4094 -0.6104 -0.1524
  108MOL   C39749831   7.921   4.619   1.587 -0.2318 -0.2337  0.3128
  108MOL   O39849832   7.979   4.511   1.582 -0.2266 -0.7128  0.6429
  108MOL   C39949833   7.971   4.746   1.519 -0.6538 -0.3662  0.9737
  108MOL   C40049834   8.090   4.743   1.439  0.0788 -0.6403 -0.0312
  108MOL   C40149835   8.134   4.855   1.366 -0.2340 -0.5344 -0.1299
  108MOL   C40249836   8.055   4.973   1.373  0.0002 -0.5416  0.0923
  108MOL   C40349837   8.107   5.092   1.299  0.1135 -0.0262 -0.3436
  108MOL   O40449838   8.196   5.087   1.218  0.4121  0.2541 -0.1515
  108MOL   O40549839   8.054   5.209   1.331  0.7074  0.9580 -0.0761
  108MOL   C40649840   7.935   4.977   1.454 -0.9472 -0.0599 -0.1502
  108MOL   C40749841   7.898   4.864   1.532 -0.7020 -0.5136 -0.0817
  108MOL   H40849842   7.605   4.613   1.535 -0.3829  0.4511  1.0334
  108MOL   H40949843   7.531   4.494   1.644 -0.1854  1.7449 -0.2067
  108MOL   H41049844   7.770   4.430   1.700 -0.4758  0.0917  0.8284
  108MOL   H41149845   7.690   4.559   1.785  2.0168 -1.5009  1.6713
  108MOL   H41249846   8.139   4.647   1.443  0.9600 -0.1825  0.2455
  108MOL   H41349847   8.212   4.854   1.292  0.3594 -1.0037  0.4939
  108MOL   H41449848   7.880   5.067   1.476 -1.3311 -0.9312  2.6331
  108MOL   H41549849   7.811   4.876   1.594 -0.0465  2.9503  0.2896
  108MOL   O41649850   8.126   5.330   1.270  0.3295  0.0425  0.1193
  108MOL   C41749851   8.032   5.418   1.216 -0.1109 -0.3067  0.6414
  108MOL   C41849852   7.947   5.485   1.320 -0.2576  0.1785  0.1630
  108MOL   O41949853   8.011   5.602   1.375 -0.4164  0.5482  0.8527
  108MOL   C42049854   8.103   5.593   1.474  0.2558  0.0765 -0.2188
  108MOL   O42149855   8.123   5.495   1.551 -0.0299 -0.1729  0.0107
  108MOL   C42249856   8.181   5.717   1.486  0.2446 -0.6663  0.0943
  108MOL   C42349857   8.265   5.741   1.598  0.2207  0.8527  0.7320
  108MOL   C42449858   0.051   5.863   1.620  0.4114  0.1448  0.3561
  108MOL   C42549859   0.038   5.966   1.531  0.3227  0.1184  0.2638
  108MOL   C42649860   0.107   6.101   1.552 -0.2108  0.1555 -0.1178
  108MOL   O42749861   0.161   6.150   1.654  0.0022  0.6953 -0.4305
  108MOL   O42849862   0.115   6.166   1.438  0.3839  0.2684  0.1577
  108MOL   C42949863   8.230   5.947   1.415 -0.5341  0.2784 -0.1100
  108MOL   C43049864   8.165   5.825   1.397 -0.2560 -0.2966  0.3900
  108MOL   H43149865   8.080   5.486   1.146  1.2768 -0.9658  0.9364
  108MOL   H43249866   7.962   5.355   1.161  0.0363 -0.7851  0.9945
  108MOL   H43349867   7.915   5.407   1.389  3.1389 -1.2099  0.2755
  108MOL   H43449868   7.859   5.531   1.276 -1.3717  0.0468  2.2179
  108MOL   H43549869   8.268   5.664   1.674  2.0872  1.5085  1.3654
  108MOL   H43649870   0.113   5.876   1.708  1.5475  0.3808 -0.4719
  108MOL   H43749871   8.210   6.025   1.342  0.7858  1.2274  0.5282
  108MOL   H43849872   8.088   5.812   1.323 -0.8527  0.4279  0.8763
  108MOL   O43949873   0.212   6.285   1.451  0.2019 -0.1901 -0.0371
  108MOL   C44049874   0.335   6.247   1.397 -0.7204 -0.0243  1.0097
  108MOL   C44149875   0.438   6.356   1.449  0.7592  0.3667  0.0384
  108MOL   O44249876   0.497   6.320   1.574 -0.0095  0.0997  0.3122
  108MOL   C44349877   0.584   6.216   1.575 -0.4528 -0.1983 -0.2097
  108MOL   O44449878   0.622   6.162   1.473  1.1250 -0.0167 -0.0766
  108MOL   C44549879   0.633   6.186   1.717 -0.1616 -0.2112  0.3352
  108MOL   C44649880   0.583   6.256   1.829 -0.2553  0.5915  0.3238
  108MOL   C44749881   0.639   6.234   1.960  0.4089  0.2716 -0.1115
  108MOL   C44849882   0.753   6.153   1.975  0.1900  0.2752  0.7673
  108MOL   C44949883   0.820   6.144   2.111 -0.2306  0.1757 -0.1430
  108MOL   O45049884   0.783   6.216   2.205 -0.5518 -0.1054 -0.5239
  108MOL   O45149885   0.933   6.058   2.114  0.0916 -0.2352 -0.2631
  108MOL   C45249886   0.804   6.081   1.862 -0.0374 -0.1695  0.0104
  108MOL   C45349887   0.739   6.094   1.735  0.0758 -0.2263  0.2529
  108MOL   H45449888   0.361   6.145   1.425 -1.9959 -0.0765  2.0251
  108MOL   H45549889   0.318   6.256   1.290  1.3254  2.7517  0.8453
  108MOL   H45649890   0.394   6.456   1.459 -0.9476 -0.0820 -2.5102
  108MOL   H45749891   0.507   6.380   1.368  1.5901 -0.4997  0.4866
  108MOL   H45849892   0.504   6.329   1.816  0.7251  1.4162 -1.3634
  108MOL   H45949893   0.593   6.273   2.050 -1.5264  0.2811 -1.0619
  108MOL   H46049894   0.892   6.021   1.880  0.0812  0.3041  1.0586
  108MOL   H46149895   0.765   6.031   1.651 -1.7645 -0.7948  0.0815
  108MOL   H46249896   0.976   6.088   2.192 -0.3119 -0.0121 -0.1233
   8.27540   8.27540   8.27540
