;
; Gromacs include topology (itp) file.
; For Molecular Group XYZ
; Force field scheme: opls2005
; Produced from DL_FIELD v4.11
;


[ moleculetype ]
; name    nrexcl
XYZ    3

[ atoms ]
; nr   type   resnr   residu    atom    cgnr    charge    mass
    1       OAL    1  MOL      O1     1  -0.6830000   15.9994
    2        CT    1  MOL      C2     2   0.1450000   12.0115
    3        CT    1  MOL      C3     3   0.1900000   12.0115
    4       OES    1  MOL      O4     4  -0.3300000   15.9994
    5       CO4    1  MOL      C5     5   0.6250000   12.0115
    6         O    1  MOL      O6     6  -0.4300000   15.9994
    7        CA    1  MOL      C7     7  -0.1150000   12.0115
    8        CA    1  MOL      C8     8  -0.1150000   12.0115
    9        CA    1  MOL      C9     9  -0.1150000   12.0115
   10        CA    1  MOL     C10    10  -0.1150000   12.0115
   11       CO4    1  MOL     C11    11   0.6250000   12.0115
   12         O    1  MOL     O12    12  -0.4300000   15.9994
   13       OES    1  MOL     O13    13  -0.0800000   15.9994
   14        CA    1  MOL     C14    14  -0.1150000   12.0115
   15        CA    1  MOL     C15    15  -0.1150000   12.0115
   16        HC    1  MOL     H16    16   0.0600000    1.0080
   17        HC    1  MOL     H17    17   0.0600000    1.0080
   18       HAE    1  MOL     H18    18   0.0300000    1.0080
   19       HAE    1  MOL     H19    19   0.0300000    1.0080
   20        HA    1  MOL     H20    20   0.1150000    1.0080
   21        HA    1  MOL     H21    21   0.1150000    1.0080
   22        HA    1  MOL     H22    22   0.1150000    1.0080
   23        HA    1  MOL     H23    23   0.1150000    1.0080
   24        HO    1  MOL     H24    24   0.4180000    1.0080
   25        OS    1  MOL     O25    25  -0.2000000   15.9994
   26        CT    1  MOL     C26    26   0.0800000   12.0115
   27        CT    1  MOL     C27    27   0.1900000   12.0115
   28       OES    1  MOL     O28    28  -0.3300000   15.9994
   29       CO4    1  MOL     C29    29   0.6250000   12.0115
   30         O    1  MOL     O30    30  -0.4300000   15.9994
   31        CA    1  MOL     C31    31  -0.1150000   12.0115
   32        CA    1  MOL     C32    32  -0.1150000   12.0115
   33        CA    1  MOL     C33    33  -0.1150000   12.0115
   34        CA    1  MOL     C34    34  -0.1150000   12.0115
   35       CO4    1  MOL     C35    35   0.6250000   12.0115
   36         O    1  MOL     O36    36  -0.4300000   15.9994
   37       OES    1  MOL     O37    37  -0.0800000   15.9994
   38        CA    1  MOL     C38    38  -0.1150000   12.0115
   39        CA    1  MOL     C39    39  -0.1150000   12.0115
   40        HC    1  MOL     H40    40   0.0600000    1.0080
   41        HC    1  MOL     H41    41   0.0600000    1.0080
   42       HAE    1  MOL     H42    42   0.0300000    1.0080
   43       HAE    1  MOL     H43    43   0.0300000    1.0080
   44        HA    1  MOL     H44    44   0.1150000    1.0080
   45        HA    1  MOL     H45    45   0.1150000    1.0080
   46        HA    1  MOL     H46    46   0.1150000    1.0080
   47        HA    1  MOL     H47    47   0.1150000    1.0080
   48        OS    1  MOL     O48    48  -0.2000000   15.9994
   49        CT    1  MOL     C49    49   0.0800000   12.0115
   50        CT    1  MOL     C50    50   0.1900000   12.0115
   51       OES    1  MOL     O51    51  -0.3300000   15.9994
   52       CO4    1  MOL     C52    52   0.6250000   12.0115
   53         O    1  MOL     O53    53  -0.4300000   15.9994
   54        CA    1  MOL     C54    54  -0.1150000   12.0115
   55        CA    1  MOL     C55    55  -0.1150000   12.0115
   56        CA    1  MOL     C56    56  -0.1150000   12.0115
   57        CA    1  MOL     C57    57  -0.1150000   12.0115
   58       CO4    1  MOL     C58    58   0.6250000   12.0115
   59         O    1  MOL     O59    59  -0.4300000   15.9994
   60       OES    1  MOL     O60    60  -0.0800000   15.9994
   61        CA    1  MOL     C61    61  -0.1150000   12.0115
   62        CA    1  MOL     C62    62  -0.1150000   12.0115
   63        HC    1  MOL     H63    63   0.0600000    1.0080
   64        HC    1  MOL     H64    64   0.0600000    1.0080
   65       HAE    1  MOL     H65    65   0.0300000    1.0080
   66       HAE    1  MOL     H66    66   0.0300000    1.0080
   67        HA    1  MOL     H67    67   0.1150000    1.0080
   68        HA    1  MOL     H68    68   0.1150000    1.0080
   69        HA    1  MOL     H69    69   0.1150000    1.0080
   70        HA    1  MOL     H70    70   0.1150000    1.0080
   71        OS    1  MOL     O71    71  -0.2000000   15.9994
   72        CT    1  MOL     C72    72   0.0800000   12.0115
   73        CT    1  MOL     C73    73   0.1900000   12.0115
   74       OES    1  MOL     O74    74  -0.3300000   15.9994
   75       CO4    1  MOL     C75    75   0.6250000   12.0115
   76         O    1  MOL     O76    76  -0.4300000   15.9994
   77        CA    1  MOL     C77    77  -0.1150000   12.0115
   78        CA    1  MOL     C78    78  -0.1150000   12.0115
   79        CA    1  MOL     C79    79  -0.1150000   12.0115
   80        CA    1  MOL     C80    80  -0.1150000   12.0115
   81       CO4    1  MOL     C81    81   0.6250000   12.0115
   82         O    1  MOL     O82    82  -0.4300000   15.9994
   83       OES    1  MOL     O83    83  -0.0800000   15.9994
   84        CA    1  MOL     C84    84  -0.1150000   12.0115
   85        CA    1  MOL     C85    85  -0.1150000   12.0115
   86        HC    1  MOL     H86    86   0.0600000    1.0080
   87        HC    1  MOL     H87    87   0.0600000    1.0080
   88       HAE    1  MOL     H88    88   0.0300000    1.0080
   89       HAE    1  MOL     H89    89   0.0300000    1.0080
   90        HA    1  MOL     H90    90   0.1150000    1.0080
   91        HA    1  MOL     H91    91   0.1150000    1.0080
   92        HA    1  MOL     H92    92   0.1150000    1.0080
   93        HA    1  MOL     H93    93   0.1150000    1.0080
   94        OS    1  MOL     O94    94  -0.2000000   15.9994
   95        CT    1  MOL     C95    95   0.0800000   12.0115
   96        CT    1  MOL     C96    96   0.1900000   12.0115
   97       OES    1  MOL     O97    97  -0.3300000   15.9994
   98       CO4    1  MOL     C98    98   0.6250000   12.0115
   99         O    1  MOL     O99    99  -0.4300000   15.9994
  100        CA    1  MOL    C100   100  -0.1150000   12.0115
  101        CA    1  MOL    C101   101  -0.1150000   12.0115
  102        CA    1  MOL    C102   102  -0.1150000   12.0115
  103        CA    1  MOL    C103   103  -0.1150000   12.0115
  104       CO4    1  MOL    C104   104   0.6250000   12.0115
  105         O    1  MOL    O105   105  -0.4300000   15.9994
  106       OES    1  MOL    O106   106  -0.0800000   15.9994
  107        CA    1  MOL    C107   107  -0.1150000   12.0115
  108        CA    1  MOL    C108   108  -0.1150000   12.0115
  109        HC    1  MOL    H109   109   0.0600000    1.0080
  110        HC    1  MOL    H110   110   0.0600000    1.0080
  111       HAE    1  MOL    H111   111   0.0300000    1.0080
  112       HAE    1  MOL    H112   112   0.0300000    1.0080
  113        HA    1  MOL    H113   113   0.1150000    1.0080
  114        HA    1  MOL    H114   114   0.1150000    1.0080
  115        HA    1  MOL    H115   115   0.1150000    1.0080
  116        HA    1  MOL    H116   116   0.1150000    1.0080
  117        OS    1  MOL    O117   117  -0.2000000   15.9994
  118        CT    1  MOL    C118   118   0.0800000   12.0115
  119        CT    1  MOL    C119   119   0.1900000   12.0115
  120       OES    1  MOL    O120   120  -0.3300000   15.9994
  121       CO4    1  MOL    C121   121   0.6250000   12.0115
  122         O    1  MOL    O122   122  -0.4300000   15.9994
  123        CA    1  MOL    C123   123  -0.1150000   12.0115
  124        CA    1  MOL    C124   124  -0.1150000   12.0115
  125        CA    1  MOL    C125   125  -0.1150000   12.0115
  126        CA    1  MOL    C126   126  -0.1150000   12.0115
  127       CO4    1  MOL    C127   127   0.6250000   12.0115
  128         O    1  MOL    O128   128  -0.4300000   15.9994
  129       OES    1  MOL    O129   129  -0.0800000   15.9994
  130        CA    1  MOL    C130   130  -0.1150000   12.0115
  131        CA    1  MOL    C131   131  -0.1150000   12.0115
  132        HC    1  MOL    H132   132   0.0600000    1.0080
  133        HC    1  MOL    H133   133   0.0600000    1.0080
  134       HAE    1  MOL    H134   134   0.0300000    1.0080
  135       HAE    1  MOL    H135   135   0.0300000    1.0080
  136        HA    1  MOL    H136   136   0.1150000    1.0080
  137        HA    1  MOL    H137   137   0.1150000    1.0080
  138        HA    1  MOL    H138   138   0.1150000    1.0080
  139        HA    1  MOL    H139   139   0.1150000    1.0080
  140        OS    1  MOL    O140   140  -0.2000000   15.9994
  141        CT    1  MOL    C141   141   0.0800000   12.0115
  142        CT    1  MOL    C142   142   0.1900000   12.0115
  143       OES    1  MOL    O143   143  -0.3300000   15.9994
  144       CO4    1  MOL    C144   144   0.6250000   12.0115
  145         O    1  MOL    O145   145  -0.4300000   15.9994
  146        CA    1  MOL    C146   146  -0.1150000   12.0115
  147        CA    1  MOL    C147   147  -0.1150000   12.0115
  148        CA    1  MOL    C148   148  -0.1150000   12.0115
  149        CA    1  MOL    C149   149  -0.1150000   12.0115
  150       CO4    1  MOL    C150   150   0.6250000   12.0115
  151         O    1  MOL    O151   151  -0.4300000   15.9994
  152       OES    1  MOL    O152   152  -0.0800000   15.9994
  153        CA    1  MOL    C153   153  -0.1150000   12.0115
  154        CA    1  MOL    C154   154  -0.1150000   12.0115
  155        HC    1  MOL    H155   155   0.0600000    1.0080
  156        HC    1  MOL    H156   156   0.0600000    1.0080
  157       HAE    1  MOL    H157   157   0.0300000    1.0080
  158       HAE    1  MOL    H158   158   0.0300000    1.0080
  159        HA    1  MOL    H159   159   0.1150000    1.0080
  160        HA    1  MOL    H160   160   0.1150000    1.0080
  161        HA    1  MOL    H161   161   0.1150000    1.0080
  162        HA    1  MOL    H162   162   0.1150000    1.0080
  163        OS    1  MOL    O163   163  -0.2000000   15.9994
  164        CT    1  MOL    C164   164   0.0800000   12.0115
  165        CT    1  MOL    C165   165   0.1900000   12.0115
  166       OES    1  MOL    O166   166  -0.3300000   15.9994
  167       CO4    1  MOL    C167   167   0.6250000   12.0115
  168         O    1  MOL    O168   168  -0.4300000   15.9994
  169        CA    1  MOL    C169   169  -0.1150000   12.0115
  170        CA    1  MOL    C170   170  -0.1150000   12.0115
  171        CA    1  MOL    C171   171  -0.1150000   12.0115
  172        CA    1  MOL    C172   172  -0.1150000   12.0115
  173       CO4    1  MOL    C173   173   0.6250000   12.0115
  174         O    1  MOL    O174   174  -0.4300000   15.9994
  175       OES    1  MOL    O175   175  -0.0800000   15.9994
  176        CA    1  MOL    C176   176  -0.1150000   12.0115
  177        CA    1  MOL    C177   177  -0.1150000   12.0115
  178        HC    1  MOL    H178   178   0.0600000    1.0080
  179        HC    1  MOL    H179   179   0.0600000    1.0080
  180       HAE    1  MOL    H180   180   0.0300000    1.0080
  181       HAE    1  MOL    H181   181   0.0300000    1.0080
  182        HA    1  MOL    H182   182   0.1150000    1.0080
  183        HA    1  MOL    H183   183   0.1150000    1.0080
  184        HA    1  MOL    H184   184   0.1150000    1.0080
  185        HA    1  MOL    H185   185   0.1150000    1.0080
  186        OS    1  MOL    O186   186  -0.2000000   15.9994
  187        CT    1  MOL    C187   187   0.0800000   12.0115
  188        CT    1  MOL    C188   188   0.1900000   12.0115
  189       OES    1  MOL    O189   189  -0.3300000   15.9994
  190       CO4    1  MOL    C190   190   0.6250000   12.0115
  191         O    1  MOL    O191   191  -0.4300000   15.9994
  192        CA    1  MOL    C192   192  -0.1150000   12.0115
  193        CA    1  MOL    C193   193  -0.1150000   12.0115
  194        CA    1  MOL    C194   194  -0.1150000   12.0115
  195        CA    1  MOL    C195   195  -0.1150000   12.0115
  196       CO4    1  MOL    C196   196   0.6250000   12.0115
  197         O    1  MOL    O197   197  -0.4300000   15.9994
  198       OES    1  MOL    O198   198  -0.0800000   15.9994
  199        CA    1  MOL    C199   199  -0.1150000   12.0115
  200        CA    1  MOL    C200   200  -0.1150000   12.0115
  201        HC    1  MOL    H201   201   0.0600000    1.0080
  202        HC    1  MOL    H202   202   0.0600000    1.0080
  203       HAE    1  MOL    H203   203   0.0300000    1.0080
  204       HAE    1  MOL    H204   204   0.0300000    1.0080
  205        HA    1  MOL    H205   205   0.1150000    1.0080
  206        HA    1  MOL    H206   206   0.1150000    1.0080
  207        HA    1  MOL    H207   207   0.1150000    1.0080
  208        HA    1  MOL    H208   208   0.1150000    1.0080
  209        OS    1  MOL    O209   209  -0.2000000   15.9994
  210        CT    1  MOL    C210   210   0.0800000   12.0115
  211        CT    1  MOL    C211   211   0.1900000   12.0115
  212       OES    1  MOL    O212   212  -0.3300000   15.9994
  213       CO4    1  MOL    C213   213   0.6250000   12.0115
  214         O    1  MOL    O214   214  -0.4300000   15.9994
  215        CA    1  MOL    C215   215  -0.1150000   12.0115
  216        CA    1  MOL    C216   216  -0.1150000   12.0115
  217        CA    1  MOL    C217   217  -0.1150000   12.0115
  218        CA    1  MOL    C218   218  -0.1150000   12.0115
  219       CO4    1  MOL    C219   219   0.6250000   12.0115
  220         O    1  MOL    O220   220  -0.4300000   15.9994
  221       OES    1  MOL    O221   221  -0.0800000   15.9994
  222        CA    1  MOL    C222   222  -0.1150000   12.0115
  223        CA    1  MOL    C223   223  -0.1150000   12.0115
  224        HC    1  MOL    H224   224   0.0600000    1.0080
  225        HC    1  MOL    H225   225   0.0600000    1.0080
  226       HAE    1  MOL    H226   226   0.0300000    1.0080
  227       HAE    1  MOL    H227   227   0.0300000    1.0080
  228        HA    1  MOL    H228   228   0.1150000    1.0080
  229        HA    1  MOL    H229   229   0.1150000    1.0080
  230        HA    1  MOL    H230   230   0.1150000    1.0080
  231        HA    1  MOL    H231   231   0.1150000    1.0080
  232        OS    1  MOL    O232   232  -0.2000000   15.9994
  233        CT    1  MOL    C233   233   0.0800000   12.0115
  234        CT    1  MOL    C234   234   0.1900000   12.0115
  235       OES    1  MOL    O235   235  -0.3300000   15.9994
  236       CO4    1  MOL    C236   236   0.6250000   12.0115
  237         O    1  MOL    O237   237  -0.4300000   15.9994
  238        CA    1  MOL    C238   238  -0.1150000   12.0115
  239        CA    1  MOL    C239   239  -0.1150000   12.0115
  240        CA    1  MOL    C240   240  -0.1150000   12.0115
  241        CA    1  MOL    C241   241  -0.1150000   12.0115
  242       CO4    1  MOL    C242   242   0.6250000   12.0115
  243         O    1  MOL    O243   243  -0.4300000   15.9994
  244       OES    1  MOL    O244   244  -0.0800000   15.9994
  245        CA    1  MOL    C245   245  -0.1150000   12.0115
  246        CA    1  MOL    C246   246  -0.1150000   12.0115
  247        HC    1  MOL    H247   247   0.0600000    1.0080
  248        HC    1  MOL    H248   248   0.0600000    1.0080
  249       HAE    1  MOL    H249   249   0.0300000    1.0080
  250       HAE    1  MOL    H250   250   0.0300000    1.0080
  251        HA    1  MOL    H251   251   0.1150000    1.0080
  252        HA    1  MOL    H252   252   0.1150000    1.0080
  253        HA    1  MOL    H253   253   0.1150000    1.0080
  254        HA    1  MOL    H254   254   0.1150000    1.0080
  255        OS    1  MOL    O255   255  -0.2000000   15.9994
  256        CT    1  MOL    C256   256   0.0800000   12.0115
  257        CT    1  MOL    C257   257   0.1900000   12.0115
  258       OES    1  MOL    O258   258  -0.3300000   15.9994
  259       CO4    1  MOL    C259   259   0.6250000   12.0115
  260         O    1  MOL    O260   260  -0.4300000   15.9994
  261        CA    1  MOL    C261   261  -0.1150000   12.0115
  262        CA    1  MOL    C262   262  -0.1150000   12.0115
  263        CA    1  MOL    C263   263  -0.1150000   12.0115
  264        CA    1  MOL    C264   264  -0.1150000   12.0115
  265       CO4    1  MOL    C265   265   0.6250000   12.0115
  266         O    1  MOL    O266   266  -0.4300000   15.9994
  267       OES    1  MOL    O267   267  -0.0800000   15.9994
  268        CA    1  MOL    C268   268  -0.1150000   12.0115
  269        CA    1  MOL    C269   269  -0.1150000   12.0115
  270        HC    1  MOL    H270   270   0.0600000    1.0080
  271        HC    1  MOL    H271   271   0.0600000    1.0080
  272       HAE    1  MOL    H272   272   0.0300000    1.0080
  273       HAE    1  MOL    H273   273   0.0300000    1.0080
  274        HA    1  MOL    H274   274   0.1150000    1.0080
  275        HA    1  MOL    H275   275   0.1150000    1.0080
  276        HA    1  MOL    H276   276   0.1150000    1.0080
  277        HA    1  MOL    H277   277   0.1150000    1.0080
  278        OS    1  MOL    O278   278  -0.2000000   15.9994
  279        CT    1  MOL    C279   279   0.0800000   12.0115
  280        CT    1  MOL    C280   280   0.1900000   12.0115
  281       OES    1  MOL    O281   281  -0.3300000   15.9994
  282       CO4    1  MOL    C282   282   0.6250000   12.0115
  283         O    1  MOL    O283   283  -0.4300000   15.9994
  284        CA    1  MOL    C284   284  -0.1150000   12.0115
  285        CA    1  MOL    C285   285  -0.1150000   12.0115
  286        CA    1  MOL    C286   286  -0.1150000   12.0115
  287        CA    1  MOL    C287   287  -0.1150000   12.0115
  288       CO4    1  MOL    C288   288   0.6250000   12.0115
  289         O    1  MOL    O289   289  -0.4300000   15.9994
  290       OES    1  MOL    O290   290  -0.0800000   15.9994
  291        CA    1  MOL    C291   291  -0.1150000   12.0115
  292        CA    1  MOL    C292   292  -0.1150000   12.0115
  293        HC    1  MOL    H293   293   0.0600000    1.0080
  294        HC    1  MOL    H294   294   0.0600000    1.0080
  295       HAE    1  MOL    H295   295   0.0300000    1.0080
  296       HAE    1  MOL    H296   296   0.0300000    1.0080
  297        HA    1  MOL    H297   297   0.1150000    1.0080
  298        HA    1  MOL    H298   298   0.1150000    1.0080
  299        HA    1  MOL    H299   299   0.1150000    1.0080
  300        HA    1  MOL    H300   300   0.1150000    1.0080
  301        OS    1  MOL    O301   301  -0.2000000   15.9994
  302        CT    1  MOL    C302   302   0.0800000   12.0115
  303        CT    1  MOL    C303   303   0.1900000   12.0115
  304       OES    1  MOL    O304   304  -0.3300000   15.9994
  305       CO4    1  MOL    C305   305   0.6250000   12.0115
  306         O    1  MOL    O306   306  -0.4300000   15.9994
  307        CA    1  MOL    C307   307  -0.1150000   12.0115
  308        CA    1  MOL    C308   308  -0.1150000   12.0115
  309        CA    1  MOL    C309   309  -0.1150000   12.0115
  310        CA    1  MOL    C310   310  -0.1150000   12.0115
  311       CO4    1  MOL    C311   311   0.6250000   12.0115
  312         O    1  MOL    O312   312  -0.4300000   15.9994
  313       OES    1  MOL    O313   313  -0.0800000   15.9994
  314        CA    1  MOL    C314   314  -0.1150000   12.0115
  315        CA    1  MOL    C315   315  -0.1150000   12.0115
  316        HC    1  MOL    H316   316   0.0600000    1.0080
  317        HC    1  MOL    H317   317   0.0600000    1.0080
  318       HAE    1  MOL    H318   318   0.0300000    1.0080
  319       HAE    1  MOL    H319   319   0.0300000    1.0080
  320        HA    1  MOL    H320   320   0.1150000    1.0080
  321        HA    1  MOL    H321   321   0.1150000    1.0080
  322        HA    1  MOL    H322   322   0.1150000    1.0080
  323        HA    1  MOL    H323   323   0.1150000    1.0080
  324        OS    1  MOL    O324   324  -0.2000000   15.9994
  325        CT    1  MOL    C325   325   0.0800000   12.0115
  326        CT    1  MOL    C326   326   0.1900000   12.0115
  327       OES    1  MOL    O327   327  -0.3300000   15.9994
  328       CO4    1  MOL    C328   328   0.6250000   12.0115
  329         O    1  MOL    O329   329  -0.4300000   15.9994
  330        CA    1  MOL    C330   330  -0.1150000   12.0115
  331        CA    1  MOL    C331   331  -0.1150000   12.0115
  332        CA    1  MOL    C332   332  -0.1150000   12.0115
  333        CA    1  MOL    C333   333  -0.1150000   12.0115
  334       CO4    1  MOL    C334   334   0.6250000   12.0115
  335         O    1  MOL    O335   335  -0.4300000   15.9994
  336       OES    1  MOL    O336   336  -0.0800000   15.9994
  337        CA    1  MOL    C337   337  -0.1150000   12.0115
  338        CA    1  MOL    C338   338  -0.1150000   12.0115
  339        HC    1  MOL    H339   339   0.0600000    1.0080
  340        HC    1  MOL    H340   340   0.0600000    1.0080
  341       HAE    1  MOL    H341   341   0.0300000    1.0080
  342       HAE    1  MOL    H342   342   0.0300000    1.0080
  343        HA    1  MOL    H343   343   0.1150000    1.0080
  344        HA    1  MOL    H344   344   0.1150000    1.0080
  345        HA    1  MOL    H345   345   0.1150000    1.0080
  346        HA    1  MOL    H346   346   0.1150000    1.0080
  347        OS    1  MOL    O347   347  -0.2000000   15.9994
  348        CT    1  MOL    C348   348   0.0800000   12.0115
  349        CT    1  MOL    C349   349   0.1900000   12.0115
  350       OES    1  MOL    O350   350  -0.3300000   15.9994
  351       CO4    1  MOL    C351   351   0.6250000   12.0115
  352         O    1  MOL    O352   352  -0.4300000   15.9994
  353        CA    1  MOL    C353   353  -0.1150000   12.0115
  354        CA    1  MOL    C354   354  -0.1150000   12.0115
  355        CA    1  MOL    C355   355  -0.1150000   12.0115
  356        CA    1  MOL    C356   356  -0.1150000   12.0115
  357       CO4    1  MOL    C357   357   0.6250000   12.0115
  358         O    1  MOL    O358   358  -0.4300000   15.9994
  359       OES    1  MOL    O359   359  -0.0800000   15.9994
  360        CA    1  MOL    C360   360  -0.1150000   12.0115
  361        CA    1  MOL    C361   361  -0.1150000   12.0115
  362        HC    1  MOL    H362   362   0.0600000    1.0080
  363        HC    1  MOL    H363   363   0.0600000    1.0080
  364       HAE    1  MOL    H364   364   0.0300000    1.0080
  365       HAE    1  MOL    H365   365   0.0300000    1.0080
  366        HA    1  MOL    H366   366   0.1150000    1.0080
  367        HA    1  MOL    H367   367   0.1150000    1.0080
  368        HA    1  MOL    H368   368   0.1150000    1.0080
  369        HA    1  MOL    H369   369   0.1150000    1.0080
  370        OS    1  MOL    O370   370  -0.2000000   15.9994
  371        CT    1  MOL    C371   371   0.0800000   12.0115
  372        CT    1  MOL    C372   372   0.1900000   12.0115
  373       OES    1  MOL    O373   373  -0.3300000   15.9994
  374       CO4    1  MOL    C374   374   0.6250000   12.0115
  375         O    1  MOL    O375   375  -0.4300000   15.9994
  376        CA    1  MOL    C376   376  -0.1150000   12.0115
  377        CA    1  MOL    C377   377  -0.1150000   12.0115
  378        CA    1  MOL    C378   378  -0.1150000   12.0115
  379        CA    1  MOL    C379   379  -0.1150000   12.0115
  380       CO4    1  MOL    C380   380   0.6250000   12.0115
  381         O    1  MOL    O381   381  -0.4300000   15.9994
  382       OES    1  MOL    O382   382  -0.0800000   15.9994
  383        CA    1  MOL    C383   383  -0.1150000   12.0115
  384        CA    1  MOL    C384   384  -0.1150000   12.0115
  385        HC    1  MOL    H385   385   0.0600000    1.0080
  386        HC    1  MOL    H386   386   0.0600000    1.0080
  387       HAE    1  MOL    H387   387   0.0300000    1.0080
  388       HAE    1  MOL    H388   388   0.0300000    1.0080
  389        HA    1  MOL    H389   389   0.1150000    1.0080
  390        HA    1  MOL    H390   390   0.1150000    1.0080
  391        HA    1  MOL    H391   391   0.1150000    1.0080
  392        HA    1  MOL    H392   392   0.1150000    1.0080
  393        OS    1  MOL    O393   393  -0.2000000   15.9994
  394        CT    1  MOL    C394   394   0.0800000   12.0115
  395        CT    1  MOL    C395   395   0.1900000   12.0115
  396       OES    1  MOL    O396   396  -0.3300000   15.9994
  397       CO4    1  MOL    C397   397   0.6250000   12.0115
  398         O    1  MOL    O398   398  -0.4300000   15.9994
  399        CA    1  MOL    C399   399  -0.1150000   12.0115
  400        CA    1  MOL    C400   400  -0.1150000   12.0115
  401        CA    1  MOL    C401   401  -0.1150000   12.0115
  402        CA    1  MOL    C402   402  -0.1150000   12.0115
  403       CO4    1  MOL    C403   403   0.6250000   12.0115
  404         O    1  MOL    O404   404  -0.4300000   15.9994
  405       OES    1  MOL    O405   405  -0.0800000   15.9994
  406        CA    1  MOL    C406   406  -0.1150000   12.0115
  407        CA    1  MOL    C407   407  -0.1150000   12.0115
  408        HC    1  MOL    H408   408   0.0600000    1.0080
  409        HC    1  MOL    H409   409   0.0600000    1.0080
  410       HAE    1  MOL    H410   410   0.0300000    1.0080
  411       HAE    1  MOL    H411   411   0.0300000    1.0080
  412        HA    1  MOL    H412   412   0.1150000    1.0080
  413        HA    1  MOL    H413   413   0.1150000    1.0080
  414        HA    1  MOL    H414   414   0.1150000    1.0080
  415        HA    1  MOL    H415   415   0.1150000    1.0080
  416        OS    1  MOL    O416   416  -0.2000000   15.9994
  417        CT    1  MOL    C417   417   0.0800000   12.0115
  418        CT    1  MOL    C418   418   0.1900000   12.0115
  419       OES    1  MOL    O419   419  -0.3300000   15.9994
  420       CO4    1  MOL    C420   420   0.6250000   12.0115
  421         O    1  MOL    O421   421  -0.4300000   15.9994
  422        CA    1  MOL    C422   422  -0.1150000   12.0115
  423        CA    1  MOL    C423   423  -0.1150000   12.0115
  424        CA    1  MOL    C424   424  -0.1150000   12.0115
  425        CA    1  MOL    C425   425  -0.1150000   12.0115
  426       CO4    1  MOL    C426   426   0.6250000   12.0115
  427         O    1  MOL    O427   427  -0.4300000   15.9994
  428       OES    1  MOL    O428   428  -0.0800000   15.9994
  429        CA    1  MOL    C429   429  -0.1150000   12.0115
  430        CA    1  MOL    C430   430  -0.1150000   12.0115
  431        HC    1  MOL    H431   431   0.0600000    1.0080
  432        HC    1  MOL    H432   432   0.0600000    1.0080
  433       HAE    1  MOL    H433   433   0.0300000    1.0080
  434       HAE    1  MOL    H434   434   0.0300000    1.0080
  435        HA    1  MOL    H435   435   0.1150000    1.0080
  436        HA    1  MOL    H436   436   0.1150000    1.0080
  437        HA    1  MOL    H437   437   0.1150000    1.0080
  438        HA    1  MOL    H438   438   0.1150000    1.0080
  439        OS    1  MOL    O439   439  -0.2000000   15.9994
  440        CT    1  MOL    C440   440   0.0800000   12.0115
  441        CT    1  MOL    C441   441   0.1900000   12.0115
  442       OES    1  MOL    O442   442  -0.3300000   15.9994
  443       CO4    1  MOL    C443   443   0.6250000   12.0115
  444         O    1  MOL    O444   444  -0.4300000   15.9994
  445        CA    1  MOL    C445   445  -0.1150000   12.0115
  446        CA    1  MOL    C446   446  -0.1150000   12.0115
  447        CA    1  MOL    C447   447  -0.1150000   12.0115
  448        CA    1  MOL    C448   448  -0.1150000   12.0115
  449         C    1  MOL    C449   449   0.6350000   12.0115
  450         O    1  MOL    O450   450  -0.4400000   15.9994
  451        OH    1  MOL    O451   451  -0.5300000   15.9994
  452        CA    1  MOL    C452   452  -0.1150000   12.0115
  453        CA    1  MOL    C453   453  -0.1150000   12.0115
  454        HC    1  MOL    H454   454   0.0600000    1.0080
  455        HC    1  MOL    H455   455   0.0600000    1.0080
  456       HAE    1  MOL    H456   456   0.0300000    1.0080
  457       HAE    1  MOL    H457   457   0.0300000    1.0080
  458        HA    1  MOL    H458   458   0.1150000    1.0080
  459        HA    1  MOL    H459   459   0.1150000    1.0080
  460        HA    1  MOL    H460   460   0.1150000    1.0080
  461        HA    1  MOL    H461   461   0.1150000    1.0080
  462        HO    1  MOL    H462   462   0.4500000    1.0080

[ bonds ]
      1      2   1      0.1410 267776.0000
      1     24   1      0.0945 462750.4000
      2      3   1      0.1529 224262.4000
      2     16   1      0.1090 284512.0000
      2     17   1      0.1090 284512.0000
      3      4   1      0.1410 267776.0000
      3     18   1      0.1090 284512.0000
      3     19   1      0.1090 284512.0000
      4      5   1      0.1327 179075.2000
      5      6   1      0.1229 476976.0000
      5      7   1      0.1470 259408.0000
      7      8   1      0.1400 392459.2000
      7     15   1      0.1400 392459.2000
      8      9   1      0.1400 392459.2000
      8     20   1      0.1080 307105.6000
      9     10   1      0.1400 392459.2000
      9     21   1      0.1080 307105.6000
     10     11   1      0.1470 259408.0000
     10     14   1      0.1400 392459.2000
     11     12   1      0.1229 476976.0000
     11     13   1      0.1327 179075.2000
     13     25   1      0.1492 205016.0000
     14     15   1      0.1400 392459.2000
     14     22   1      0.1080 307105.6000
     15     23   1      0.1080 307105.6000
     25     26   1      0.1410 267776.0000
     26     27   1      0.1529 224262.4000
     26     40   1      0.1090 284512.0000
     26     41   1      0.1090 284512.0000
     27     28   1      0.1410 267776.0000
     27     42   1      0.1090 284512.0000
     27     43   1      0.1090 284512.0000
     28     29   1      0.1327 179075.2000
     29     30   1      0.1229 476976.0000
     29     31   1      0.1470 259408.0000
     31     32   1      0.1400 392459.2000
     31     39   1      0.1400 392459.2000
     32     33   1      0.1400 392459.2000
     32     44   1      0.1080 307105.6000
     33     34   1      0.1400 392459.2000
     33     45   1      0.1080 307105.6000
     34     35   1      0.1470 259408.0000
     34     38   1      0.1400 392459.2000
     35     36   1      0.1229 476976.0000
     35     37   1      0.1327 179075.2000
     37     48   1      0.1492 205016.0000
     38     39   1      0.1400 392459.2000
     38     46   1      0.1080 307105.6000
     39     47   1      0.1080 307105.6000
     48     49   1      0.1410 267776.0000
     49     50   1      0.1529 224262.4000
     49     63   1      0.1090 284512.0000
     49     64   1      0.1090 284512.0000
     50     51   1      0.1410 267776.0000
     50     65   1      0.1090 284512.0000
     50     66   1      0.1090 284512.0000
     51     52   1      0.1327 179075.2000
     52     53   1      0.1229 476976.0000
     52     54   1      0.1470 259408.0000
     54     55   1      0.1400 392459.2000
     54     62   1      0.1400 392459.2000
     55     56   1      0.1400 392459.2000
     55     67   1      0.1080 307105.6000
     56     57   1      0.1400 392459.2000
     56     68   1      0.1080 307105.6000
     57     58   1      0.1470 259408.0000
     57     61   1      0.1400 392459.2000
     58     59   1      0.1229 476976.0000
     58     60   1      0.1327 179075.2000
     60     71   1      0.1492 205016.0000
     61     62   1      0.1400 392459.2000
     61     69   1      0.1080 307105.6000
     62     70   1      0.1080 307105.6000
     71     72   1      0.1410 267776.0000
     72     73   1      0.1529 224262.4000
     72     86   1      0.1090 284512.0000
     72     87   1      0.1090 284512.0000
     73     74   1      0.1410 267776.0000
     73     88   1      0.1090 284512.0000
     73     89   1      0.1090 284512.0000
     74     75   1      0.1327 179075.2000
     75     76   1      0.1229 476976.0000
     75     77   1      0.1470 259408.0000
     77     78   1      0.1400 392459.2000
     77     85   1      0.1400 392459.2000
     78     79   1      0.1400 392459.2000
     78     90   1      0.1080 307105.6000
     79     80   1      0.1400 392459.2000
     79     91   1      0.1080 307105.6000
     80     81   1      0.1470 259408.0000
     80     84   1      0.1400 392459.2000
     81     82   1      0.1229 476976.0000
     81     83   1      0.1327 179075.2000
     83     94   1      0.1492 205016.0000
     84     85   1      0.1400 392459.2000
     84     92   1      0.1080 307105.6000
     85     93   1      0.1080 307105.6000
     94     95   1      0.1410 267776.0000
     95     96   1      0.1529 224262.4000
     95    109   1      0.1090 284512.0000
     95    110   1      0.1090 284512.0000
     96     97   1      0.1410 267776.0000
     96    111   1      0.1090 284512.0000
     96    112   1      0.1090 284512.0000
     97     98   1      0.1327 179075.2000
     98     99   1      0.1229 476976.0000
     98    100   1      0.1470 259408.0000
    100    101   1      0.1400 392459.2000
    100    108   1      0.1400 392459.2000
    101    102   1      0.1400 392459.2000
    101    113   1      0.1080 307105.6000
    102    103   1      0.1400 392459.2000
    102    114   1      0.1080 307105.6000
    103    104   1      0.1470 259408.0000
    103    107   1      0.1400 392459.2000
    104    105   1      0.1229 476976.0000
    104    106   1      0.1327 179075.2000
    106    117   1      0.1492 205016.0000
    107    108   1      0.1400 392459.2000
    107    115   1      0.1080 307105.6000
    108    116   1      0.1080 307105.6000
    117    118   1      0.1410 267776.0000
    118    119   1      0.1529 224262.4000
    118    132   1      0.1090 284512.0000
    118    133   1      0.1090 284512.0000
    119    120   1      0.1410 267776.0000
    119    134   1      0.1090 284512.0000
    119    135   1      0.1090 284512.0000
    120    121   1      0.1327 179075.2000
    121    122   1      0.1229 476976.0000
    121    123   1      0.1470 259408.0000
    123    124   1      0.1400 392459.2000
    123    131   1      0.1400 392459.2000
    124    125   1      0.1400 392459.2000
    124    136   1      0.1080 307105.6000
    125    126   1      0.1400 392459.2000
    125    137   1      0.1080 307105.6000
    126    127   1      0.1470 259408.0000
    126    130   1      0.1400 392459.2000
    127    128   1      0.1229 476976.0000
    127    129   1      0.1327 179075.2000
    129    140   1      0.1492 205016.0000
    130    131   1      0.1400 392459.2000
    130    138   1      0.1080 307105.6000
    131    139   1      0.1080 307105.6000
    140    141   1      0.1410 267776.0000
    141    142   1      0.1529 224262.4000
    141    155   1      0.1090 284512.0000
    141    156   1      0.1090 284512.0000
    142    143   1      0.1410 267776.0000
    142    157   1      0.1090 284512.0000
    142    158   1      0.1090 284512.0000
    143    144   1      0.1327 179075.2000
    144    145   1      0.1229 476976.0000
    144    146   1      0.1470 259408.0000
    146    147   1      0.1400 392459.2000
    146    154   1      0.1400 392459.2000
    147    148   1      0.1400 392459.2000
    147    159   1      0.1080 307105.6000
    148    149   1      0.1400 392459.2000
    148    160   1      0.1080 307105.6000
    149    150   1      0.1470 259408.0000
    149    153   1      0.1400 392459.2000
    150    151   1      0.1229 476976.0000
    150    152   1      0.1327 179075.2000
    152    163   1      0.1492 205016.0000
    153    154   1      0.1400 392459.2000
    153    161   1      0.1080 307105.6000
    154    162   1      0.1080 307105.6000
    163    164   1      0.1410 267776.0000
    164    165   1      0.1529 224262.4000
    164    178   1      0.1090 284512.0000
    164    179   1      0.1090 284512.0000
    165    166   1      0.1410 267776.0000
    165    180   1      0.1090 284512.0000
    165    181   1      0.1090 284512.0000
    166    167   1      0.1327 179075.2000
    167    168   1      0.1229 476976.0000
    167    169   1      0.1470 259408.0000
    169    170   1      0.1400 392459.2000
    169    177   1      0.1400 392459.2000
    170    171   1      0.1400 392459.2000
    170    182   1      0.1080 307105.6000
    171    172   1      0.1400 392459.2000
    171    183   1      0.1080 307105.6000
    172    173   1      0.1470 259408.0000
    172    176   1      0.1400 392459.2000
    173    174   1      0.1229 476976.0000
    173    175   1      0.1327 179075.2000
    175    186   1      0.1492 205016.0000
    176    177   1      0.1400 392459.2000
    176    184   1      0.1080 307105.6000
    177    185   1      0.1080 307105.6000
    186    187   1      0.1410 267776.0000
    187    188   1      0.1529 224262.4000
    187    201   1      0.1090 284512.0000
    187    202   1      0.1090 284512.0000
    188    189   1      0.1410 267776.0000
    188    203   1      0.1090 284512.0000
    188    204   1      0.1090 284512.0000
    189    190   1      0.1327 179075.2000
    190    191   1      0.1229 476976.0000
    190    192   1      0.1470 259408.0000
    192    193   1      0.1400 392459.2000
    192    200   1      0.1400 392459.2000
    193    194   1      0.1400 392459.2000
    193    205   1      0.1080 307105.6000
    194    195   1      0.1400 392459.2000
    194    206   1      0.1080 307105.6000
    195    196   1      0.1470 259408.0000
    195    199   1      0.1400 392459.2000
    196    197   1      0.1229 476976.0000
    196    198   1      0.1327 179075.2000
    198    209   1      0.1492 205016.0000
    199    200   1      0.1400 392459.2000
    199    207   1      0.1080 307105.6000
    200    208   1      0.1080 307105.6000
    209    210   1      0.1410 267776.0000
    210    211   1      0.1529 224262.4000
    210    224   1      0.1090 284512.0000
    210    225   1      0.1090 284512.0000
    211    212   1      0.1410 267776.0000
    211    226   1      0.1090 284512.0000
    211    227   1      0.1090 284512.0000
    212    213   1      0.1327 179075.2000
    213    214   1      0.1229 476976.0000
    213    215   1      0.1470 259408.0000
    215    216   1      0.1400 392459.2000
    215    223   1      0.1400 392459.2000
    216    217   1      0.1400 392459.2000
    216    228   1      0.1080 307105.6000
    217    218   1      0.1400 392459.2000
    217    229   1      0.1080 307105.6000
    218    219   1      0.1470 259408.0000
    218    222   1      0.1400 392459.2000
    219    220   1      0.1229 476976.0000
    219    221   1      0.1327 179075.2000
    221    232   1      0.1492 205016.0000
    222    223   1      0.1400 392459.2000
    222    230   1      0.1080 307105.6000
    223    231   1      0.1080 307105.6000
    232    233   1      0.1410 267776.0000
    233    234   1      0.1529 224262.4000
    233    247   1      0.1090 284512.0000
    233    248   1      0.1090 284512.0000
    234    235   1      0.1410 267776.0000
    234    249   1      0.1090 284512.0000
    234    250   1      0.1090 284512.0000
    235    236   1      0.1327 179075.2000
    236    237   1      0.1229 476976.0000
    236    238   1      0.1470 259408.0000
    238    239   1      0.1400 392459.2000
    238    246   1      0.1400 392459.2000
    239    240   1      0.1400 392459.2000
    239    251   1      0.1080 307105.6000
    240    241   1      0.1400 392459.2000
    240    252   1      0.1080 307105.6000
    241    242   1      0.1470 259408.0000
    241    245   1      0.1400 392459.2000
    242    243   1      0.1229 476976.0000
    242    244   1      0.1327 179075.2000
    244    255   1      0.1492 205016.0000
    245    246   1      0.1400 392459.2000
    245    253   1      0.1080 307105.6000
    246    254   1      0.1080 307105.6000
    255    256   1      0.1410 267776.0000
    256    257   1      0.1529 224262.4000
    256    270   1      0.1090 284512.0000
    256    271   1      0.1090 284512.0000
    257    258   1      0.1410 267776.0000
    257    272   1      0.1090 284512.0000
    257    273   1      0.1090 284512.0000
    258    259   1      0.1327 179075.2000
    259    260   1      0.1229 476976.0000
    259    261   1      0.1470 259408.0000
    261    262   1      0.1400 392459.2000
    261    269   1      0.1400 392459.2000
    262    263   1      0.1400 392459.2000
    262    274   1      0.1080 307105.6000
    263    264   1      0.1400 392459.2000
    263    275   1      0.1080 307105.6000
    264    265   1      0.1470 259408.0000
    264    268   1      0.1400 392459.2000
    265    266   1      0.1229 476976.0000
    265    267   1      0.1327 179075.2000
    267    278   1      0.1492 205016.0000
    268    269   1      0.1400 392459.2000
    268    276   1      0.1080 307105.6000
    269    277   1      0.1080 307105.6000
    278    279   1      0.1410 267776.0000
    279    280   1      0.1529 224262.4000
    279    293   1      0.1090 284512.0000
    279    294   1      0.1090 284512.0000
    280    281   1      0.1410 267776.0000
    280    295   1      0.1090 284512.0000
    280    296   1      0.1090 284512.0000
    281    282   1      0.1327 179075.2000
    282    283   1      0.1229 476976.0000
    282    284   1      0.1470 259408.0000
    284    285   1      0.1400 392459.2000
    284    292   1      0.1400 392459.2000
    285    286   1      0.1400 392459.2000
    285    297   1      0.1080 307105.6000
    286    287   1      0.1400 392459.2000
    286    298   1      0.1080 307105.6000
    287    288   1      0.1470 259408.0000
    287    291   1      0.1400 392459.2000
    288    289   1      0.1229 476976.0000
    288    290   1      0.1327 179075.2000
    290    301   1      0.1492 205016.0000
    291    292   1      0.1400 392459.2000
    291    299   1      0.1080 307105.6000
    292    300   1      0.1080 307105.6000
    301    302   1      0.1410 267776.0000
    302    303   1      0.1529 224262.4000
    302    316   1      0.1090 284512.0000
    302    317   1      0.1090 284512.0000
    303    304   1      0.1410 267776.0000
    303    318   1      0.1090 284512.0000
    303    319   1      0.1090 284512.0000
    304    305   1      0.1327 179075.2000
    305    306   1      0.1229 476976.0000
    305    307   1      0.1470 259408.0000
    307    308   1      0.1400 392459.2000
    307    315   1      0.1400 392459.2000
    308    309   1      0.1400 392459.2000
    308    320   1      0.1080 307105.6000
    309    310   1      0.1400 392459.2000
    309    321   1      0.1080 307105.6000
    310    311   1      0.1470 259408.0000
    310    314   1      0.1400 392459.2000
    311    312   1      0.1229 476976.0000
    311    313   1      0.1327 179075.2000
    313    324   1      0.1492 205016.0000
    314    315   1      0.1400 392459.2000
    314    322   1      0.1080 307105.6000
    315    323   1      0.1080 307105.6000
    324    325   1      0.1410 267776.0000
    325    326   1      0.1529 224262.4000
    325    339   1      0.1090 284512.0000
    325    340   1      0.1090 284512.0000
    326    327   1      0.1410 267776.0000
    326    341   1      0.1090 284512.0000
    326    342   1      0.1090 284512.0000
    327    328   1      0.1327 179075.2000
    328    329   1      0.1229 476976.0000
    328    330   1      0.1470 259408.0000
    330    331   1      0.1400 392459.2000
    330    338   1      0.1400 392459.2000
    331    332   1      0.1400 392459.2000
    331    343   1      0.1080 307105.6000
    332    333   1      0.1400 392459.2000
    332    344   1      0.1080 307105.6000
    333    334   1      0.1470 259408.0000
    333    337   1      0.1400 392459.2000
    334    335   1      0.1229 476976.0000
    334    336   1      0.1327 179075.2000
    336    347   1      0.1492 205016.0000
    337    338   1      0.1400 392459.2000
    337    345   1      0.1080 307105.6000
    338    346   1      0.1080 307105.6000
    347    348   1      0.1410 267776.0000
    348    349   1      0.1529 224262.4000
    348    362   1      0.1090 284512.0000
    348    363   1      0.1090 284512.0000
    349    350   1      0.1410 267776.0000
    349    364   1      0.1090 284512.0000
    349    365   1      0.1090 284512.0000
    350    351   1      0.1327 179075.2000
    351    352   1      0.1229 476976.0000
    351    353   1      0.1470 259408.0000
    353    354   1      0.1400 392459.2000
    353    361   1      0.1400 392459.2000
    354    355   1      0.1400 392459.2000
    354    366   1      0.1080 307105.6000
    355    356   1      0.1400 392459.2000
    355    367   1      0.1080 307105.6000
    356    357   1      0.1470 259408.0000
    356    360   1      0.1400 392459.2000
    357    358   1      0.1229 476976.0000
    357    359   1      0.1327 179075.2000
    359    370   1      0.1492 205016.0000
    360    361   1      0.1400 392459.2000
    360    368   1      0.1080 307105.6000
    361    369   1      0.1080 307105.6000
    370    371   1      0.1410 267776.0000
    371    372   1      0.1529 224262.4000
    371    385   1      0.1090 284512.0000
    371    386   1      0.1090 284512.0000
    372    373   1      0.1410 267776.0000
    372    387   1      0.1090 284512.0000
    372    388   1      0.1090 284512.0000
    373    374   1      0.1327 179075.2000
    374    375   1      0.1229 476976.0000
    374    376   1      0.1470 259408.0000
    376    377   1      0.1400 392459.2000
    376    384   1      0.1400 392459.2000
    377    378   1      0.1400 392459.2000
    377    389   1      0.1080 307105.6000
    378    379   1      0.1400 392459.2000
    378    390   1      0.1080 307105.6000
    379    380   1      0.1470 259408.0000
    379    383   1      0.1400 392459.2000
    380    381   1      0.1229 476976.0000
    380    382   1      0.1327 179075.2000
    382    393   1      0.1492 205016.0000
    383    384   1      0.1400 392459.2000
    383    391   1      0.1080 307105.6000
    384    392   1      0.1080 307105.6000
    393    394   1      0.1410 267776.0000
    394    395   1      0.1529 224262.4000
    394    408   1      0.1090 284512.0000
    394    409   1      0.1090 284512.0000
    395    396   1      0.1410 267776.0000
    395    410   1      0.1090 284512.0000
    395    411   1      0.1090 284512.0000
    396    397   1      0.1327 179075.2000
    397    398   1      0.1229 476976.0000
    397    399   1      0.1470 259408.0000
    399    400   1      0.1400 392459.2000
    399    407   1      0.1400 392459.2000
    400    401   1      0.1400 392459.2000
    400    412   1      0.1080 307105.6000
    401    402   1      0.1400 392459.2000
    401    413   1      0.1080 307105.6000
    402    403   1      0.1470 259408.0000
    402    406   1      0.1400 392459.2000
    403    404   1      0.1229 476976.0000
    403    405   1      0.1327 179075.2000
    405    416   1      0.1492 205016.0000
    406    407   1      0.1400 392459.2000
    406    414   1      0.1080 307105.6000
    407    415   1      0.1080 307105.6000
    416    417   1      0.1410 267776.0000
    417    418   1      0.1529 224262.4000
    417    431   1      0.1090 284512.0000
    417    432   1      0.1090 284512.0000
    418    419   1      0.1410 267776.0000
    418    433   1      0.1090 284512.0000
    418    434   1      0.1090 284512.0000
    419    420   1      0.1327 179075.2000
    420    421   1      0.1229 476976.0000
    420    422   1      0.1470 259408.0000
    422    423   1      0.1400 392459.2000
    422    430   1      0.1400 392459.2000
    423    424   1      0.1400 392459.2000
    423    435   1      0.1080 307105.6000
    424    425   1      0.1400 392459.2000
    424    436   1      0.1080 307105.6000
    425    426   1      0.1470 259408.0000
    425    429   1      0.1400 392459.2000
    426    427   1      0.1229 476976.0000
    426    428   1      0.1327 179075.2000
    428    439   1      0.1492 205016.0000
    429    430   1      0.1400 392459.2000
    429    437   1      0.1080 307105.6000
    430    438   1      0.1080 307105.6000
    439    440   1      0.1410 267776.0000
    440    441   1      0.1529 224262.4000
    440    454   1      0.1090 284512.0000
    440    455   1      0.1090 284512.0000
    441    442   1      0.1410 267776.0000
    441    456   1      0.1090 284512.0000
    441    457   1      0.1090 284512.0000
    442    443   1      0.1327 179075.2000
    443    444   1      0.1229 476976.0000
    443    445   1      0.1470 259408.0000
    445    446   1      0.1400 392459.2000
    445    453   1      0.1400 392459.2000
    446    447   1      0.1400 392459.2000
    446    458   1      0.1080 307105.6000
    447    448   1      0.1400 392459.2000
    447    459   1      0.1080 307105.6000
    448    449   1      0.1490 334720.0000
    448    452   1      0.1400 392459.2000
    449    450   1      0.1229 476976.0000
    449    451   1      0.1364 376560.0000
    451    462   1      0.0945 462750.4000
    452    453   1      0.1400 392459.2000
    452    460   1      0.1080 307105.6000
    453    461   1      0.1080 307105.6000

[ pairs ]
; ai   aj   funct   fudge_QQ  charge_i   charge_j   c6    c12
     24      3   2   0.50000     0.4180000    0.1900000   1.995577e-06  1.069504e-11
     24     16   2   0.50000     0.4180000    0.0600000   4.903125e-07  9.576416e-13
     24     17   2   0.50000     0.4180000    0.0600000   4.903125e-07  9.576416e-13
      1      4   2   0.50000    -0.6830000   -0.3300000   1.166536e-03  9.565897e-07
      1     18   2   0.50000    -0.6830000    0.0300000   1.818870e-04  7.829094e-08
      1     19   2   0.50000    -0.6830000    0.0300000   1.818870e-04  7.829094e-08
     16      4   2   0.50000     0.0600000   -0.3300000   2.521103e-04  1.063590e-07
     16     18   2   0.50000     0.0600000    0.0300000   3.930919e-05  8.704828e-09
     16     19   2   0.50000     0.0600000    0.0300000   3.930919e-05  8.704828e-09
     17      4   2   0.50000     0.0600000   -0.3300000   2.521103e-04  1.063590e-07
     17     18   2   0.50000     0.0600000    0.0300000   3.930919e-05  8.704828e-09
     17     19   2   0.50000     0.0600000    0.0300000   3.930919e-05  8.704828e-09
      2      5   2   0.50000     0.1450000    0.6250000   1.575021e-03  3.561100e-06
     18      5   2   0.50000     0.0300000    0.6250000   2.482000e-04  1.854991e-07
     19      5   2   0.50000     0.0300000    0.6250000   2.482000e-04  1.854991e-07
      3      6   2   0.50000     0.1900000   -0.4300000   1.095425e-03  1.218041e-06
      3      7   2   0.50000     0.1900000   -0.1150000   1.091018e-03  2.092768e-06
      4      8   2   0.50000    -0.3300000   -0.1150000   1.102666e-03  1.331965e-06
      4     15   2   0.50000    -0.3300000   -0.1150000   1.102666e-03  1.331965e-06
      6      8   2   0.50000    -0.4300000   -0.1150000   1.177174e-03  1.365843e-06
      6     15   2   0.50000    -0.4300000   -0.1150000   1.177174e-03  1.365843e-06
      5      9   2   0.50000     0.6250000   -0.1150000   1.692561e-03  3.993218e-06
      5     20   2   0.50000     0.6250000    0.1150000   3.510079e-04  2.623353e-07
     15      9   2   0.50000    -0.1150000   -0.1150000   1.172438e-03  2.346713e-06
     15     20   2   0.50000    -0.1150000    0.1150000   2.431434e-04  1.541678e-07
      5     14   2   0.50000     0.6250000   -0.1150000   1.692561e-03  3.993218e-06
      5     23   2   0.50000     0.6250000    0.1150000   3.510079e-04  2.623353e-07
      8     14   2   0.50000    -0.1150000   -0.1150000   1.172438e-03  2.346713e-06
      8     23   2   0.50000    -0.1150000    0.1150000   2.431434e-04  1.541678e-07
      7     10   2   0.50000    -0.1150000   -0.1150000   1.172438e-03  2.346713e-06
      7     21   2   0.50000    -0.1150000    0.1150000   2.431434e-04  1.541678e-07
     20     10   2   0.50000     0.1150000   -0.1150000   2.431434e-04  1.541678e-07
     20     21   2   0.50000     0.1150000    0.1150000   5.042375e-05  1.012808e-08
      8     11   2   0.50000    -0.1150000    0.6250000   1.692561e-03  3.993218e-06
     21     11   2   0.50000     0.1150000    0.6250000   3.510079e-04  2.623353e-07
     21     14   2   0.50000     0.1150000   -0.1150000   2.431434e-04  1.541678e-07
      9     12   2   0.50000    -0.1150000   -0.4300000   1.177174e-03  1.365843e-06
      9     13   2   0.50000    -0.1150000   -0.0800000   1.102666e-03  1.331965e-06
     14     12   2   0.50000    -0.1150000   -0.4300000   1.177174e-03  1.365843e-06
     14     13   2   0.50000    -0.1150000   -0.0800000   1.102666e-03  1.331965e-06
      9     22   2   0.50000    -0.1150000    0.1150000   2.431434e-04  1.541678e-07
     11     15   2   0.50000     0.6250000   -0.1150000   1.692561e-03  3.993218e-06
     11     22   2   0.50000     0.6250000    0.1150000   3.510079e-04  2.623353e-07
     10     25   2   0.50000    -0.1150000   -0.2000000   9.038862e-04  9.862632e-07
     12     25   2   0.50000    -0.4300000   -0.2000000   9.075373e-04  5.740287e-07
     11     26   2   0.50000     0.6250000    0.0800000   1.575021e-03  3.561100e-06
     10     23   2   0.50000    -0.1150000    0.1150000   2.431434e-04  1.541678e-07
     22      7   2   0.50000     0.1150000   -0.1150000   2.431434e-04  1.541678e-07
     22     23   2   0.50000     0.1150000    0.1150000   5.042375e-05  1.012808e-08
     13     27   2   0.50000    -0.0800000    0.1900000   1.026091e-03  1.187829e-06
     13     40   2   0.50000    -0.0800000    0.0600000   2.521103e-04  1.063590e-07
     13     41   2   0.50000    -0.0800000    0.0600000   2.521103e-04  1.063590e-07
     25     28   2   0.50000    -0.2000000   -0.3300000   8.500959e-04  5.597907e-07
     25     42   2   0.50000    -0.2000000    0.0300000   1.325475e-04  4.581540e-08
     25     43   2   0.50000    -0.2000000    0.0300000   1.325475e-04  4.581540e-08
     40     28   2   0.50000     0.0600000   -0.3300000   2.521103e-04  1.063590e-07
     40     42   2   0.50000     0.0600000    0.0300000   3.930919e-05  8.704828e-09
     40     43   2   0.50000     0.0600000    0.0300000   3.930919e-05  8.704828e-09
     41     28   2   0.50000     0.0600000   -0.3300000   2.521103e-04  1.063590e-07
     41     42   2   0.50000     0.0600000    0.0300000   3.930919e-05  8.704828e-09
     41     43   2   0.50000     0.0600000    0.0300000   3.930919e-05  8.704828e-09
     26     29   2   0.50000     0.0800000    0.6250000   1.575021e-03  3.561100e-06
     42     29   2   0.50000     0.0300000    0.6250000   2.482000e-04  1.854991e-07
     43     29   2   0.50000     0.0300000    0.6250000   2.482000e-04  1.854991e-07
     27     30   2   0.50000     0.1900000   -0.4300000   1.095425e-03  1.218041e-06
     27     31   2   0.50000     0.1900000   -0.1150000   1.091018e-03  2.092768e-06
     28     32   2   0.50000    -0.3300000   -0.1150000   1.102666e-03  1.331965e-06
     28     39   2   0.50000    -0.3300000   -0.1150000   1.102666e-03  1.331965e-06
     30     32   2   0.50000    -0.4300000   -0.1150000   1.177174e-03  1.365843e-06
     30     39   2   0.50000    -0.4300000   -0.1150000   1.177174e-03  1.365843e-06
     29     33   2   0.50000     0.6250000   -0.1150000   1.692561e-03  3.993218e-06
     29     44   2   0.50000     0.6250000    0.1150000   3.510079e-04  2.623353e-07
     39     33   2   0.50000    -0.1150000   -0.1150000   1.172438e-03  2.346713e-06
     39     44   2   0.50000    -0.1150000    0.1150000   2.431434e-04  1.541678e-07
     29     38   2   0.50000     0.6250000   -0.1150000   1.692561e-03  3.993218e-06
     29     47   2   0.50000     0.6250000    0.1150000   3.510079e-04  2.623353e-07
     32     38   2   0.50000    -0.1150000   -0.1150000   1.172438e-03  2.346713e-06
     32     47   2   0.50000    -0.1150000    0.1150000   2.431434e-04  1.541678e-07
     31     34   2   0.50000    -0.1150000   -0.1150000   1.172438e-03  2.346713e-06
     31     45   2   0.50000    -0.1150000    0.1150000   2.431434e-04  1.541678e-07
     44     34   2   0.50000     0.1150000   -0.1150000   2.431434e-04  1.541678e-07
     44     45   2   0.50000     0.1150000    0.1150000   5.042375e-05  1.012808e-08
     32     35   2   0.50000    -0.1150000    0.6250000   1.692561e-03  3.993218e-06
     45     35   2   0.50000     0.1150000    0.6250000   3.510079e-04  2.623353e-07
     45     38   2   0.50000     0.1150000   -0.1150000   2.431434e-04  1.541678e-07
     33     36   2   0.50000    -0.1150000   -0.4300000   1.177174e-03  1.365843e-06
     33     37   2   0.50000    -0.1150000   -0.0800000   1.102666e-03  1.331965e-06
     38     36   2   0.50000    -0.1150000   -0.4300000   1.177174e-03  1.365843e-06
     38     37   2   0.50000    -0.1150000   -0.0800000   1.102666e-03  1.331965e-06
     33     46   2   0.50000    -0.1150000    0.1150000   2.431434e-04  1.541678e-07
     35     39   2   0.50000     0.6250000   -0.1150000   1.692561e-03  3.993218e-06
     35     46   2   0.50000     0.6250000    0.1150000   3.510079e-04  2.623353e-07
     34     48   2   0.50000    -0.1150000   -0.2000000   9.038862e-04  9.862632e-07
     36     48   2   0.50000    -0.4300000   -0.2000000   9.075373e-04  5.740287e-07
     35     49   2   0.50000     0.6250000    0.0800000   1.575021e-03  3.561100e-06
     34     47   2   0.50000    -0.1150000    0.1150000   2.431434e-04  1.541678e-07
     46     31   2   0.50000     0.1150000   -0.1150000   2.431434e-04  1.541678e-07
     46     47   2   0.50000     0.1150000    0.1150000   5.042375e-05  1.012808e-08
     37     50   2   0.50000    -0.0800000    0.1900000   1.026091e-03  1.187829e-06
     37     63   2   0.50000    -0.0800000    0.0600000   2.521103e-04  1.063590e-07
     37     64   2   0.50000    -0.0800000    0.0600000   2.521103e-04  1.063590e-07
     48     51   2   0.50000    -0.2000000   -0.3300000   8.500959e-04  5.597907e-07
     48     65   2   0.50000    -0.2000000    0.0300000   1.325475e-04  4.581540e-08
     48     66   2   0.50000    -0.2000000    0.0300000   1.325475e-04  4.581540e-08
     63     51   2   0.50000     0.0600000   -0.3300000   2.521103e-04  1.063590e-07
     63     65   2   0.50000     0.0600000    0.0300000   3.930919e-05  8.704828e-09
     63     66   2   0.50000     0.0600000    0.0300000   3.930919e-05  8.704828e-09
     64     51   2   0.50000     0.0600000   -0.3300000   2.521103e-04  1.063590e-07
     64     65   2   0.50000     0.0600000    0.0300000   3.930919e-05  8.704828e-09
     64     66   2   0.50000     0.0600000    0.0300000   3.930919e-05  8.704828e-09
     49     52   2   0.50000     0.0800000    0.6250000   1.575021e-03  3.561100e-06
     65     52   2   0.50000     0.0300000    0.6250000   2.482000e-04  1.854991e-07
     66     52   2   0.50000     0.0300000    0.6250000   2.482000e-04  1.854991e-07
     50     53   2   0.50000     0.1900000   -0.4300000   1.095425e-03  1.218041e-06
     50     54   2   0.50000     0.1900000   -0.1150000   1.091018e-03  2.092768e-06
     51     55   2   0.50000    -0.3300000   -0.1150000   1.102666e-03  1.331965e-06
     51     62   2   0.50000    -0.3300000   -0.1150000   1.102666e-03  1.331965e-06
     53     55   2   0.50000    -0.4300000   -0.1150000   1.177174e-03  1.365843e-06
     53     62   2   0.50000    -0.4300000   -0.1150000   1.177174e-03  1.365843e-06
     52     56   2   0.50000     0.6250000   -0.1150000   1.692561e-03  3.993218e-06
     52     67   2   0.50000     0.6250000    0.1150000   3.510079e-04  2.623353e-07
     62     56   2   0.50000    -0.1150000   -0.1150000   1.172438e-03  2.346713e-06
     62     67   2   0.50000    -0.1150000    0.1150000   2.431434e-04  1.541678e-07
     52     61   2   0.50000     0.6250000   -0.1150000   1.692561e-03  3.993218e-06
     52     70   2   0.50000     0.6250000    0.1150000   3.510079e-04  2.623353e-07
     55     61   2   0.50000    -0.1150000   -0.1150000   1.172438e-03  2.346713e-06
     55     70   2   0.50000    -0.1150000    0.1150000   2.431434e-04  1.541678e-07
     54     57   2   0.50000    -0.1150000   -0.1150000   1.172438e-03  2.346713e-06
     54     68   2   0.50000    -0.1150000    0.1150000   2.431434e-04  1.541678e-07
     67     57   2   0.50000     0.1150000   -0.1150000   2.431434e-04  1.541678e-07
     67     68   2   0.50000     0.1150000    0.1150000   5.042375e-05  1.012808e-08
     55     58   2   0.50000    -0.1150000    0.6250000   1.692561e-03  3.993218e-06
     68     58   2   0.50000     0.1150000    0.6250000   3.510079e-04  2.623353e-07
     68     61   2   0.50000     0.1150000   -0.1150000   2.431434e-04  1.541678e-07
     56     59   2   0.50000    -0.1150000   -0.4300000   1.177174e-03  1.365843e-06
     56     60   2   0.50000    -0.1150000   -0.0800000   1.102666e-03  1.331965e-06
     61     59   2   0.50000    -0.1150000   -0.4300000   1.177174e-03  1.365843e-06
     61     60   2   0.50000    -0.1150000   -0.0800000   1.102666e-03  1.331965e-06
     56     69   2   0.50000    -0.1150000    0.1150000   2.431434e-04  1.541678e-07
     58     62   2   0.50000     0.6250000   -0.1150000   1.692561e-03  3.993218e-06
     58     69   2   0.50000     0.6250000    0.1150000   3.510079e-04  2.623353e-07
     57     71   2   0.50000    -0.1150000   -0.2000000   9.038862e-04  9.862632e-07
     59     71   2   0.50000    -0.4300000   -0.2000000   9.075373e-04  5.740287e-07
     58     72   2   0.50000     0.6250000    0.0800000   1.575021e-03  3.561100e-06
     57     70   2   0.50000    -0.1150000    0.1150000   2.431434e-04  1.541678e-07
     69     54   2   0.50000     0.1150000   -0.1150000   2.431434e-04  1.541678e-07
     69     70   2   0.50000     0.1150000    0.1150000   5.042375e-05  1.012808e-08
     60     73   2   0.50000    -0.0800000    0.1900000   1.026091e-03  1.187829e-06
     60     86   2   0.50000    -0.0800000    0.0600000   2.521103e-04  1.063590e-07
     60     87   2   0.50000    -0.0800000    0.0600000   2.521103e-04  1.063590e-07
     71     74   2   0.50000    -0.2000000   -0.3300000   8.500959e-04  5.597907e-07
     71     88   2   0.50000    -0.2000000    0.0300000   1.325475e-04  4.581540e-08
     71     89   2   0.50000    -0.2000000    0.0300000   1.325475e-04  4.581540e-08
     86     74   2   0.50000     0.0600000   -0.3300000   2.521103e-04  1.063590e-07
     86     88   2   0.50000     0.0600000    0.0300000   3.930919e-05  8.704828e-09
     86     89   2   0.50000     0.0600000    0.0300000   3.930919e-05  8.704828e-09
     87     74   2   0.50000     0.0600000   -0.3300000   2.521103e-04  1.063590e-07
     87     88   2   0.50000     0.0600000    0.0300000   3.930919e-05  8.704828e-09
     87     89   2   0.50000     0.0600000    0.0300000   3.930919e-05  8.704828e-09
     72     75   2   0.50000     0.0800000    0.6250000   1.575021e-03  3.561100e-06
     88     75   2   0.50000     0.0300000    0.6250000   2.482000e-04  1.854991e-07
     89     75   2   0.50000     0.0300000    0.6250000   2.482000e-04  1.854991e-07
     73     76   2   0.50000     0.1900000   -0.4300000   1.095425e-03  1.218041e-06
     73     77   2   0.50000     0.1900000   -0.1150000   1.091018e-03  2.092768e-06
     74     78   2   0.50000    -0.3300000   -0.1150000   1.102666e-03  1.331965e-06
     74     85   2   0.50000    -0.3300000   -0.1150000   1.102666e-03  1.331965e-06
     76     78   2   0.50000    -0.4300000   -0.1150000   1.177174e-03  1.365843e-06
     76     85   2   0.50000    -0.4300000   -0.1150000   1.177174e-03  1.365843e-06
     75     79   2   0.50000     0.6250000   -0.1150000   1.692561e-03  3.993218e-06
     75     90   2   0.50000     0.6250000    0.1150000   3.510079e-04  2.623353e-07
     85     79   2   0.50000    -0.1150000   -0.1150000   1.172438e-03  2.346713e-06
     85     90   2   0.50000    -0.1150000    0.1150000   2.431434e-04  1.541678e-07
     75     84   2   0.50000     0.6250000   -0.1150000   1.692561e-03  3.993218e-06
     75     93   2   0.50000     0.6250000    0.1150000   3.510079e-04  2.623353e-07
     78     84   2   0.50000    -0.1150000   -0.1150000   1.172438e-03  2.346713e-06
     78     93   2   0.50000    -0.1150000    0.1150000   2.431434e-04  1.541678e-07
     77     80   2   0.50000    -0.1150000   -0.1150000   1.172438e-03  2.346713e-06
     77     91   2   0.50000    -0.1150000    0.1150000   2.431434e-04  1.541678e-07
     90     80   2   0.50000     0.1150000   -0.1150000   2.431434e-04  1.541678e-07
     90     91   2   0.50000     0.1150000    0.1150000   5.042375e-05  1.012808e-08
     78     81   2   0.50000    -0.1150000    0.6250000   1.692561e-03  3.993218e-06
     91     81   2   0.50000     0.1150000    0.6250000   3.510079e-04  2.623353e-07
     91     84   2   0.50000     0.1150000   -0.1150000   2.431434e-04  1.541678e-07
     79     82   2   0.50000    -0.1150000   -0.4300000   1.177174e-03  1.365843e-06
     79     83   2   0.50000    -0.1150000   -0.0800000   1.102666e-03  1.331965e-06
     84     82   2   0.50000    -0.1150000   -0.4300000   1.177174e-03  1.365843e-06
     84     83   2   0.50000    -0.1150000   -0.0800000   1.102666e-03  1.331965e-06
     79     92   2   0.50000    -0.1150000    0.1150000   2.431434e-04  1.541678e-07
     81     85   2   0.50000     0.6250000   -0.1150000   1.692561e-03  3.993218e-06
     81     92   2   0.50000     0.6250000    0.1150000   3.510079e-04  2.623353e-07
     80     94   2   0.50000    -0.1150000   -0.2000000   9.038862e-04  9.862632e-07
     82     94   2   0.50000    -0.4300000   -0.2000000   9.075373e-04  5.740287e-07
     81     95   2   0.50000     0.6250000    0.0800000   1.575021e-03  3.561100e-06
     80     93   2   0.50000    -0.1150000    0.1150000   2.431434e-04  1.541678e-07
     92     77   2   0.50000     0.1150000   -0.1150000   2.431434e-04  1.541678e-07
     92     93   2   0.50000     0.1150000    0.1150000   5.042375e-05  1.012808e-08
     83     96   2   0.50000    -0.0800000    0.1900000   1.026091e-03  1.187829e-06
     83    109   2   0.50000    -0.0800000    0.0600000   2.521103e-04  1.063590e-07
     83    110   2   0.50000    -0.0800000    0.0600000   2.521103e-04  1.063590e-07
     94     97   2   0.50000    -0.2000000   -0.3300000   8.500959e-04  5.597907e-07
     94    111   2   0.50000    -0.2000000    0.0300000   1.325475e-04  4.581540e-08
     94    112   2   0.50000    -0.2000000    0.0300000   1.325475e-04  4.581540e-08
    109     97   2   0.50000     0.0600000   -0.3300000   2.521103e-04  1.063590e-07
    109    111   2   0.50000     0.0600000    0.0300000   3.930919e-05  8.704828e-09
    109    112   2   0.50000     0.0600000    0.0300000   3.930919e-05  8.704828e-09
    110     97   2   0.50000     0.0600000   -0.3300000   2.521103e-04  1.063590e-07
    110    111   2   0.50000     0.0600000    0.0300000   3.930919e-05  8.704828e-09
    110    112   2   0.50000     0.0600000    0.0300000   3.930919e-05  8.704828e-09
     95     98   2   0.50000     0.0800000    0.6250000   1.575021e-03  3.561100e-06
    111     98   2   0.50000     0.0300000    0.6250000   2.482000e-04  1.854991e-07
    112     98   2   0.50000     0.0300000    0.6250000   2.482000e-04  1.854991e-07
     96     99   2   0.50000     0.1900000   -0.4300000   1.095425e-03  1.218041e-06
     96    100   2   0.50000     0.1900000   -0.1150000   1.091018e-03  2.092768e-06
     97    101   2   0.50000    -0.3300000   -0.1150000   1.102666e-03  1.331965e-06
     97    108   2   0.50000    -0.3300000   -0.1150000   1.102666e-03  1.331965e-06
     99    101   2   0.50000    -0.4300000   -0.1150000   1.177174e-03  1.365843e-06
     99    108   2   0.50000    -0.4300000   -0.1150000   1.177174e-03  1.365843e-06
     98    102   2   0.50000     0.6250000   -0.1150000   1.692561e-03  3.993218e-06
     98    113   2   0.50000     0.6250000    0.1150000   3.510079e-04  2.623353e-07
    108    102   2   0.50000    -0.1150000   -0.1150000   1.172438e-03  2.346713e-06
    108    113   2   0.50000    -0.1150000    0.1150000   2.431434e-04  1.541678e-07
     98    107   2   0.50000     0.6250000   -0.1150000   1.692561e-03  3.993218e-06
     98    116   2   0.50000     0.6250000    0.1150000   3.510079e-04  2.623353e-07
    101    107   2   0.50000    -0.1150000   -0.1150000   1.172438e-03  2.346713e-06
    101    116   2   0.50000    -0.1150000    0.1150000   2.431434e-04  1.541678e-07
    100    103   2   0.50000    -0.1150000   -0.1150000   1.172438e-03  2.346713e-06
    100    114   2   0.50000    -0.1150000    0.1150000   2.431434e-04  1.541678e-07
    113    103   2   0.50000     0.1150000   -0.1150000   2.431434e-04  1.541678e-07
    113    114   2   0.50000     0.1150000    0.1150000   5.042375e-05  1.012808e-08
    101    104   2   0.50000    -0.1150000    0.6250000   1.692561e-03  3.993218e-06
    114    104   2   0.50000     0.1150000    0.6250000   3.510079e-04  2.623353e-07
    114    107   2   0.50000     0.1150000   -0.1150000   2.431434e-04  1.541678e-07
    102    105   2   0.50000    -0.1150000   -0.4300000   1.177174e-03  1.365843e-06
    102    106   2   0.50000    -0.1150000   -0.0800000   1.102666e-03  1.331965e-06
    107    105   2   0.50000    -0.1150000   -0.4300000   1.177174e-03  1.365843e-06
    107    106   2   0.50000    -0.1150000   -0.0800000   1.102666e-03  1.331965e-06
    102    115   2   0.50000    -0.1150000    0.1150000   2.431434e-04  1.541678e-07
    104    108   2   0.50000     0.6250000   -0.1150000   1.692561e-03  3.993218e-06
    104    115   2   0.50000     0.6250000    0.1150000   3.510079e-04  2.623353e-07
    103    117   2   0.50000    -0.1150000   -0.2000000   9.038862e-04  9.862632e-07
    105    117   2   0.50000    -0.4300000   -0.2000000   9.075373e-04  5.740287e-07
    104    118   2   0.50000     0.6250000    0.0800000   1.575021e-03  3.561100e-06
    103    116   2   0.50000    -0.1150000    0.1150000   2.431434e-04  1.541678e-07
    115    100   2   0.50000     0.1150000   -0.1150000   2.431434e-04  1.541678e-07
    115    116   2   0.50000     0.1150000    0.1150000   5.042375e-05  1.012808e-08
    106    119   2   0.50000    -0.0800000    0.1900000   1.026091e-03  1.187829e-06
    106    132   2   0.50000    -0.0800000    0.0600000   2.521103e-04  1.063590e-07
    106    133   2   0.50000    -0.0800000    0.0600000   2.521103e-04  1.063590e-07
    117    120   2   0.50000    -0.2000000   -0.3300000   8.500959e-04  5.597907e-07
    117    134   2   0.50000    -0.2000000    0.0300000   1.325475e-04  4.581540e-08
    117    135   2   0.50000    -0.2000000    0.0300000   1.325475e-04  4.581540e-08
    132    120   2   0.50000     0.0600000   -0.3300000   2.521103e-04  1.063590e-07
    132    134   2   0.50000     0.0600000    0.0300000   3.930919e-05  8.704828e-09
    132    135   2   0.50000     0.0600000    0.0300000   3.930919e-05  8.704828e-09
    133    120   2   0.50000     0.0600000   -0.3300000   2.521103e-04  1.063590e-07
    133    134   2   0.50000     0.0600000    0.0300000   3.930919e-05  8.704828e-09
    133    135   2   0.50000     0.0600000    0.0300000   3.930919e-05  8.704828e-09
    118    121   2   0.50000     0.0800000    0.6250000   1.575021e-03  3.561100e-06
    134    121   2   0.50000     0.0300000    0.6250000   2.482000e-04  1.854991e-07
    135    121   2   0.50000     0.0300000    0.6250000   2.482000e-04  1.854991e-07
    119    122   2   0.50000     0.1900000   -0.4300000   1.095425e-03  1.218041e-06
    119    123   2   0.50000     0.1900000   -0.1150000   1.091018e-03  2.092768e-06
    120    124   2   0.50000    -0.3300000   -0.1150000   1.102666e-03  1.331965e-06
    120    131   2   0.50000    -0.3300000   -0.1150000   1.102666e-03  1.331965e-06
    122    124   2   0.50000    -0.4300000   -0.1150000   1.177174e-03  1.365843e-06
    122    131   2   0.50000    -0.4300000   -0.1150000   1.177174e-03  1.365843e-06
    121    125   2   0.50000     0.6250000   -0.1150000   1.692561e-03  3.993218e-06
    121    136   2   0.50000     0.6250000    0.1150000   3.510079e-04  2.623353e-07
    131    125   2   0.50000    -0.1150000   -0.1150000   1.172438e-03  2.346713e-06
    131    136   2   0.50000    -0.1150000    0.1150000   2.431434e-04  1.541678e-07
    121    130   2   0.50000     0.6250000   -0.1150000   1.692561e-03  3.993218e-06
    121    139   2   0.50000     0.6250000    0.1150000   3.510079e-04  2.623353e-07
    124    130   2   0.50000    -0.1150000   -0.1150000   1.172438e-03  2.346713e-06
    124    139   2   0.50000    -0.1150000    0.1150000   2.431434e-04  1.541678e-07
    123    126   2   0.50000    -0.1150000   -0.1150000   1.172438e-03  2.346713e-06
    123    137   2   0.50000    -0.1150000    0.1150000   2.431434e-04  1.541678e-07
    136    126   2   0.50000     0.1150000   -0.1150000   2.431434e-04  1.541678e-07
    136    137   2   0.50000     0.1150000    0.1150000   5.042375e-05  1.012808e-08
    124    127   2   0.50000    -0.1150000    0.6250000   1.692561e-03  3.993218e-06
    137    127   2   0.50000     0.1150000    0.6250000   3.510079e-04  2.623353e-07
    137    130   2   0.50000     0.1150000   -0.1150000   2.431434e-04  1.541678e-07
    125    128   2   0.50000    -0.1150000   -0.4300000   1.177174e-03  1.365843e-06
    125    129   2   0.50000    -0.1150000   -0.0800000   1.102666e-03  1.331965e-06
    130    128   2   0.50000    -0.1150000   -0.4300000   1.177174e-03  1.365843e-06
    130    129   2   0.50000    -0.1150000   -0.0800000   1.102666e-03  1.331965e-06
    125    138   2   0.50000    -0.1150000    0.1150000   2.431434e-04  1.541678e-07
    127    131   2   0.50000     0.6250000   -0.1150000   1.692561e-03  3.993218e-06
    127    138   2   0.50000     0.6250000    0.1150000   3.510079e-04  2.623353e-07
    126    140   2   0.50000    -0.1150000   -0.2000000   9.038862e-04  9.862632e-07
    128    140   2   0.50000    -0.4300000   -0.2000000   9.075373e-04  5.740287e-07
    127    141   2   0.50000     0.6250000    0.0800000   1.575021e-03  3.561100e-06
    126    139   2   0.50000    -0.1150000    0.1150000   2.431434e-04  1.541678e-07
    138    123   2   0.50000     0.1150000   -0.1150000   2.431434e-04  1.541678e-07
    138    139   2   0.50000     0.1150000    0.1150000   5.042375e-05  1.012808e-08
    129    142   2   0.50000    -0.0800000    0.1900000   1.026091e-03  1.187829e-06
    129    155   2   0.50000    -0.0800000    0.0600000   2.521103e-04  1.063590e-07
    129    156   2   0.50000    -0.0800000    0.0600000   2.521103e-04  1.063590e-07
    140    143   2   0.50000    -0.2000000   -0.3300000   8.500959e-04  5.597907e-07
    140    157   2   0.50000    -0.2000000    0.0300000   1.325475e-04  4.581540e-08
    140    158   2   0.50000    -0.2000000    0.0300000   1.325475e-04  4.581540e-08
    155    143   2   0.50000     0.0600000   -0.3300000   2.521103e-04  1.063590e-07
    155    157   2   0.50000     0.0600000    0.0300000   3.930919e-05  8.704828e-09
    155    158   2   0.50000     0.0600000    0.0300000   3.930919e-05  8.704828e-09
    156    143   2   0.50000     0.0600000   -0.3300000   2.521103e-04  1.063590e-07
    156    157   2   0.50000     0.0600000    0.0300000   3.930919e-05  8.704828e-09
    156    158   2   0.50000     0.0600000    0.0300000   3.930919e-05  8.704828e-09
    141    144   2   0.50000     0.0800000    0.6250000   1.575021e-03  3.561100e-06
    157    144   2   0.50000     0.0300000    0.6250000   2.482000e-04  1.854991e-07
    158    144   2   0.50000     0.0300000    0.6250000   2.482000e-04  1.854991e-07
    142    145   2   0.50000     0.1900000   -0.4300000   1.095425e-03  1.218041e-06
    142    146   2   0.50000     0.1900000   -0.1150000   1.091018e-03  2.092768e-06
    143    147   2   0.50000    -0.3300000   -0.1150000   1.102666e-03  1.331965e-06
    143    154   2   0.50000    -0.3300000   -0.1150000   1.102666e-03  1.331965e-06
    145    147   2   0.50000    -0.4300000   -0.1150000   1.177174e-03  1.365843e-06
    145    154   2   0.50000    -0.4300000   -0.1150000   1.177174e-03  1.365843e-06
    144    148   2   0.50000     0.6250000   -0.1150000   1.692561e-03  3.993218e-06
    144    159   2   0.50000     0.6250000    0.1150000   3.510079e-04  2.623353e-07
    154    148   2   0.50000    -0.1150000   -0.1150000   1.172438e-03  2.346713e-06
    154    159   2   0.50000    -0.1150000    0.1150000   2.431434e-04  1.541678e-07
    144    153   2   0.50000     0.6250000   -0.1150000   1.692561e-03  3.993218e-06
    144    162   2   0.50000     0.6250000    0.1150000   3.510079e-04  2.623353e-07
    147    153   2   0.50000    -0.1150000   -0.1150000   1.172438e-03  2.346713e-06
    147    162   2   0.50000    -0.1150000    0.1150000   2.431434e-04  1.541678e-07
    146    149   2   0.50000    -0.1150000   -0.1150000   1.172438e-03  2.346713e-06
    146    160   2   0.50000    -0.1150000    0.1150000   2.431434e-04  1.541678e-07
    159    149   2   0.50000     0.1150000   -0.1150000   2.431434e-04  1.541678e-07
    159    160   2   0.50000     0.1150000    0.1150000   5.042375e-05  1.012808e-08
    147    150   2   0.50000    -0.1150000    0.6250000   1.692561e-03  3.993218e-06
    160    150   2   0.50000     0.1150000    0.6250000   3.510079e-04  2.623353e-07
    160    153   2   0.50000     0.1150000   -0.1150000   2.431434e-04  1.541678e-07
    148    151   2   0.50000    -0.1150000   -0.4300000   1.177174e-03  1.365843e-06
    148    152   2   0.50000    -0.1150000   -0.0800000   1.102666e-03  1.331965e-06
    153    151   2   0.50000    -0.1150000   -0.4300000   1.177174e-03  1.365843e-06
    153    152   2   0.50000    -0.1150000   -0.0800000   1.102666e-03  1.331965e-06
    148    161   2   0.50000    -0.1150000    0.1150000   2.431434e-04  1.541678e-07
    150    154   2   0.50000     0.6250000   -0.1150000   1.692561e-03  3.993218e-06
    150    161   2   0.50000     0.6250000    0.1150000   3.510079e-04  2.623353e-07
    149    163   2   0.50000    -0.1150000   -0.2000000   9.038862e-04  9.862632e-07
    151    163   2   0.50000    -0.4300000   -0.2000000   9.075373e-04  5.740287e-07
    150    164   2   0.50000     0.6250000    0.0800000   1.575021e-03  3.561100e-06
    149    162   2   0.50000    -0.1150000    0.1150000   2.431434e-04  1.541678e-07
    161    146   2   0.50000     0.1150000   -0.1150000   2.431434e-04  1.541678e-07
    161    162   2   0.50000     0.1150000    0.1150000   5.042375e-05  1.012808e-08
    152    165   2   0.50000    -0.0800000    0.1900000   1.026091e-03  1.187829e-06
    152    178   2   0.50000    -0.0800000    0.0600000   2.521103e-04  1.063590e-07
    152    179   2   0.50000    -0.0800000    0.0600000   2.521103e-04  1.063590e-07
    163    166   2   0.50000    -0.2000000   -0.3300000   8.500959e-04  5.597907e-07
    163    180   2   0.50000    -0.2000000    0.0300000   1.325475e-04  4.581540e-08
    163    181   2   0.50000    -0.2000000    0.0300000   1.325475e-04  4.581540e-08
    178    166   2   0.50000     0.0600000   -0.3300000   2.521103e-04  1.063590e-07
    178    180   2   0.50000     0.0600000    0.0300000   3.930919e-05  8.704828e-09
    178    181   2   0.50000     0.0600000    0.0300000   3.930919e-05  8.704828e-09
    179    166   2   0.50000     0.0600000   -0.3300000   2.521103e-04  1.063590e-07
    179    180   2   0.50000     0.0600000    0.0300000   3.930919e-05  8.704828e-09
    179    181   2   0.50000     0.0600000    0.0300000   3.930919e-05  8.704828e-09
    164    167   2   0.50000     0.0800000    0.6250000   1.575021e-03  3.561100e-06
    180    167   2   0.50000     0.0300000    0.6250000   2.482000e-04  1.854991e-07
    181    167   2   0.50000     0.0300000    0.6250000   2.482000e-04  1.854991e-07
    165    168   2   0.50000     0.1900000   -0.4300000   1.095425e-03  1.218041e-06
    165    169   2   0.50000     0.1900000   -0.1150000   1.091018e-03  2.092768e-06
    166    170   2   0.50000    -0.3300000   -0.1150000   1.102666e-03  1.331965e-06
    166    177   2   0.50000    -0.3300000   -0.1150000   1.102666e-03  1.331965e-06
    168    170   2   0.50000    -0.4300000   -0.1150000   1.177174e-03  1.365843e-06
    168    177   2   0.50000    -0.4300000   -0.1150000   1.177174e-03  1.365843e-06
    167    171   2   0.50000     0.6250000   -0.1150000   1.692561e-03  3.993218e-06
    167    182   2   0.50000     0.6250000    0.1150000   3.510079e-04  2.623353e-07
    177    171   2   0.50000    -0.1150000   -0.1150000   1.172438e-03  2.346713e-06
    177    182   2   0.50000    -0.1150000    0.1150000   2.431434e-04  1.541678e-07
    167    176   2   0.50000     0.6250000   -0.1150000   1.692561e-03  3.993218e-06
    167    185   2   0.50000     0.6250000    0.1150000   3.510079e-04  2.623353e-07
    170    176   2   0.50000    -0.1150000   -0.1150000   1.172438e-03  2.346713e-06
    170    185   2   0.50000    -0.1150000    0.1150000   2.431434e-04  1.541678e-07
    169    172   2   0.50000    -0.1150000   -0.1150000   1.172438e-03  2.346713e-06
    169    183   2   0.50000    -0.1150000    0.1150000   2.431434e-04  1.541678e-07
    182    172   2   0.50000     0.1150000   -0.1150000   2.431434e-04  1.541678e-07
    182    183   2   0.50000     0.1150000    0.1150000   5.042375e-05  1.012808e-08
    170    173   2   0.50000    -0.1150000    0.6250000   1.692561e-03  3.993218e-06
    183    173   2   0.50000     0.1150000    0.6250000   3.510079e-04  2.623353e-07
    183    176   2   0.50000     0.1150000   -0.1150000   2.431434e-04  1.541678e-07
    171    174   2   0.50000    -0.1150000   -0.4300000   1.177174e-03  1.365843e-06
    171    175   2   0.50000    -0.1150000   -0.0800000   1.102666e-03  1.331965e-06
    176    174   2   0.50000    -0.1150000   -0.4300000   1.177174e-03  1.365843e-06
    176    175   2   0.50000    -0.1150000   -0.0800000   1.102666e-03  1.331965e-06
    171    184   2   0.50000    -0.1150000    0.1150000   2.431434e-04  1.541678e-07
    173    177   2   0.50000     0.6250000   -0.1150000   1.692561e-03  3.993218e-06
    173    184   2   0.50000     0.6250000    0.1150000   3.510079e-04  2.623353e-07
    172    186   2   0.50000    -0.1150000   -0.2000000   9.038862e-04  9.862632e-07
    174    186   2   0.50000    -0.4300000   -0.2000000   9.075373e-04  5.740287e-07
    173    187   2   0.50000     0.6250000    0.0800000   1.575021e-03  3.561100e-06
    172    185   2   0.50000    -0.1150000    0.1150000   2.431434e-04  1.541678e-07
    184    169   2   0.50000     0.1150000   -0.1150000   2.431434e-04  1.541678e-07
    184    185   2   0.50000     0.1150000    0.1150000   5.042375e-05  1.012808e-08
    175    188   2   0.50000    -0.0800000    0.1900000   1.026091e-03  1.187829e-06
    175    201   2   0.50000    -0.0800000    0.0600000   2.521103e-04  1.063590e-07
    175    202   2   0.50000    -0.0800000    0.0600000   2.521103e-04  1.063590e-07
    186    189   2   0.50000    -0.2000000   -0.3300000   8.500959e-04  5.597907e-07
    186    203   2   0.50000    -0.2000000    0.0300000   1.325475e-04  4.581540e-08
    186    204   2   0.50000    -0.2000000    0.0300000   1.325475e-04  4.581540e-08
    201    189   2   0.50000     0.0600000   -0.3300000   2.521103e-04  1.063590e-07
    201    203   2   0.50000     0.0600000    0.0300000   3.930919e-05  8.704828e-09
    201    204   2   0.50000     0.0600000    0.0300000   3.930919e-05  8.704828e-09
    202    189   2   0.50000     0.0600000   -0.3300000   2.521103e-04  1.063590e-07
    202    203   2   0.50000     0.0600000    0.0300000   3.930919e-05  8.704828e-09
    202    204   2   0.50000     0.0600000    0.0300000   3.930919e-05  8.704828e-09
    187    190   2   0.50000     0.0800000    0.6250000   1.575021e-03  3.561100e-06
    203    190   2   0.50000     0.0300000    0.6250000   2.482000e-04  1.854991e-07
    204    190   2   0.50000     0.0300000    0.6250000   2.482000e-04  1.854991e-07
    188    191   2   0.50000     0.1900000   -0.4300000   1.095425e-03  1.218041e-06
    188    192   2   0.50000     0.1900000   -0.1150000   1.091018e-03  2.092768e-06
    189    193   2   0.50000    -0.3300000   -0.1150000   1.102666e-03  1.331965e-06
    189    200   2   0.50000    -0.3300000   -0.1150000   1.102666e-03  1.331965e-06
    191    193   2   0.50000    -0.4300000   -0.1150000   1.177174e-03  1.365843e-06
    191    200   2   0.50000    -0.4300000   -0.1150000   1.177174e-03  1.365843e-06
    190    194   2   0.50000     0.6250000   -0.1150000   1.692561e-03  3.993218e-06
    190    205   2   0.50000     0.6250000    0.1150000   3.510079e-04  2.623353e-07
    200    194   2   0.50000    -0.1150000   -0.1150000   1.172438e-03  2.346713e-06
    200    205   2   0.50000    -0.1150000    0.1150000   2.431434e-04  1.541678e-07
    190    199   2   0.50000     0.6250000   -0.1150000   1.692561e-03  3.993218e-06
    190    208   2   0.50000     0.6250000    0.1150000   3.510079e-04  2.623353e-07
    193    199   2   0.50000    -0.1150000   -0.1150000   1.172438e-03  2.346713e-06
    193    208   2   0.50000    -0.1150000    0.1150000   2.431434e-04  1.541678e-07
    192    195   2   0.50000    -0.1150000   -0.1150000   1.172438e-03  2.346713e-06
    192    206   2   0.50000    -0.1150000    0.1150000   2.431434e-04  1.541678e-07
    205    195   2   0.50000     0.1150000   -0.1150000   2.431434e-04  1.541678e-07
    205    206   2   0.50000     0.1150000    0.1150000   5.042375e-05  1.012808e-08
    193    196   2   0.50000    -0.1150000    0.6250000   1.692561e-03  3.993218e-06
    206    196   2   0.50000     0.1150000    0.6250000   3.510079e-04  2.623353e-07
    206    199   2   0.50000     0.1150000   -0.1150000   2.431434e-04  1.541678e-07
    194    197   2   0.50000    -0.1150000   -0.4300000   1.177174e-03  1.365843e-06
    194    198   2   0.50000    -0.1150000   -0.0800000   1.102666e-03  1.331965e-06
    199    197   2   0.50000    -0.1150000   -0.4300000   1.177174e-03  1.365843e-06
    199    198   2   0.50000    -0.1150000   -0.0800000   1.102666e-03  1.331965e-06
    194    207   2   0.50000    -0.1150000    0.1150000   2.431434e-04  1.541678e-07
    196    200   2   0.50000     0.6250000   -0.1150000   1.692561e-03  3.993218e-06
    196    207   2   0.50000     0.6250000    0.1150000   3.510079e-04  2.623353e-07
    195    209   2   0.50000    -0.1150000   -0.2000000   9.038862e-04  9.862632e-07
    197    209   2   0.50000    -0.4300000   -0.2000000   9.075373e-04  5.740287e-07
    196    210   2   0.50000     0.6250000    0.0800000   1.575021e-03  3.561100e-06
    195    208   2   0.50000    -0.1150000    0.1150000   2.431434e-04  1.541678e-07
    207    192   2   0.50000     0.1150000   -0.1150000   2.431434e-04  1.541678e-07
    207    208   2   0.50000     0.1150000    0.1150000   5.042375e-05  1.012808e-08
    198    211   2   0.50000    -0.0800000    0.1900000   1.026091e-03  1.187829e-06
    198    224   2   0.50000    -0.0800000    0.0600000   2.521103e-04  1.063590e-07
    198    225   2   0.50000    -0.0800000    0.0600000   2.521103e-04  1.063590e-07
    209    212   2   0.50000    -0.2000000   -0.3300000   8.500959e-04  5.597907e-07
    209    226   2   0.50000    -0.2000000    0.0300000   1.325475e-04  4.581540e-08
    209    227   2   0.50000    -0.2000000    0.0300000   1.325475e-04  4.581540e-08
    224    212   2   0.50000     0.0600000   -0.3300000   2.521103e-04  1.063590e-07
    224    226   2   0.50000     0.0600000    0.0300000   3.930919e-05  8.704828e-09
    224    227   2   0.50000     0.0600000    0.0300000   3.930919e-05  8.704828e-09
    225    212   2   0.50000     0.0600000   -0.3300000   2.521103e-04  1.063590e-07
    225    226   2   0.50000     0.0600000    0.0300000   3.930919e-05  8.704828e-09
    225    227   2   0.50000     0.0600000    0.0300000   3.930919e-05  8.704828e-09
    210    213   2   0.50000     0.0800000    0.6250000   1.575021e-03  3.561100e-06
    226    213   2   0.50000     0.0300000    0.6250000   2.482000e-04  1.854991e-07
    227    213   2   0.50000     0.0300000    0.6250000   2.482000e-04  1.854991e-07
    211    214   2   0.50000     0.1900000   -0.4300000   1.095425e-03  1.218041e-06
    211    215   2   0.50000     0.1900000   -0.1150000   1.091018e-03  2.092768e-06
    212    216   2   0.50000    -0.3300000   -0.1150000   1.102666e-03  1.331965e-06
    212    223   2   0.50000    -0.3300000   -0.1150000   1.102666e-03  1.331965e-06
    214    216   2   0.50000    -0.4300000   -0.1150000   1.177174e-03  1.365843e-06
    214    223   2   0.50000    -0.4300000   -0.1150000   1.177174e-03  1.365843e-06
    213    217   2   0.50000     0.6250000   -0.1150000   1.692561e-03  3.993218e-06
    213    228   2   0.50000     0.6250000    0.1150000   3.510079e-04  2.623353e-07
    223    217   2   0.50000    -0.1150000   -0.1150000   1.172438e-03  2.346713e-06
    223    228   2   0.50000    -0.1150000    0.1150000   2.431434e-04  1.541678e-07
    213    222   2   0.50000     0.6250000   -0.1150000   1.692561e-03  3.993218e-06
    213    231   2   0.50000     0.6250000    0.1150000   3.510079e-04  2.623353e-07
    216    222   2   0.50000    -0.1150000   -0.1150000   1.172438e-03  2.346713e-06
    216    231   2   0.50000    -0.1150000    0.1150000   2.431434e-04  1.541678e-07
    215    218   2   0.50000    -0.1150000   -0.1150000   1.172438e-03  2.346713e-06
    215    229   2   0.50000    -0.1150000    0.1150000   2.431434e-04  1.541678e-07
    228    218   2   0.50000     0.1150000   -0.1150000   2.431434e-04  1.541678e-07
    228    229   2   0.50000     0.1150000    0.1150000   5.042375e-05  1.012808e-08
    216    219   2   0.50000    -0.1150000    0.6250000   1.692561e-03  3.993218e-06
    229    219   2   0.50000     0.1150000    0.6250000   3.510079e-04  2.623353e-07
    229    222   2   0.50000     0.1150000   -0.1150000   2.431434e-04  1.541678e-07
    217    220   2   0.50000    -0.1150000   -0.4300000   1.177174e-03  1.365843e-06
    217    221   2   0.50000    -0.1150000   -0.0800000   1.102666e-03  1.331965e-06
    222    220   2   0.50000    -0.1150000   -0.4300000   1.177174e-03  1.365843e-06
    222    221   2   0.50000    -0.1150000   -0.0800000   1.102666e-03  1.331965e-06
    217    230   2   0.50000    -0.1150000    0.1150000   2.431434e-04  1.541678e-07
    219    223   2   0.50000     0.6250000   -0.1150000   1.692561e-03  3.993218e-06
    219    230   2   0.50000     0.6250000    0.1150000   3.510079e-04  2.623353e-07
    218    232   2   0.50000    -0.1150000   -0.2000000   9.038862e-04  9.862632e-07
    220    232   2   0.50000    -0.4300000   -0.2000000   9.075373e-04  5.740287e-07
    219    233   2   0.50000     0.6250000    0.0800000   1.575021e-03  3.561100e-06
    218    231   2   0.50000    -0.1150000    0.1150000   2.431434e-04  1.541678e-07
    230    215   2   0.50000     0.1150000   -0.1150000   2.431434e-04  1.541678e-07
    230    231   2   0.50000     0.1150000    0.1150000   5.042375e-05  1.012808e-08
    221    234   2   0.50000    -0.0800000    0.1900000   1.026091e-03  1.187829e-06
    221    247   2   0.50000    -0.0800000    0.0600000   2.521103e-04  1.063590e-07
    221    248   2   0.50000    -0.0800000    0.0600000   2.521103e-04  1.063590e-07
    232    235   2   0.50000    -0.2000000   -0.3300000   8.500959e-04  5.597907e-07
    232    249   2   0.50000    -0.2000000    0.0300000   1.325475e-04  4.581540e-08
    232    250   2   0.50000    -0.2000000    0.0300000   1.325475e-04  4.581540e-08
    247    235   2   0.50000     0.0600000   -0.3300000   2.521103e-04  1.063590e-07
    247    249   2   0.50000     0.0600000    0.0300000   3.930919e-05  8.704828e-09
    247    250   2   0.50000     0.0600000    0.0300000   3.930919e-05  8.704828e-09
    248    235   2   0.50000     0.0600000   -0.3300000   2.521103e-04  1.063590e-07
    248    249   2   0.50000     0.0600000    0.0300000   3.930919e-05  8.704828e-09
    248    250   2   0.50000     0.0600000    0.0300000   3.930919e-05  8.704828e-09
    233    236   2   0.50000     0.0800000    0.6250000   1.575021e-03  3.561100e-06
    249    236   2   0.50000     0.0300000    0.6250000   2.482000e-04  1.854991e-07
    250    236   2   0.50000     0.0300000    0.6250000   2.482000e-04  1.854991e-07
    234    237   2   0.50000     0.1900000   -0.4300000   1.095425e-03  1.218041e-06
    234    238   2   0.50000     0.1900000   -0.1150000   1.091018e-03  2.092768e-06
    235    239   2   0.50000    -0.3300000   -0.1150000   1.102666e-03  1.331965e-06
    235    246   2   0.50000    -0.3300000   -0.1150000   1.102666e-03  1.331965e-06
    237    239   2   0.50000    -0.4300000   -0.1150000   1.177174e-03  1.365843e-06
    237    246   2   0.50000    -0.4300000   -0.1150000   1.177174e-03  1.365843e-06
    236    240   2   0.50000     0.6250000   -0.1150000   1.692561e-03  3.993218e-06
    236    251   2   0.50000     0.6250000    0.1150000   3.510079e-04  2.623353e-07
    246    240   2   0.50000    -0.1150000   -0.1150000   1.172438e-03  2.346713e-06
    246    251   2   0.50000    -0.1150000    0.1150000   2.431434e-04  1.541678e-07
    236    245   2   0.50000     0.6250000   -0.1150000   1.692561e-03  3.993218e-06
    236    254   2   0.50000     0.6250000    0.1150000   3.510079e-04  2.623353e-07
    239    245   2   0.50000    -0.1150000   -0.1150000   1.172438e-03  2.346713e-06
    239    254   2   0.50000    -0.1150000    0.1150000   2.431434e-04  1.541678e-07
    238    241   2   0.50000    -0.1150000   -0.1150000   1.172438e-03  2.346713e-06
    238    252   2   0.50000    -0.1150000    0.1150000   2.431434e-04  1.541678e-07
    251    241   2   0.50000     0.1150000   -0.1150000   2.431434e-04  1.541678e-07
    251    252   2   0.50000     0.1150000    0.1150000   5.042375e-05  1.012808e-08
    239    242   2   0.50000    -0.1150000    0.6250000   1.692561e-03  3.993218e-06
    252    242   2   0.50000     0.1150000    0.6250000   3.510079e-04  2.623353e-07
    252    245   2   0.50000     0.1150000   -0.1150000   2.431434e-04  1.541678e-07
    240    243   2   0.50000    -0.1150000   -0.4300000   1.177174e-03  1.365843e-06
    240    244   2   0.50000    -0.1150000   -0.0800000   1.102666e-03  1.331965e-06
    245    243   2   0.50000    -0.1150000   -0.4300000   1.177174e-03  1.365843e-06
    245    244   2   0.50000    -0.1150000   -0.0800000   1.102666e-03  1.331965e-06
    240    253   2   0.50000    -0.1150000    0.1150000   2.431434e-04  1.541678e-07
    242    246   2   0.50000     0.6250000   -0.1150000   1.692561e-03  3.993218e-06
    242    253   2   0.50000     0.6250000    0.1150000   3.510079e-04  2.623353e-07
    241    255   2   0.50000    -0.1150000   -0.2000000   9.038862e-04  9.862632e-07
    243    255   2   0.50000    -0.4300000   -0.2000000   9.075373e-04  5.740287e-07
    242    256   2   0.50000     0.6250000    0.0800000   1.575021e-03  3.561100e-06
    241    254   2   0.50000    -0.1150000    0.1150000   2.431434e-04  1.541678e-07
    253    238   2   0.50000     0.1150000   -0.1150000   2.431434e-04  1.541678e-07
    253    254   2   0.50000     0.1150000    0.1150000   5.042375e-05  1.012808e-08
    244    257   2   0.50000    -0.0800000    0.1900000   1.026091e-03  1.187829e-06
    244    270   2   0.50000    -0.0800000    0.0600000   2.521103e-04  1.063590e-07
    244    271   2   0.50000    -0.0800000    0.0600000   2.521103e-04  1.063590e-07
    255    258   2   0.50000    -0.2000000   -0.3300000   8.500959e-04  5.597907e-07
    255    272   2   0.50000    -0.2000000    0.0300000   1.325475e-04  4.581540e-08
    255    273   2   0.50000    -0.2000000    0.0300000   1.325475e-04  4.581540e-08
    270    258   2   0.50000     0.0600000   -0.3300000   2.521103e-04  1.063590e-07
    270    272   2   0.50000     0.0600000    0.0300000   3.930919e-05  8.704828e-09
    270    273   2   0.50000     0.0600000    0.0300000   3.930919e-05  8.704828e-09
    271    258   2   0.50000     0.0600000   -0.3300000   2.521103e-04  1.063590e-07
    271    272   2   0.50000     0.0600000    0.0300000   3.930919e-05  8.704828e-09
    271    273   2   0.50000     0.0600000    0.0300000   3.930919e-05  8.704828e-09
    256    259   2   0.50000     0.0800000    0.6250000   1.575021e-03  3.561100e-06
    272    259   2   0.50000     0.0300000    0.6250000   2.482000e-04  1.854991e-07
    273    259   2   0.50000     0.0300000    0.6250000   2.482000e-04  1.854991e-07
    257    260   2   0.50000     0.1900000   -0.4300000   1.095425e-03  1.218041e-06
    257    261   2   0.50000     0.1900000   -0.1150000   1.091018e-03  2.092768e-06
    258    262   2   0.50000    -0.3300000   -0.1150000   1.102666e-03  1.331965e-06
    258    269   2   0.50000    -0.3300000   -0.1150000   1.102666e-03  1.331965e-06
    260    262   2   0.50000    -0.4300000   -0.1150000   1.177174e-03  1.365843e-06
    260    269   2   0.50000    -0.4300000   -0.1150000   1.177174e-03  1.365843e-06
    259    263   2   0.50000     0.6250000   -0.1150000   1.692561e-03  3.993218e-06
    259    274   2   0.50000     0.6250000    0.1150000   3.510079e-04  2.623353e-07
    269    263   2   0.50000    -0.1150000   -0.1150000   1.172438e-03  2.346713e-06
    269    274   2   0.50000    -0.1150000    0.1150000   2.431434e-04  1.541678e-07
    259    268   2   0.50000     0.6250000   -0.1150000   1.692561e-03  3.993218e-06
    259    277   2   0.50000     0.6250000    0.1150000   3.510079e-04  2.623353e-07
    262    268   2   0.50000    -0.1150000   -0.1150000   1.172438e-03  2.346713e-06
    262    277   2   0.50000    -0.1150000    0.1150000   2.431434e-04  1.541678e-07
    261    264   2   0.50000    -0.1150000   -0.1150000   1.172438e-03  2.346713e-06
    261    275   2   0.50000    -0.1150000    0.1150000   2.431434e-04  1.541678e-07
    274    264   2   0.50000     0.1150000   -0.1150000   2.431434e-04  1.541678e-07
    274    275   2   0.50000     0.1150000    0.1150000   5.042375e-05  1.012808e-08
    262    265   2   0.50000    -0.1150000    0.6250000   1.692561e-03  3.993218e-06
    275    265   2   0.50000     0.1150000    0.6250000   3.510079e-04  2.623353e-07
    275    268   2   0.50000     0.1150000   -0.1150000   2.431434e-04  1.541678e-07
    263    266   2   0.50000    -0.1150000   -0.4300000   1.177174e-03  1.365843e-06
    263    267   2   0.50000    -0.1150000   -0.0800000   1.102666e-03  1.331965e-06
    268    266   2   0.50000    -0.1150000   -0.4300000   1.177174e-03  1.365843e-06
    268    267   2   0.50000    -0.1150000   -0.0800000   1.102666e-03  1.331965e-06
    263    276   2   0.50000    -0.1150000    0.1150000   2.431434e-04  1.541678e-07
    265    269   2   0.50000     0.6250000   -0.1150000   1.692561e-03  3.993218e-06
    265    276   2   0.50000     0.6250000    0.1150000   3.510079e-04  2.623353e-07
    264    278   2   0.50000    -0.1150000   -0.2000000   9.038862e-04  9.862632e-07
    266    278   2   0.50000    -0.4300000   -0.2000000   9.075373e-04  5.740287e-07
    265    279   2   0.50000     0.6250000    0.0800000   1.575021e-03  3.561100e-06
    264    277   2   0.50000    -0.1150000    0.1150000   2.431434e-04  1.541678e-07
    276    261   2   0.50000     0.1150000   -0.1150000   2.431434e-04  1.541678e-07
    276    277   2   0.50000     0.1150000    0.1150000   5.042375e-05  1.012808e-08
    267    280   2   0.50000    -0.0800000    0.1900000   1.026091e-03  1.187829e-06
    267    293   2   0.50000    -0.0800000    0.0600000   2.521103e-04  1.063590e-07
    267    294   2   0.50000    -0.0800000    0.0600000   2.521103e-04  1.063590e-07
    278    281   2   0.50000    -0.2000000   -0.3300000   8.500959e-04  5.597907e-07
    278    295   2   0.50000    -0.2000000    0.0300000   1.325475e-04  4.581540e-08
    278    296   2   0.50000    -0.2000000    0.0300000   1.325475e-04  4.581540e-08
    293    281   2   0.50000     0.0600000   -0.3300000   2.521103e-04  1.063590e-07
    293    295   2   0.50000     0.0600000    0.0300000   3.930919e-05  8.704828e-09
    293    296   2   0.50000     0.0600000    0.0300000   3.930919e-05  8.704828e-09
    294    281   2   0.50000     0.0600000   -0.3300000   2.521103e-04  1.063590e-07
    294    295   2   0.50000     0.0600000    0.0300000   3.930919e-05  8.704828e-09
    294    296   2   0.50000     0.0600000    0.0300000   3.930919e-05  8.704828e-09
    279    282   2   0.50000     0.0800000    0.6250000   1.575021e-03  3.561100e-06
    295    282   2   0.50000     0.0300000    0.6250000   2.482000e-04  1.854991e-07
    296    282   2   0.50000     0.0300000    0.6250000   2.482000e-04  1.854991e-07
    280    283   2   0.50000     0.1900000   -0.4300000   1.095425e-03  1.218041e-06
    280    284   2   0.50000     0.1900000   -0.1150000   1.091018e-03  2.092768e-06
    281    285   2   0.50000    -0.3300000   -0.1150000   1.102666e-03  1.331965e-06
    281    292   2   0.50000    -0.3300000   -0.1150000   1.102666e-03  1.331965e-06
    283    285   2   0.50000    -0.4300000   -0.1150000   1.177174e-03  1.365843e-06
    283    292   2   0.50000    -0.4300000   -0.1150000   1.177174e-03  1.365843e-06
    282    286   2   0.50000     0.6250000   -0.1150000   1.692561e-03  3.993218e-06
    282    297   2   0.50000     0.6250000    0.1150000   3.510079e-04  2.623353e-07
    292    286   2   0.50000    -0.1150000   -0.1150000   1.172438e-03  2.346713e-06
    292    297   2   0.50000    -0.1150000    0.1150000   2.431434e-04  1.541678e-07
    282    291   2   0.50000     0.6250000   -0.1150000   1.692561e-03  3.993218e-06
    282    300   2   0.50000     0.6250000    0.1150000   3.510079e-04  2.623353e-07
    285    291   2   0.50000    -0.1150000   -0.1150000   1.172438e-03  2.346713e-06
    285    300   2   0.50000    -0.1150000    0.1150000   2.431434e-04  1.541678e-07
    284    287   2   0.50000    -0.1150000   -0.1150000   1.172438e-03  2.346713e-06
    284    298   2   0.50000    -0.1150000    0.1150000   2.431434e-04  1.541678e-07
    297    287   2   0.50000     0.1150000   -0.1150000   2.431434e-04  1.541678e-07
    297    298   2   0.50000     0.1150000    0.1150000   5.042375e-05  1.012808e-08
    285    288   2   0.50000    -0.1150000    0.6250000   1.692561e-03  3.993218e-06
    298    288   2   0.50000     0.1150000    0.6250000   3.510079e-04  2.623353e-07
    298    291   2   0.50000     0.1150000   -0.1150000   2.431434e-04  1.541678e-07
    286    289   2   0.50000    -0.1150000   -0.4300000   1.177174e-03  1.365843e-06
    286    290   2   0.50000    -0.1150000   -0.0800000   1.102666e-03  1.331965e-06
    291    289   2   0.50000    -0.1150000   -0.4300000   1.177174e-03  1.365843e-06
    291    290   2   0.50000    -0.1150000   -0.0800000   1.102666e-03  1.331965e-06
    286    299   2   0.50000    -0.1150000    0.1150000   2.431434e-04  1.541678e-07
    288    292   2   0.50000     0.6250000   -0.1150000   1.692561e-03  3.993218e-06
    288    299   2   0.50000     0.6250000    0.1150000   3.510079e-04  2.623353e-07
    287    301   2   0.50000    -0.1150000   -0.2000000   9.038862e-04  9.862632e-07
    289    301   2   0.50000    -0.4300000   -0.2000000   9.075373e-04  5.740287e-07
    288    302   2   0.50000     0.6250000    0.0800000   1.575021e-03  3.561100e-06
    287    300   2   0.50000    -0.1150000    0.1150000   2.431434e-04  1.541678e-07
    299    284   2   0.50000     0.1150000   -0.1150000   2.431434e-04  1.541678e-07
    299    300   2   0.50000     0.1150000    0.1150000   5.042375e-05  1.012808e-08
    290    303   2   0.50000    -0.0800000    0.1900000   1.026091e-03  1.187829e-06
    290    316   2   0.50000    -0.0800000    0.0600000   2.521103e-04  1.063590e-07
    290    317   2   0.50000    -0.0800000    0.0600000   2.521103e-04  1.063590e-07
    301    304   2   0.50000    -0.2000000   -0.3300000   8.500959e-04  5.597907e-07
    301    318   2   0.50000    -0.2000000    0.0300000   1.325475e-04  4.581540e-08
    301    319   2   0.50000    -0.2000000    0.0300000   1.325475e-04  4.581540e-08
    316    304   2   0.50000     0.0600000   -0.3300000   2.521103e-04  1.063590e-07
    316    318   2   0.50000     0.0600000    0.0300000   3.930919e-05  8.704828e-09
    316    319   2   0.50000     0.0600000    0.0300000   3.930919e-05  8.704828e-09
    317    304   2   0.50000     0.0600000   -0.3300000   2.521103e-04  1.063590e-07
    317    318   2   0.50000     0.0600000    0.0300000   3.930919e-05  8.704828e-09
    317    319   2   0.50000     0.0600000    0.0300000   3.930919e-05  8.704828e-09
    302    305   2   0.50000     0.0800000    0.6250000   1.575021e-03  3.561100e-06
    318    305   2   0.50000     0.0300000    0.6250000   2.482000e-04  1.854991e-07
    319    305   2   0.50000     0.0300000    0.6250000   2.482000e-04  1.854991e-07
    303    306   2   0.50000     0.1900000   -0.4300000   1.095425e-03  1.218041e-06
    303    307   2   0.50000     0.1900000   -0.1150000   1.091018e-03  2.092768e-06
    304    308   2   0.50000    -0.3300000   -0.1150000   1.102666e-03  1.331965e-06
    304    315   2   0.50000    -0.3300000   -0.1150000   1.102666e-03  1.331965e-06
    306    308   2   0.50000    -0.4300000   -0.1150000   1.177174e-03  1.365843e-06
    306    315   2   0.50000    -0.4300000   -0.1150000   1.177174e-03  1.365843e-06
    305    309   2   0.50000     0.6250000   -0.1150000   1.692561e-03  3.993218e-06
    305    320   2   0.50000     0.6250000    0.1150000   3.510079e-04  2.623353e-07
    315    309   2   0.50000    -0.1150000   -0.1150000   1.172438e-03  2.346713e-06
    315    320   2   0.50000    -0.1150000    0.1150000   2.431434e-04  1.541678e-07
    305    314   2   0.50000     0.6250000   -0.1150000   1.692561e-03  3.993218e-06
    305    323   2   0.50000     0.6250000    0.1150000   3.510079e-04  2.623353e-07
    308    314   2   0.50000    -0.1150000   -0.1150000   1.172438e-03  2.346713e-06
    308    323   2   0.50000    -0.1150000    0.1150000   2.431434e-04  1.541678e-07
    307    310   2   0.50000    -0.1150000   -0.1150000   1.172438e-03  2.346713e-06
    307    321   2   0.50000    -0.1150000    0.1150000   2.431434e-04  1.541678e-07
    320    310   2   0.50000     0.1150000   -0.1150000   2.431434e-04  1.541678e-07
    320    321   2   0.50000     0.1150000    0.1150000   5.042375e-05  1.012808e-08
    308    311   2   0.50000    -0.1150000    0.6250000   1.692561e-03  3.993218e-06
    321    311   2   0.50000     0.1150000    0.6250000   3.510079e-04  2.623353e-07
    321    314   2   0.50000     0.1150000   -0.1150000   2.431434e-04  1.541678e-07
    309    312   2   0.50000    -0.1150000   -0.4300000   1.177174e-03  1.365843e-06
    309    313   2   0.50000    -0.1150000   -0.0800000   1.102666e-03  1.331965e-06
    314    312   2   0.50000    -0.1150000   -0.4300000   1.177174e-03  1.365843e-06
    314    313   2   0.50000    -0.1150000   -0.0800000   1.102666e-03  1.331965e-06
    309    322   2   0.50000    -0.1150000    0.1150000   2.431434e-04  1.541678e-07
    311    315   2   0.50000     0.6250000   -0.1150000   1.692561e-03  3.993218e-06
    311    322   2   0.50000     0.6250000    0.1150000   3.510079e-04  2.623353e-07
    310    324   2   0.50000    -0.1150000   -0.2000000   9.038862e-04  9.862632e-07
    312    324   2   0.50000    -0.4300000   -0.2000000   9.075373e-04  5.740287e-07
    311    325   2   0.50000     0.6250000    0.0800000   1.575021e-03  3.561100e-06
    310    323   2   0.50000    -0.1150000    0.1150000   2.431434e-04  1.541678e-07
    322    307   2   0.50000     0.1150000   -0.1150000   2.431434e-04  1.541678e-07
    322    323   2   0.50000     0.1150000    0.1150000   5.042375e-05  1.012808e-08
    313    326   2   0.50000    -0.0800000    0.1900000   1.026091e-03  1.187829e-06
    313    339   2   0.50000    -0.0800000    0.0600000   2.521103e-04  1.063590e-07
    313    340   2   0.50000    -0.0800000    0.0600000   2.521103e-04  1.063590e-07
    324    327   2   0.50000    -0.2000000   -0.3300000   8.500959e-04  5.597907e-07
    324    341   2   0.50000    -0.2000000    0.0300000   1.325475e-04  4.581540e-08
    324    342   2   0.50000    -0.2000000    0.0300000   1.325475e-04  4.581540e-08
    339    327   2   0.50000     0.0600000   -0.3300000   2.521103e-04  1.063590e-07
    339    341   2   0.50000     0.0600000    0.0300000   3.930919e-05  8.704828e-09
    339    342   2   0.50000     0.0600000    0.0300000   3.930919e-05  8.704828e-09
    340    327   2   0.50000     0.0600000   -0.3300000   2.521103e-04  1.063590e-07
    340    341   2   0.50000     0.0600000    0.0300000   3.930919e-05  8.704828e-09
    340    342   2   0.50000     0.0600000    0.0300000   3.930919e-05  8.704828e-09
    325    328   2   0.50000     0.0800000    0.6250000   1.575021e-03  3.561100e-06
    341    328   2   0.50000     0.0300000    0.6250000   2.482000e-04  1.854991e-07
    342    328   2   0.50000     0.0300000    0.6250000   2.482000e-04  1.854991e-07
    326    329   2   0.50000     0.1900000   -0.4300000   1.095425e-03  1.218041e-06
    326    330   2   0.50000     0.1900000   -0.1150000   1.091018e-03  2.092768e-06
    327    331   2   0.50000    -0.3300000   -0.1150000   1.102666e-03  1.331965e-06
    327    338   2   0.50000    -0.3300000   -0.1150000   1.102666e-03  1.331965e-06
    329    331   2   0.50000    -0.4300000   -0.1150000   1.177174e-03  1.365843e-06
    329    338   2   0.50000    -0.4300000   -0.1150000   1.177174e-03  1.365843e-06
    328    332   2   0.50000     0.6250000   -0.1150000   1.692561e-03  3.993218e-06
    328    343   2   0.50000     0.6250000    0.1150000   3.510079e-04  2.623353e-07
    338    332   2   0.50000    -0.1150000   -0.1150000   1.172438e-03  2.346713e-06
    338    343   2   0.50000    -0.1150000    0.1150000   2.431434e-04  1.541678e-07
    328    337   2   0.50000     0.6250000   -0.1150000   1.692561e-03  3.993218e-06
    328    346   2   0.50000     0.6250000    0.1150000   3.510079e-04  2.623353e-07
    331    337   2   0.50000    -0.1150000   -0.1150000   1.172438e-03  2.346713e-06
    331    346   2   0.50000    -0.1150000    0.1150000   2.431434e-04  1.541678e-07
    330    333   2   0.50000    -0.1150000   -0.1150000   1.172438e-03  2.346713e-06
    330    344   2   0.50000    -0.1150000    0.1150000   2.431434e-04  1.541678e-07
    343    333   2   0.50000     0.1150000   -0.1150000   2.431434e-04  1.541678e-07
    343    344   2   0.50000     0.1150000    0.1150000   5.042375e-05  1.012808e-08
    331    334   2   0.50000    -0.1150000    0.6250000   1.692561e-03  3.993218e-06
    344    334   2   0.50000     0.1150000    0.6250000   3.510079e-04  2.623353e-07
    344    337   2   0.50000     0.1150000   -0.1150000   2.431434e-04  1.541678e-07
    332    335   2   0.50000    -0.1150000   -0.4300000   1.177174e-03  1.365843e-06
    332    336   2   0.50000    -0.1150000   -0.0800000   1.102666e-03  1.331965e-06
    337    335   2   0.50000    -0.1150000   -0.4300000   1.177174e-03  1.365843e-06
    337    336   2   0.50000    -0.1150000   -0.0800000   1.102666e-03  1.331965e-06
    332    345   2   0.50000    -0.1150000    0.1150000   2.431434e-04  1.541678e-07
    334    338   2   0.50000     0.6250000   -0.1150000   1.692561e-03  3.993218e-06
    334    345   2   0.50000     0.6250000    0.1150000   3.510079e-04  2.623353e-07
    333    347   2   0.50000    -0.1150000   -0.2000000   9.038862e-04  9.862632e-07
    335    347   2   0.50000    -0.4300000   -0.2000000   9.075373e-04  5.740287e-07
    334    348   2   0.50000     0.6250000    0.0800000   1.575021e-03  3.561100e-06
    333    346   2   0.50000    -0.1150000    0.1150000   2.431434e-04  1.541678e-07
    345    330   2   0.50000     0.1150000   -0.1150000   2.431434e-04  1.541678e-07
    345    346   2   0.50000     0.1150000    0.1150000   5.042375e-05  1.012808e-08
    336    349   2   0.50000    -0.0800000    0.1900000   1.026091e-03  1.187829e-06
    336    362   2   0.50000    -0.0800000    0.0600000   2.521103e-04  1.063590e-07
    336    363   2   0.50000    -0.0800000    0.0600000   2.521103e-04  1.063590e-07
    347    350   2   0.50000    -0.2000000   -0.3300000   8.500959e-04  5.597907e-07
    347    364   2   0.50000    -0.2000000    0.0300000   1.325475e-04  4.581540e-08
    347    365   2   0.50000    -0.2000000    0.0300000   1.325475e-04  4.581540e-08
    362    350   2   0.50000     0.0600000   -0.3300000   2.521103e-04  1.063590e-07
    362    364   2   0.50000     0.0600000    0.0300000   3.930919e-05  8.704828e-09
    362    365   2   0.50000     0.0600000    0.0300000   3.930919e-05  8.704828e-09
    363    350   2   0.50000     0.0600000   -0.3300000   2.521103e-04  1.063590e-07
    363    364   2   0.50000     0.0600000    0.0300000   3.930919e-05  8.704828e-09
    363    365   2   0.50000     0.0600000    0.0300000   3.930919e-05  8.704828e-09
    348    351   2   0.50000     0.0800000    0.6250000   1.575021e-03  3.561100e-06
    364    351   2   0.50000     0.0300000    0.6250000   2.482000e-04  1.854991e-07
    365    351   2   0.50000     0.0300000    0.6250000   2.482000e-04  1.854991e-07
    349    352   2   0.50000     0.1900000   -0.4300000   1.095425e-03  1.218041e-06
    349    353   2   0.50000     0.1900000   -0.1150000   1.091018e-03  2.092768e-06
    350    354   2   0.50000    -0.3300000   -0.1150000   1.102666e-03  1.331965e-06
    350    361   2   0.50000    -0.3300000   -0.1150000   1.102666e-03  1.331965e-06
    352    354   2   0.50000    -0.4300000   -0.1150000   1.177174e-03  1.365843e-06
    352    361   2   0.50000    -0.4300000   -0.1150000   1.177174e-03  1.365843e-06
    351    355   2   0.50000     0.6250000   -0.1150000   1.692561e-03  3.993218e-06
    351    366   2   0.50000     0.6250000    0.1150000   3.510079e-04  2.623353e-07
    361    355   2   0.50000    -0.1150000   -0.1150000   1.172438e-03  2.346713e-06
    361    366   2   0.50000    -0.1150000    0.1150000   2.431434e-04  1.541678e-07
    351    360   2   0.50000     0.6250000   -0.1150000   1.692561e-03  3.993218e-06
    351    369   2   0.50000     0.6250000    0.1150000   3.510079e-04  2.623353e-07
    354    360   2   0.50000    -0.1150000   -0.1150000   1.172438e-03  2.346713e-06
    354    369   2   0.50000    -0.1150000    0.1150000   2.431434e-04  1.541678e-07
    353    356   2   0.50000    -0.1150000   -0.1150000   1.172438e-03  2.346713e-06
    353    367   2   0.50000    -0.1150000    0.1150000   2.431434e-04  1.541678e-07
    366    356   2   0.50000     0.1150000   -0.1150000   2.431434e-04  1.541678e-07
    366    367   2   0.50000     0.1150000    0.1150000   5.042375e-05  1.012808e-08
    354    357   2   0.50000    -0.1150000    0.6250000   1.692561e-03  3.993218e-06
    367    357   2   0.50000     0.1150000    0.6250000   3.510079e-04  2.623353e-07
    367    360   2   0.50000     0.1150000   -0.1150000   2.431434e-04  1.541678e-07
    355    358   2   0.50000    -0.1150000   -0.4300000   1.177174e-03  1.365843e-06
    355    359   2   0.50000    -0.1150000   -0.0800000   1.102666e-03  1.331965e-06
    360    358   2   0.50000    -0.1150000   -0.4300000   1.177174e-03  1.365843e-06
    360    359   2   0.50000    -0.1150000   -0.0800000   1.102666e-03  1.331965e-06
    355    368   2   0.50000    -0.1150000    0.1150000   2.431434e-04  1.541678e-07
    357    361   2   0.50000     0.6250000   -0.1150000   1.692561e-03  3.993218e-06
    357    368   2   0.50000     0.6250000    0.1150000   3.510079e-04  2.623353e-07
    356    370   2   0.50000    -0.1150000   -0.2000000   9.038862e-04  9.862632e-07
    358    370   2   0.50000    -0.4300000   -0.2000000   9.075373e-04  5.740287e-07
    357    371   2   0.50000     0.6250000    0.0800000   1.575021e-03  3.561100e-06
    356    369   2   0.50000    -0.1150000    0.1150000   2.431434e-04  1.541678e-07
    368    353   2   0.50000     0.1150000   -0.1150000   2.431434e-04  1.541678e-07
    368    369   2   0.50000     0.1150000    0.1150000   5.042375e-05  1.012808e-08
    359    372   2   0.50000    -0.0800000    0.1900000   1.026091e-03  1.187829e-06
    359    385   2   0.50000    -0.0800000    0.0600000   2.521103e-04  1.063590e-07
    359    386   2   0.50000    -0.0800000    0.0600000   2.521103e-04  1.063590e-07
    370    373   2   0.50000    -0.2000000   -0.3300000   8.500959e-04  5.597907e-07
    370    387   2   0.50000    -0.2000000    0.0300000   1.325475e-04  4.581540e-08
    370    388   2   0.50000    -0.2000000    0.0300000   1.325475e-04  4.581540e-08
    385    373   2   0.50000     0.0600000   -0.3300000   2.521103e-04  1.063590e-07
    385    387   2   0.50000     0.0600000    0.0300000   3.930919e-05  8.704828e-09
    385    388   2   0.50000     0.0600000    0.0300000   3.930919e-05  8.704828e-09
    386    373   2   0.50000     0.0600000   -0.3300000   2.521103e-04  1.063590e-07
    386    387   2   0.50000     0.0600000    0.0300000   3.930919e-05  8.704828e-09
    386    388   2   0.50000     0.0600000    0.0300000   3.930919e-05  8.704828e-09
    371    374   2   0.50000     0.0800000    0.6250000   1.575021e-03  3.561100e-06
    387    374   2   0.50000     0.0300000    0.6250000   2.482000e-04  1.854991e-07
    388    374   2   0.50000     0.0300000    0.6250000   2.482000e-04  1.854991e-07
    372    375   2   0.50000     0.1900000   -0.4300000   1.095425e-03  1.218041e-06
    372    376   2   0.50000     0.1900000   -0.1150000   1.091018e-03  2.092768e-06
    373    377   2   0.50000    -0.3300000   -0.1150000   1.102666e-03  1.331965e-06
    373    384   2   0.50000    -0.3300000   -0.1150000   1.102666e-03  1.331965e-06
    375    377   2   0.50000    -0.4300000   -0.1150000   1.177174e-03  1.365843e-06
    375    384   2   0.50000    -0.4300000   -0.1150000   1.177174e-03  1.365843e-06
    374    378   2   0.50000     0.6250000   -0.1150000   1.692561e-03  3.993218e-06
    374    389   2   0.50000     0.6250000    0.1150000   3.510079e-04  2.623353e-07
    384    378   2   0.50000    -0.1150000   -0.1150000   1.172438e-03  2.346713e-06
    384    389   2   0.50000    -0.1150000    0.1150000   2.431434e-04  1.541678e-07
    374    383   2   0.50000     0.6250000   -0.1150000   1.692561e-03  3.993218e-06
    374    392   2   0.50000     0.6250000    0.1150000   3.510079e-04  2.623353e-07
    377    383   2   0.50000    -0.1150000   -0.1150000   1.172438e-03  2.346713e-06
    377    392   2   0.50000    -0.1150000    0.1150000   2.431434e-04  1.541678e-07
    376    379   2   0.50000    -0.1150000   -0.1150000   1.172438e-03  2.346713e-06
    376    390   2   0.50000    -0.1150000    0.1150000   2.431434e-04  1.541678e-07
    389    379   2   0.50000     0.1150000   -0.1150000   2.431434e-04  1.541678e-07
    389    390   2   0.50000     0.1150000    0.1150000   5.042375e-05  1.012808e-08
    377    380   2   0.50000    -0.1150000    0.6250000   1.692561e-03  3.993218e-06
    390    380   2   0.50000     0.1150000    0.6250000   3.510079e-04  2.623353e-07
    390    383   2   0.50000     0.1150000   -0.1150000   2.431434e-04  1.541678e-07
    378    381   2   0.50000    -0.1150000   -0.4300000   1.177174e-03  1.365843e-06
    378    382   2   0.50000    -0.1150000   -0.0800000   1.102666e-03  1.331965e-06
    383    381   2   0.50000    -0.1150000   -0.4300000   1.177174e-03  1.365843e-06
    383    382   2   0.50000    -0.1150000   -0.0800000   1.102666e-03  1.331965e-06
    378    391   2   0.50000    -0.1150000    0.1150000   2.431434e-04  1.541678e-07
    380    384   2   0.50000     0.6250000   -0.1150000   1.692561e-03  3.993218e-06
    380    391   2   0.50000     0.6250000    0.1150000   3.510079e-04  2.623353e-07
    379    393   2   0.50000    -0.1150000   -0.2000000   9.038862e-04  9.862632e-07
    381    393   2   0.50000    -0.4300000   -0.2000000   9.075373e-04  5.740287e-07
    380    394   2   0.50000     0.6250000    0.0800000   1.575021e-03  3.561100e-06
    379    392   2   0.50000    -0.1150000    0.1150000   2.431434e-04  1.541678e-07
    391    376   2   0.50000     0.1150000   -0.1150000   2.431434e-04  1.541678e-07
    391    392   2   0.50000     0.1150000    0.1150000   5.042375e-05  1.012808e-08
    382    395   2   0.50000    -0.0800000    0.1900000   1.026091e-03  1.187829e-06
    382    408   2   0.50000    -0.0800000    0.0600000   2.521103e-04  1.063590e-07
    382    409   2   0.50000    -0.0800000    0.0600000   2.521103e-04  1.063590e-07
    393    396   2   0.50000    -0.2000000   -0.3300000   8.500959e-04  5.597907e-07
    393    410   2   0.50000    -0.2000000    0.0300000   1.325475e-04  4.581540e-08
    393    411   2   0.50000    -0.2000000    0.0300000   1.325475e-04  4.581540e-08
    408    396   2   0.50000     0.0600000   -0.3300000   2.521103e-04  1.063590e-07
    408    410   2   0.50000     0.0600000    0.0300000   3.930919e-05  8.704828e-09
    408    411   2   0.50000     0.0600000    0.0300000   3.930919e-05  8.704828e-09
    409    396   2   0.50000     0.0600000   -0.3300000   2.521103e-04  1.063590e-07
    409    410   2   0.50000     0.0600000    0.0300000   3.930919e-05  8.704828e-09
    409    411   2   0.50000     0.0600000    0.0300000   3.930919e-05  8.704828e-09
    394    397   2   0.50000     0.0800000    0.6250000   1.575021e-03  3.561100e-06
    410    397   2   0.50000     0.0300000    0.6250000   2.482000e-04  1.854991e-07
    411    397   2   0.50000     0.0300000    0.6250000   2.482000e-04  1.854991e-07
    395    398   2   0.50000     0.1900000   -0.4300000   1.095425e-03  1.218041e-06
    395    399   2   0.50000     0.1900000   -0.1150000   1.091018e-03  2.092768e-06
    396    400   2   0.50000    -0.3300000   -0.1150000   1.102666e-03  1.331965e-06
    396    407   2   0.50000    -0.3300000   -0.1150000   1.102666e-03  1.331965e-06
    398    400   2   0.50000    -0.4300000   -0.1150000   1.177174e-03  1.365843e-06
    398    407   2   0.50000    -0.4300000   -0.1150000   1.177174e-03  1.365843e-06
    397    401   2   0.50000     0.6250000   -0.1150000   1.692561e-03  3.993218e-06
    397    412   2   0.50000     0.6250000    0.1150000   3.510079e-04  2.623353e-07
    407    401   2   0.50000    -0.1150000   -0.1150000   1.172438e-03  2.346713e-06
    407    412   2   0.50000    -0.1150000    0.1150000   2.431434e-04  1.541678e-07
    397    406   2   0.50000     0.6250000   -0.1150000   1.692561e-03  3.993218e-06
    397    415   2   0.50000     0.6250000    0.1150000   3.510079e-04  2.623353e-07
    400    406   2   0.50000    -0.1150000   -0.1150000   1.172438e-03  2.346713e-06
    400    415   2   0.50000    -0.1150000    0.1150000   2.431434e-04  1.541678e-07
    399    402   2   0.50000    -0.1150000   -0.1150000   1.172438e-03  2.346713e-06
    399    413   2   0.50000    -0.1150000    0.1150000   2.431434e-04  1.541678e-07
    412    402   2   0.50000     0.1150000   -0.1150000   2.431434e-04  1.541678e-07
    412    413   2   0.50000     0.1150000    0.1150000   5.042375e-05  1.012808e-08
    400    403   2   0.50000    -0.1150000    0.6250000   1.692561e-03  3.993218e-06
    413    403   2   0.50000     0.1150000    0.6250000   3.510079e-04  2.623353e-07
    413    406   2   0.50000     0.1150000   -0.1150000   2.431434e-04  1.541678e-07
    401    404   2   0.50000    -0.1150000   -0.4300000   1.177174e-03  1.365843e-06
    401    405   2   0.50000    -0.1150000   -0.0800000   1.102666e-03  1.331965e-06
    406    404   2   0.50000    -0.1150000   -0.4300000   1.177174e-03  1.365843e-06
    406    405   2   0.50000    -0.1150000   -0.0800000   1.102666e-03  1.331965e-06
    401    414   2   0.50000    -0.1150000    0.1150000   2.431434e-04  1.541678e-07
    403    407   2   0.50000     0.6250000   -0.1150000   1.692561e-03  3.993218e-06
    403    414   2   0.50000     0.6250000    0.1150000   3.510079e-04  2.623353e-07
    402    416   2   0.50000    -0.1150000   -0.2000000   9.038862e-04  9.862632e-07
    404    416   2   0.50000    -0.4300000   -0.2000000   9.075373e-04  5.740287e-07
    403    417   2   0.50000     0.6250000    0.0800000   1.575021e-03  3.561100e-06
    402    415   2   0.50000    -0.1150000    0.1150000   2.431434e-04  1.541678e-07
    414    399   2   0.50000     0.1150000   -0.1150000   2.431434e-04  1.541678e-07
    414    415   2   0.50000     0.1150000    0.1150000   5.042375e-05  1.012808e-08
    405    418   2   0.50000    -0.0800000    0.1900000   1.026091e-03  1.187829e-06
    405    431   2   0.50000    -0.0800000    0.0600000   2.521103e-04  1.063590e-07
    405    432   2   0.50000    -0.0800000    0.0600000   2.521103e-04  1.063590e-07
    416    419   2   0.50000    -0.2000000   -0.3300000   8.500959e-04  5.597907e-07
    416    433   2   0.50000    -0.2000000    0.0300000   1.325475e-04  4.581540e-08
    416    434   2   0.50000    -0.2000000    0.0300000   1.325475e-04  4.581540e-08
    431    419   2   0.50000     0.0600000   -0.3300000   2.521103e-04  1.063590e-07
    431    433   2   0.50000     0.0600000    0.0300000   3.930919e-05  8.704828e-09
    431    434   2   0.50000     0.0600000    0.0300000   3.930919e-05  8.704828e-09
    432    419   2   0.50000     0.0600000   -0.3300000   2.521103e-04  1.063590e-07
    432    433   2   0.50000     0.0600000    0.0300000   3.930919e-05  8.704828e-09
    432    434   2   0.50000     0.0600000    0.0300000   3.930919e-05  8.704828e-09
    417    420   2   0.50000     0.0800000    0.6250000   1.575021e-03  3.561100e-06
    433    420   2   0.50000     0.0300000    0.6250000   2.482000e-04  1.854991e-07
    434    420   2   0.50000     0.0300000    0.6250000   2.482000e-04  1.854991e-07
    418    421   2   0.50000     0.1900000   -0.4300000   1.095425e-03  1.218041e-06
    418    422   2   0.50000     0.1900000   -0.1150000   1.091018e-03  2.092768e-06
    419    423   2   0.50000    -0.3300000   -0.1150000   1.102666e-03  1.331965e-06
    419    430   2   0.50000    -0.3300000   -0.1150000   1.102666e-03  1.331965e-06
    421    423   2   0.50000    -0.4300000   -0.1150000   1.177174e-03  1.365843e-06
    421    430   2   0.50000    -0.4300000   -0.1150000   1.177174e-03  1.365843e-06
    420    424   2   0.50000     0.6250000   -0.1150000   1.692561e-03  3.993218e-06
    420    435   2   0.50000     0.6250000    0.1150000   3.510079e-04  2.623353e-07
    430    424   2   0.50000    -0.1150000   -0.1150000   1.172438e-03  2.346713e-06
    430    435   2   0.50000    -0.1150000    0.1150000   2.431434e-04  1.541678e-07
    420    429   2   0.50000     0.6250000   -0.1150000   1.692561e-03  3.993218e-06
    420    438   2   0.50000     0.6250000    0.1150000   3.510079e-04  2.623353e-07
    423    429   2   0.50000    -0.1150000   -0.1150000   1.172438e-03  2.346713e-06
    423    438   2   0.50000    -0.1150000    0.1150000   2.431434e-04  1.541678e-07
    422    425   2   0.50000    -0.1150000   -0.1150000   1.172438e-03  2.346713e-06
    422    436   2   0.50000    -0.1150000    0.1150000   2.431434e-04  1.541678e-07
    435    425   2   0.50000     0.1150000   -0.1150000   2.431434e-04  1.541678e-07
    435    436   2   0.50000     0.1150000    0.1150000   5.042375e-05  1.012808e-08
    423    426   2   0.50000    -0.1150000    0.6250000   1.692561e-03  3.993218e-06
    436    426   2   0.50000     0.1150000    0.6250000   3.510079e-04  2.623353e-07
    436    429   2   0.50000     0.1150000   -0.1150000   2.431434e-04  1.541678e-07
    424    427   2   0.50000    -0.1150000   -0.4300000   1.177174e-03  1.365843e-06
    424    428   2   0.50000    -0.1150000   -0.0800000   1.102666e-03  1.331965e-06
    429    427   2   0.50000    -0.1150000   -0.4300000   1.177174e-03  1.365843e-06
    429    428   2   0.50000    -0.1150000   -0.0800000   1.102666e-03  1.331965e-06
    424    437   2   0.50000    -0.1150000    0.1150000   2.431434e-04  1.541678e-07
    426    430   2   0.50000     0.6250000   -0.1150000   1.692561e-03  3.993218e-06
    426    437   2   0.50000     0.6250000    0.1150000   3.510079e-04  2.623353e-07
    425    439   2   0.50000    -0.1150000   -0.2000000   9.038862e-04  9.862632e-07
    427    439   2   0.50000    -0.4300000   -0.2000000   9.075373e-04  5.740287e-07
    426    440   2   0.50000     0.6250000    0.0800000   1.575021e-03  3.561100e-06
    425    438   2   0.50000    -0.1150000    0.1150000   2.431434e-04  1.541678e-07
    437    422   2   0.50000     0.1150000   -0.1150000   2.431434e-04  1.541678e-07
    437    438   2   0.50000     0.1150000    0.1150000   5.042375e-05  1.012808e-08
    428    441   2   0.50000    -0.0800000    0.1900000   1.026091e-03  1.187829e-06
    428    454   2   0.50000    -0.0800000    0.0600000   2.521103e-04  1.063590e-07
    428    455   2   0.50000    -0.0800000    0.0600000   2.521103e-04  1.063590e-07
    439    442   2   0.50000    -0.2000000   -0.3300000   8.500959e-04  5.597907e-07
    439    456   2   0.50000    -0.2000000    0.0300000   1.325475e-04  4.581540e-08
    439    457   2   0.50000    -0.2000000    0.0300000   1.325475e-04  4.581540e-08
    454    442   2   0.50000     0.0600000   -0.3300000   2.521103e-04  1.063590e-07
    454    456   2   0.50000     0.0600000    0.0300000   3.930919e-05  8.704828e-09
    454    457   2   0.50000     0.0600000    0.0300000   3.930919e-05  8.704828e-09
    455    442   2   0.50000     0.0600000   -0.3300000   2.521103e-04  1.063590e-07
    455    456   2   0.50000     0.0600000    0.0300000   3.930919e-05  8.704828e-09
    455    457   2   0.50000     0.0600000    0.0300000   3.930919e-05  8.704828e-09
    440    443   2   0.50000     0.0800000    0.6250000   1.575021e-03  3.561100e-06
    456    443   2   0.50000     0.0300000    0.6250000   2.482000e-04  1.854991e-07
    457    443   2   0.50000     0.0300000    0.6250000   2.482000e-04  1.854991e-07
    441    444   2   0.50000     0.1900000   -0.4300000   1.095425e-03  1.218041e-06
    441    445   2   0.50000     0.1900000   -0.1150000   1.091018e-03  2.092768e-06
    442    446   2   0.50000    -0.3300000   -0.1150000   1.102666e-03  1.331965e-06
    442    453   2   0.50000    -0.3300000   -0.1150000   1.102666e-03  1.331965e-06
    444    446   2   0.50000    -0.4300000   -0.1150000   1.177174e-03  1.365843e-06
    444    453   2   0.50000    -0.4300000   -0.1150000   1.177174e-03  1.365843e-06
    443    447   2   0.50000     0.6250000   -0.1150000   1.692561e-03  3.993218e-06
    443    458   2   0.50000     0.6250000    0.1150000   3.510079e-04  2.623353e-07
    453    447   2   0.50000    -0.1150000   -0.1150000   1.172438e-03  2.346713e-06
    453    458   2   0.50000    -0.1150000    0.1150000   2.431434e-04  1.541678e-07
    443    452   2   0.50000     0.6250000   -0.1150000   1.692561e-03  3.993218e-06
    443    461   2   0.50000     0.6250000    0.1150000   3.510079e-04  2.623353e-07
    446    452   2   0.50000    -0.1150000   -0.1150000   1.172438e-03  2.346713e-06
    446    461   2   0.50000    -0.1150000    0.1150000   2.431434e-04  1.541678e-07
    445    448   2   0.50000    -0.1150000   -0.1150000   1.172438e-03  2.346713e-06
    445    459   2   0.50000    -0.1150000    0.1150000   2.431434e-04  1.541678e-07
    458    448   2   0.50000     0.1150000   -0.1150000   2.431434e-04  1.541678e-07
    458    459   2   0.50000     0.1150000    0.1150000   5.042375e-05  1.012808e-08
    446    449   2   0.50000    -0.1150000    0.6350000   1.692561e-03  3.993218e-06
    459    449   2   0.50000     0.1150000    0.6350000   3.510079e-04  2.623353e-07
    459    452   2   0.50000     0.1150000   -0.1150000   2.431434e-04  1.541678e-07
    447    450   2   0.50000    -0.1150000   -0.4400000   1.177174e-03  1.365843e-06
    447    451   2   0.50000    -0.1150000   -0.5300000   1.102666e-03  1.331965e-06
    452    450   2   0.50000    -0.1150000   -0.4400000   1.177174e-03  1.365843e-06
    452    451   2   0.50000    -0.1150000   -0.5300000   1.102666e-03  1.331965e-06
    447    460   2   0.50000    -0.1150000    0.1150000   2.431434e-04  1.541678e-07
    449    453   2   0.50000     0.6350000   -0.1150000   1.692561e-03  3.993218e-06
    449    460   2   0.50000     0.6350000    0.1150000   3.510079e-04  2.623353e-07
    448    462   2   0.50000    -0.1150000    0.4500000   2.144502e-06  1.199282e-11
    450    462   2   0.50000    -0.4400000    0.4500000   2.153164e-06  6.980110e-12
    448    461   2   0.50000    -0.1150000    0.1150000   2.431434e-04  1.541678e-07
    460    445   2   0.50000     0.1150000   -0.1150000   2.431434e-04  1.541678e-07
    460    461   2   0.50000     0.1150000    0.1150000   5.042375e-05  1.012808e-08

[ angles ]
; ai  aj  ak
      2      1     24   1    108.5000    460.2400
      1      2      3   1    109.5000    418.4000
      1      2     16   1    109.5000    292.8800
      1      2     17   1    109.5000    292.8800
      3      2     16   1    110.7000    313.8000
      3      2     17   1    110.7000    313.8000
     16      2     17   1    107.8000    276.1440
      2      3      4   1    109.5000    418.4000
      2      3     18   1    110.7000    313.8000
      2      3     19   1    110.7000    313.8000
      4      3     18   1    109.5000    292.8800
      4      3     19   1    109.5000    292.8800
     18      3     19   1    107.8000    276.1440
      3      4      5   1    116.9000    694.5440
      4      5      6   1    123.4000    694.5440
      4      5      7   1    111.4000    677.8080
      6      5      7   1    123.7840    627.6000
      5      7      8   1    119.5260    502.0800
      5      7     15   1    119.5260    502.0800
      8      7     15   1    120.0000    527.1840
      7      8      9   1    120.0000    527.1840
      7      8     20   1    120.0000    292.8800
      9      8     20   1    120.0000    292.8800
      8      9     10   1    120.0000    527.1840
      8      9     21   1    120.0000    292.8800
     10      9     21   1    120.0000    292.8800
      9     10     11   1    119.5260    502.0800
      9     10     14   1    120.0000    527.1840
     11     10     14   1    119.5260    502.0800
     10     11     12   1    123.7840    627.6000
     10     11     13   1    111.4000    677.8080
     12     11     13   1    123.4000    694.5440
     11     13     25   1    112.0000   1004.1600
     10     14     15   1    120.0000    527.1840
     10     14     22   1    120.0000    292.8800
     15     14     22   1    120.0000    292.8800
      7     15     14   1    120.0000    527.1840
      7     15     23   1    120.0000    292.8800
     14     15     23   1    120.0000    292.8800
     13     25     26   1    107.0000   1046.0000
     25     26     27   1    109.5000    418.4000
     25     26     40   1    109.5000    292.8800
     25     26     41   1    109.5000    292.8800
     27     26     40   1    110.7000    313.8000
     27     26     41   1    110.7000    313.8000
     40     26     41   1    107.8000    276.1440
     26     27     28   1    109.5000    418.4000
     26     27     42   1    110.7000    313.8000
     26     27     43   1    110.7000    313.8000
     28     27     42   1    109.5000    292.8800
     28     27     43   1    109.5000    292.8800
     42     27     43   1    107.8000    276.1440
     27     28     29   1    116.9000    694.5440
     28     29     30   1    123.4000    694.5440
     28     29     31   1    111.4000    677.8080
     30     29     31   1    123.7840    627.6000
     29     31     32   1    119.5260    502.0800
     29     31     39   1    119.5260    502.0800
     32     31     39   1    120.0000    527.1840
     31     32     33   1    120.0000    527.1840
     31     32     44   1    120.0000    292.8800
     33     32     44   1    120.0000    292.8800
     32     33     34   1    120.0000    527.1840
     32     33     45   1    120.0000    292.8800
     34     33     45   1    120.0000    292.8800
     33     34     35   1    119.5260    502.0800
     33     34     38   1    120.0000    527.1840
     35     34     38   1    119.5260    502.0800
     34     35     36   1    123.7840    627.6000
     34     35     37   1    111.4000    677.8080
     36     35     37   1    123.4000    694.5440
     35     37     48   1    112.0000   1004.1600
     34     38     39   1    120.0000    527.1840
     34     38     46   1    120.0000    292.8800
     39     38     46   1    120.0000    292.8800
     31     39     38   1    120.0000    527.1840
     31     39     47   1    120.0000    292.8800
     38     39     47   1    120.0000    292.8800
     37     48     49   1    107.0000   1046.0000
     48     49     50   1    109.5000    418.4000
     48     49     63   1    109.5000    292.8800
     48     49     64   1    109.5000    292.8800
     50     49     63   1    110.7000    313.8000
     50     49     64   1    110.7000    313.8000
     63     49     64   1    107.8000    276.1440
     49     50     51   1    109.5000    418.4000
     49     50     65   1    110.7000    313.8000
     49     50     66   1    110.7000    313.8000
     51     50     65   1    109.5000    292.8800
     51     50     66   1    109.5000    292.8800
     65     50     66   1    107.8000    276.1440
     50     51     52   1    116.9000    694.5440
     51     52     53   1    123.4000    694.5440
     51     52     54   1    111.4000    677.8080
     53     52     54   1    123.7840    627.6000
     52     54     55   1    119.5260    502.0800
     52     54     62   1    119.5260    502.0800
     55     54     62   1    120.0000    527.1840
     54     55     56   1    120.0000    527.1840
     54     55     67   1    120.0000    292.8800
     56     55     67   1    120.0000    292.8800
     55     56     57   1    120.0000    527.1840
     55     56     68   1    120.0000    292.8800
     57     56     68   1    120.0000    292.8800
     56     57     58   1    119.5260    502.0800
     56     57     61   1    120.0000    527.1840
     58     57     61   1    119.5260    502.0800
     57     58     59   1    123.7840    627.6000
     57     58     60   1    111.4000    677.8080
     59     58     60   1    123.4000    694.5440
     58     60     71   1    112.0000   1004.1600
     57     61     62   1    120.0000    527.1840
     57     61     69   1    120.0000    292.8800
     62     61     69   1    120.0000    292.8800
     54     62     61   1    120.0000    527.1840
     54     62     70   1    120.0000    292.8800
     61     62     70   1    120.0000    292.8800
     60     71     72   1    107.0000   1046.0000
     71     72     73   1    109.5000    418.4000
     71     72     86   1    109.5000    292.8800
     71     72     87   1    109.5000    292.8800
     73     72     86   1    110.7000    313.8000
     73     72     87   1    110.7000    313.8000
     86     72     87   1    107.8000    276.1440
     72     73     74   1    109.5000    418.4000
     72     73     88   1    110.7000    313.8000
     72     73     89   1    110.7000    313.8000
     74     73     88   1    109.5000    292.8800
     74     73     89   1    109.5000    292.8800
     88     73     89   1    107.8000    276.1440
     73     74     75   1    116.9000    694.5440
     74     75     76   1    123.4000    694.5440
     74     75     77   1    111.4000    677.8080
     76     75     77   1    123.7840    627.6000
     75     77     78   1    119.5260    502.0800
     75     77     85   1    119.5260    502.0800
     78     77     85   1    120.0000    527.1840
     77     78     79   1    120.0000    527.1840
     77     78     90   1    120.0000    292.8800
     79     78     90   1    120.0000    292.8800
     78     79     80   1    120.0000    527.1840
     78     79     91   1    120.0000    292.8800
     80     79     91   1    120.0000    292.8800
     79     80     81   1    119.5260    502.0800
     79     80     84   1    120.0000    527.1840
     81     80     84   1    119.5260    502.0800
     80     81     82   1    123.7840    627.6000
     80     81     83   1    111.4000    677.8080
     82     81     83   1    123.4000    694.5440
     81     83     94   1    112.0000   1004.1600
     80     84     85   1    120.0000    527.1840
     80     84     92   1    120.0000    292.8800
     85     84     92   1    120.0000    292.8800
     77     85     84   1    120.0000    527.1840
     77     85     93   1    120.0000    292.8800
     84     85     93   1    120.0000    292.8800
     83     94     95   1    107.0000   1046.0000
     94     95     96   1    109.5000    418.4000
     94     95    109   1    109.5000    292.8800
     94     95    110   1    109.5000    292.8800
     96     95    109   1    110.7000    313.8000
     96     95    110   1    110.7000    313.8000
    109     95    110   1    107.8000    276.1440
     95     96     97   1    109.5000    418.4000
     95     96    111   1    110.7000    313.8000
     95     96    112   1    110.7000    313.8000
     97     96    111   1    109.5000    292.8800
     97     96    112   1    109.5000    292.8800
    111     96    112   1    107.8000    276.1440
     96     97     98   1    116.9000    694.5440
     97     98     99   1    123.4000    694.5440
     97     98    100   1    111.4000    677.8080
     99     98    100   1    123.7840    627.6000
     98    100    101   1    119.5260    502.0800
     98    100    108   1    119.5260    502.0800
    101    100    108   1    120.0000    527.1840
    100    101    102   1    120.0000    527.1840
    100    101    113   1    120.0000    292.8800
    102    101    113   1    120.0000    292.8800
    101    102    103   1    120.0000    527.1840
    101    102    114   1    120.0000    292.8800
    103    102    114   1    120.0000    292.8800
    102    103    104   1    119.5260    502.0800
    102    103    107   1    120.0000    527.1840
    104    103    107   1    119.5260    502.0800
    103    104    105   1    123.7840    627.6000
    103    104    106   1    111.4000    677.8080
    105    104    106   1    123.4000    694.5440
    104    106    117   1    112.0000   1004.1600
    103    107    108   1    120.0000    527.1840
    103    107    115   1    120.0000    292.8800
    108    107    115   1    120.0000    292.8800
    100    108    107   1    120.0000    527.1840
    100    108    116   1    120.0000    292.8800
    107    108    116   1    120.0000    292.8800
    106    117    118   1    107.0000   1046.0000
    117    118    119   1    109.5000    418.4000
    117    118    132   1    109.5000    292.8800
    117    118    133   1    109.5000    292.8800
    119    118    132   1    110.7000    313.8000
    119    118    133   1    110.7000    313.8000
    132    118    133   1    107.8000    276.1440
    118    119    120   1    109.5000    418.4000
    118    119    134   1    110.7000    313.8000
    118    119    135   1    110.7000    313.8000
    120    119    134   1    109.5000    292.8800
    120    119    135   1    109.5000    292.8800
    134    119    135   1    107.8000    276.1440
    119    120    121   1    116.9000    694.5440
    120    121    122   1    123.4000    694.5440
    120    121    123   1    111.4000    677.8080
    122    121    123   1    123.7840    627.6000
    121    123    124   1    119.5260    502.0800
    121    123    131   1    119.5260    502.0800
    124    123    131   1    120.0000    527.1840
    123    124    125   1    120.0000    527.1840
    123    124    136   1    120.0000    292.8800
    125    124    136   1    120.0000    292.8800
    124    125    126   1    120.0000    527.1840
    124    125    137   1    120.0000    292.8800
    126    125    137   1    120.0000    292.8800
    125    126    127   1    119.5260    502.0800
    125    126    130   1    120.0000    527.1840
    127    126    130   1    119.5260    502.0800
    126    127    128   1    123.7840    627.6000
    126    127    129   1    111.4000    677.8080
    128    127    129   1    123.4000    694.5440
    127    129    140   1    112.0000   1004.1600
    126    130    131   1    120.0000    527.1840
    126    130    138   1    120.0000    292.8800
    131    130    138   1    120.0000    292.8800
    123    131    130   1    120.0000    527.1840
    123    131    139   1    120.0000    292.8800
    130    131    139   1    120.0000    292.8800
    129    140    141   1    107.0000   1046.0000
    140    141    142   1    109.5000    418.4000
    140    141    155   1    109.5000    292.8800
    140    141    156   1    109.5000    292.8800
    142    141    155   1    110.7000    313.8000
    142    141    156   1    110.7000    313.8000
    155    141    156   1    107.8000    276.1440
    141    142    143   1    109.5000    418.4000
    141    142    157   1    110.7000    313.8000
    141    142    158   1    110.7000    313.8000
    143    142    157   1    109.5000    292.8800
    143    142    158   1    109.5000    292.8800
    157    142    158   1    107.8000    276.1440
    142    143    144   1    116.9000    694.5440
    143    144    145   1    123.4000    694.5440
    143    144    146   1    111.4000    677.8080
    145    144    146   1    123.7840    627.6000
    144    146    147   1    119.5260    502.0800
    144    146    154   1    119.5260    502.0800
    147    146    154   1    120.0000    527.1840
    146    147    148   1    120.0000    527.1840
    146    147    159   1    120.0000    292.8800
    148    147    159   1    120.0000    292.8800
    147    148    149   1    120.0000    527.1840
    147    148    160   1    120.0000    292.8800
    149    148    160   1    120.0000    292.8800
    148    149    150   1    119.5260    502.0800
    148    149    153   1    120.0000    527.1840
    150    149    153   1    119.5260    502.0800
    149    150    151   1    123.7840    627.6000
    149    150    152   1    111.4000    677.8080
    151    150    152   1    123.4000    694.5440
    150    152    163   1    112.0000   1004.1600
    149    153    154   1    120.0000    527.1840
    149    153    161   1    120.0000    292.8800
    154    153    161   1    120.0000    292.8800
    146    154    153   1    120.0000    527.1840
    146    154    162   1    120.0000    292.8800
    153    154    162   1    120.0000    292.8800
    152    163    164   1    107.0000   1046.0000
    163    164    165   1    109.5000    418.4000
    163    164    178   1    109.5000    292.8800
    163    164    179   1    109.5000    292.8800
    165    164    178   1    110.7000    313.8000
    165    164    179   1    110.7000    313.8000
    178    164    179   1    107.8000    276.1440
    164    165    166   1    109.5000    418.4000
    164    165    180   1    110.7000    313.8000
    164    165    181   1    110.7000    313.8000
    166    165    180   1    109.5000    292.8800
    166    165    181   1    109.5000    292.8800
    180    165    181   1    107.8000    276.1440
    165    166    167   1    116.9000    694.5440
    166    167    168   1    123.4000    694.5440
    166    167    169   1    111.4000    677.8080
    168    167    169   1    123.7840    627.6000
    167    169    170   1    119.5260    502.0800
    167    169    177   1    119.5260    502.0800
    170    169    177   1    120.0000    527.1840
    169    170    171   1    120.0000    527.1840
    169    170    182   1    120.0000    292.8800
    171    170    182   1    120.0000    292.8800
    170    171    172   1    120.0000    527.1840
    170    171    183   1    120.0000    292.8800
    172    171    183   1    120.0000    292.8800
    171    172    173   1    119.5260    502.0800
    171    172    176   1    120.0000    527.1840
    173    172    176   1    119.5260    502.0800
    172    173    174   1    123.7840    627.6000
    172    173    175   1    111.4000    677.8080
    174    173    175   1    123.4000    694.5440
    173    175    186   1    112.0000   1004.1600
    172    176    177   1    120.0000    527.1840
    172    176    184   1    120.0000    292.8800
    177    176    184   1    120.0000    292.8800
    169    177    176   1    120.0000    527.1840
    169    177    185   1    120.0000    292.8800
    176    177    185   1    120.0000    292.8800
    175    186    187   1    107.0000   1046.0000
    186    187    188   1    109.5000    418.4000
    186    187    201   1    109.5000    292.8800
    186    187    202   1    109.5000    292.8800
    188    187    201   1    110.7000    313.8000
    188    187    202   1    110.7000    313.8000
    201    187    202   1    107.8000    276.1440
    187    188    189   1    109.5000    418.4000
    187    188    203   1    110.7000    313.8000
    187    188    204   1    110.7000    313.8000
    189    188    203   1    109.5000    292.8800
    189    188    204   1    109.5000    292.8800
    203    188    204   1    107.8000    276.1440
    188    189    190   1    116.9000    694.5440
    189    190    191   1    123.4000    694.5440
    189    190    192   1    111.4000    677.8080
    191    190    192   1    123.7840    627.6000
    190    192    193   1    119.5260    502.0800
    190    192    200   1    119.5260    502.0800
    193    192    200   1    120.0000    527.1840
    192    193    194   1    120.0000    527.1840
    192    193    205   1    120.0000    292.8800
    194    193    205   1    120.0000    292.8800
    193    194    195   1    120.0000    527.1840
    193    194    206   1    120.0000    292.8800
    195    194    206   1    120.0000    292.8800
    194    195    196   1    119.5260    502.0800
    194    195    199   1    120.0000    527.1840
    196    195    199   1    119.5260    502.0800
    195    196    197   1    123.7840    627.6000
    195    196    198   1    111.4000    677.8080
    197    196    198   1    123.4000    694.5440
    196    198    209   1    112.0000   1004.1600
    195    199    200   1    120.0000    527.1840
    195    199    207   1    120.0000    292.8800
    200    199    207   1    120.0000    292.8800
    192    200    199   1    120.0000    527.1840
    192    200    208   1    120.0000    292.8800
    199    200    208   1    120.0000    292.8800
    198    209    210   1    107.0000   1046.0000
    209    210    211   1    109.5000    418.4000
    209    210    224   1    109.5000    292.8800
    209    210    225   1    109.5000    292.8800
    211    210    224   1    110.7000    313.8000
    211    210    225   1    110.7000    313.8000
    224    210    225   1    107.8000    276.1440
    210    211    212   1    109.5000    418.4000
    210    211    226   1    110.7000    313.8000
    210    211    227   1    110.7000    313.8000
    212    211    226   1    109.5000    292.8800
    212    211    227   1    109.5000    292.8800
    226    211    227   1    107.8000    276.1440
    211    212    213   1    116.9000    694.5440
    212    213    214   1    123.4000    694.5440
    212    213    215   1    111.4000    677.8080
    214    213    215   1    123.7840    627.6000
    213    215    216   1    119.5260    502.0800
    213    215    223   1    119.5260    502.0800
    216    215    223   1    120.0000    527.1840
    215    216    217   1    120.0000    527.1840
    215    216    228   1    120.0000    292.8800
    217    216    228   1    120.0000    292.8800
    216    217    218   1    120.0000    527.1840
    216    217    229   1    120.0000    292.8800
    218    217    229   1    120.0000    292.8800
    217    218    219   1    119.5260    502.0800
    217    218    222   1    120.0000    527.1840
    219    218    222   1    119.5260    502.0800
    218    219    220   1    123.7840    627.6000
    218    219    221   1    111.4000    677.8080
    220    219    221   1    123.4000    694.5440
    219    221    232   1    112.0000   1004.1600
    218    222    223   1    120.0000    527.1840
    218    222    230   1    120.0000    292.8800
    223    222    230   1    120.0000    292.8800
    215    223    222   1    120.0000    527.1840
    215    223    231   1    120.0000    292.8800
    222    223    231   1    120.0000    292.8800
    221    232    233   1    107.0000   1046.0000
    232    233    234   1    109.5000    418.4000
    232    233    247   1    109.5000    292.8800
    232    233    248   1    109.5000    292.8800
    234    233    247   1    110.7000    313.8000
    234    233    248   1    110.7000    313.8000
    247    233    248   1    107.8000    276.1440
    233    234    235   1    109.5000    418.4000
    233    234    249   1    110.7000    313.8000
    233    234    250   1    110.7000    313.8000
    235    234    249   1    109.5000    292.8800
    235    234    250   1    109.5000    292.8800
    249    234    250   1    107.8000    276.1440
    234    235    236   1    116.9000    694.5440
    235    236    237   1    123.4000    694.5440
    235    236    238   1    111.4000    677.8080
    237    236    238   1    123.7840    627.6000
    236    238    239   1    119.5260    502.0800
    236    238    246   1    119.5260    502.0800
    239    238    246   1    120.0000    527.1840
    238    239    240   1    120.0000    527.1840
    238    239    251   1    120.0000    292.8800
    240    239    251   1    120.0000    292.8800
    239    240    241   1    120.0000    527.1840
    239    240    252   1    120.0000    292.8800
    241    240    252   1    120.0000    292.8800
    240    241    242   1    119.5260    502.0800
    240    241    245   1    120.0000    527.1840
    242    241    245   1    119.5260    502.0800
    241    242    243   1    123.7840    627.6000
    241    242    244   1    111.4000    677.8080
    243    242    244   1    123.4000    694.5440
    242    244    255   1    112.0000   1004.1600
    241    245    246   1    120.0000    527.1840
    241    245    253   1    120.0000    292.8800
    246    245    253   1    120.0000    292.8800
    238    246    245   1    120.0000    527.1840
    238    246    254   1    120.0000    292.8800
    245    246    254   1    120.0000    292.8800
    244    255    256   1    107.0000   1046.0000
    255    256    257   1    109.5000    418.4000
    255    256    270   1    109.5000    292.8800
    255    256    271   1    109.5000    292.8800
    257    256    270   1    110.7000    313.8000
    257    256    271   1    110.7000    313.8000
    270    256    271   1    107.8000    276.1440
    256    257    258   1    109.5000    418.4000
    256    257    272   1    110.7000    313.8000
    256    257    273   1    110.7000    313.8000
    258    257    272   1    109.5000    292.8800
    258    257    273   1    109.5000    292.8800
    272    257    273   1    107.8000    276.1440
    257    258    259   1    116.9000    694.5440
    258    259    260   1    123.4000    694.5440
    258    259    261   1    111.4000    677.8080
    260    259    261   1    123.7840    627.6000
    259    261    262   1    119.5260    502.0800
    259    261    269   1    119.5260    502.0800
    262    261    269   1    120.0000    527.1840
    261    262    263   1    120.0000    527.1840
    261    262    274   1    120.0000    292.8800
    263    262    274   1    120.0000    292.8800
    262    263    264   1    120.0000    527.1840
    262    263    275   1    120.0000    292.8800
    264    263    275   1    120.0000    292.8800
    263    264    265   1    119.5260    502.0800
    263    264    268   1    120.0000    527.1840
    265    264    268   1    119.5260    502.0800
    264    265    266   1    123.7840    627.6000
    264    265    267   1    111.4000    677.8080
    266    265    267   1    123.4000    694.5440
    265    267    278   1    112.0000   1004.1600
    264    268    269   1    120.0000    527.1840
    264    268    276   1    120.0000    292.8800
    269    268    276   1    120.0000    292.8800
    261    269    268   1    120.0000    527.1840
    261    269    277   1    120.0000    292.8800
    268    269    277   1    120.0000    292.8800
    267    278    279   1    107.0000   1046.0000
    278    279    280   1    109.5000    418.4000
    278    279    293   1    109.5000    292.8800
    278    279    294   1    109.5000    292.8800
    280    279    293   1    110.7000    313.8000
    280    279    294   1    110.7000    313.8000
    293    279    294   1    107.8000    276.1440
    279    280    281   1    109.5000    418.4000
    279    280    295   1    110.7000    313.8000
    279    280    296   1    110.7000    313.8000
    281    280    295   1    109.5000    292.8800
    281    280    296   1    109.5000    292.8800
    295    280    296   1    107.8000    276.1440
    280    281    282   1    116.9000    694.5440
    281    282    283   1    123.4000    694.5440
    281    282    284   1    111.4000    677.8080
    283    282    284   1    123.7840    627.6000
    282    284    285   1    119.5260    502.0800
    282    284    292   1    119.5260    502.0800
    285    284    292   1    120.0000    527.1840
    284    285    286   1    120.0000    527.1840
    284    285    297   1    120.0000    292.8800
    286    285    297   1    120.0000    292.8800
    285    286    287   1    120.0000    527.1840
    285    286    298   1    120.0000    292.8800
    287    286    298   1    120.0000    292.8800
    286    287    288   1    119.5260    502.0800
    286    287    291   1    120.0000    527.1840
    288    287    291   1    119.5260    502.0800
    287    288    289   1    123.7840    627.6000
    287    288    290   1    111.4000    677.8080
    289    288    290   1    123.4000    694.5440
    288    290    301   1    112.0000   1004.1600
    287    291    292   1    120.0000    527.1840
    287    291    299   1    120.0000    292.8800
    292    291    299   1    120.0000    292.8800
    284    292    291   1    120.0000    527.1840
    284    292    300   1    120.0000    292.8800
    291    292    300   1    120.0000    292.8800
    290    301    302   1    107.0000   1046.0000
    301    302    303   1    109.5000    418.4000
    301    302    316   1    109.5000    292.8800
    301    302    317   1    109.5000    292.8800
    303    302    316   1    110.7000    313.8000
    303    302    317   1    110.7000    313.8000
    316    302    317   1    107.8000    276.1440
    302    303    304   1    109.5000    418.4000
    302    303    318   1    110.7000    313.8000
    302    303    319   1    110.7000    313.8000
    304    303    318   1    109.5000    292.8800
    304    303    319   1    109.5000    292.8800
    318    303    319   1    107.8000    276.1440
    303    304    305   1    116.9000    694.5440
    304    305    306   1    123.4000    694.5440
    304    305    307   1    111.4000    677.8080
    306    305    307   1    123.7840    627.6000
    305    307    308   1    119.5260    502.0800
    305    307    315   1    119.5260    502.0800
    308    307    315   1    120.0000    527.1840
    307    308    309   1    120.0000    527.1840
    307    308    320   1    120.0000    292.8800
    309    308    320   1    120.0000    292.8800
    308    309    310   1    120.0000    527.1840
    308    309    321   1    120.0000    292.8800
    310    309    321   1    120.0000    292.8800
    309    310    311   1    119.5260    502.0800
    309    310    314   1    120.0000    527.1840
    311    310    314   1    119.5260    502.0800
    310    311    312   1    123.7840    627.6000
    310    311    313   1    111.4000    677.8080
    312    311    313   1    123.4000    694.5440
    311    313    324   1    112.0000   1004.1600
    310    314    315   1    120.0000    527.1840
    310    314    322   1    120.0000    292.8800
    315    314    322   1    120.0000    292.8800
    307    315    314   1    120.0000    527.1840
    307    315    323   1    120.0000    292.8800
    314    315    323   1    120.0000    292.8800
    313    324    325   1    107.0000   1046.0000
    324    325    326   1    109.5000    418.4000
    324    325    339   1    109.5000    292.8800
    324    325    340   1    109.5000    292.8800
    326    325    339   1    110.7000    313.8000
    326    325    340   1    110.7000    313.8000
    339    325    340   1    107.8000    276.1440
    325    326    327   1    109.5000    418.4000
    325    326    341   1    110.7000    313.8000
    325    326    342   1    110.7000    313.8000
    327    326    341   1    109.5000    292.8800
    327    326    342   1    109.5000    292.8800
    341    326    342   1    107.8000    276.1440
    326    327    328   1    116.9000    694.5440
    327    328    329   1    123.4000    694.5440
    327    328    330   1    111.4000    677.8080
    329    328    330   1    123.7840    627.6000
    328    330    331   1    119.5260    502.0800
    328    330    338   1    119.5260    502.0800
    331    330    338   1    120.0000    527.1840
    330    331    332   1    120.0000    527.1840
    330    331    343   1    120.0000    292.8800
    332    331    343   1    120.0000    292.8800
    331    332    333   1    120.0000    527.1840
    331    332    344   1    120.0000    292.8800
    333    332    344   1    120.0000    292.8800
    332    333    334   1    119.5260    502.0800
    332    333    337   1    120.0000    527.1840
    334    333    337   1    119.5260    502.0800
    333    334    335   1    123.7840    627.6000
    333    334    336   1    111.4000    677.8080
    335    334    336   1    123.4000    694.5440
    334    336    347   1    112.0000   1004.1600
    333    337    338   1    120.0000    527.1840
    333    337    345   1    120.0000    292.8800
    338    337    345   1    120.0000    292.8800
    330    338    337   1    120.0000    527.1840
    330    338    346   1    120.0000    292.8800
    337    338    346   1    120.0000    292.8800
    336    347    348   1    107.0000   1046.0000
    347    348    349   1    109.5000    418.4000
    347    348    362   1    109.5000    292.8800
    347    348    363   1    109.5000    292.8800
    349    348    362   1    110.7000    313.8000
    349    348    363   1    110.7000    313.8000
    362    348    363   1    107.8000    276.1440
    348    349    350   1    109.5000    418.4000
    348    349    364   1    110.7000    313.8000
    348    349    365   1    110.7000    313.8000
    350    349    364   1    109.5000    292.8800
    350    349    365   1    109.5000    292.8800
    364    349    365   1    107.8000    276.1440
    349    350    351   1    116.9000    694.5440
    350    351    352   1    123.4000    694.5440
    350    351    353   1    111.4000    677.8080
    352    351    353   1    123.7840    627.6000
    351    353    354   1    119.5260    502.0800
    351    353    361   1    119.5260    502.0800
    354    353    361   1    120.0000    527.1840
    353    354    355   1    120.0000    527.1840
    353    354    366   1    120.0000    292.8800
    355    354    366   1    120.0000    292.8800
    354    355    356   1    120.0000    527.1840
    354    355    367   1    120.0000    292.8800
    356    355    367   1    120.0000    292.8800
    355    356    357   1    119.5260    502.0800
    355    356    360   1    120.0000    527.1840
    357    356    360   1    119.5260    502.0800
    356    357    358   1    123.7840    627.6000
    356    357    359   1    111.4000    677.8080
    358    357    359   1    123.4000    694.5440
    357    359    370   1    112.0000   1004.1600
    356    360    361   1    120.0000    527.1840
    356    360    368   1    120.0000    292.8800
    361    360    368   1    120.0000    292.8800
    353    361    360   1    120.0000    527.1840
    353    361    369   1    120.0000    292.8800
    360    361    369   1    120.0000    292.8800
    359    370    371   1    107.0000   1046.0000
    370    371    372   1    109.5000    418.4000
    370    371    385   1    109.5000    292.8800
    370    371    386   1    109.5000    292.8800
    372    371    385   1    110.7000    313.8000
    372    371    386   1    110.7000    313.8000
    385    371    386   1    107.8000    276.1440
    371    372    373   1    109.5000    418.4000
    371    372    387   1    110.7000    313.8000
    371    372    388   1    110.7000    313.8000
    373    372    387   1    109.5000    292.8800
    373    372    388   1    109.5000    292.8800
    387    372    388   1    107.8000    276.1440
    372    373    374   1    116.9000    694.5440
    373    374    375   1    123.4000    694.5440
    373    374    376   1    111.4000    677.8080
    375    374    376   1    123.7840    627.6000
    374    376    377   1    119.5260    502.0800
    374    376    384   1    119.5260    502.0800
    377    376    384   1    120.0000    527.1840
    376    377    378   1    120.0000    527.1840
    376    377    389   1    120.0000    292.8800
    378    377    389   1    120.0000    292.8800
    377    378    379   1    120.0000    527.1840
    377    378    390   1    120.0000    292.8800
    379    378    390   1    120.0000    292.8800
    378    379    380   1    119.5260    502.0800
    378    379    383   1    120.0000    527.1840
    380    379    383   1    119.5260    502.0800
    379    380    381   1    123.7840    627.6000
    379    380    382   1    111.4000    677.8080
    381    380    382   1    123.4000    694.5440
    380    382    393   1    112.0000   1004.1600
    379    383    384   1    120.0000    527.1840
    379    383    391   1    120.0000    292.8800
    384    383    391   1    120.0000    292.8800
    376    384    383   1    120.0000    527.1840
    376    384    392   1    120.0000    292.8800
    383    384    392   1    120.0000    292.8800
    382    393    394   1    107.0000   1046.0000
    393    394    395   1    109.5000    418.4000
    393    394    408   1    109.5000    292.8800
    393    394    409   1    109.5000    292.8800
    395    394    408   1    110.7000    313.8000
    395    394    409   1    110.7000    313.8000
    408    394    409   1    107.8000    276.1440
    394    395    396   1    109.5000    418.4000
    394    395    410   1    110.7000    313.8000
    394    395    411   1    110.7000    313.8000
    396    395    410   1    109.5000    292.8800
    396    395    411   1    109.5000    292.8800
    410    395    411   1    107.8000    276.1440
    395    396    397   1    116.9000    694.5440
    396    397    398   1    123.4000    694.5440
    396    397    399   1    111.4000    677.8080
    398    397    399   1    123.7840    627.6000
    397    399    400   1    119.5260    502.0800
    397    399    407   1    119.5260    502.0800
    400    399    407   1    120.0000    527.1840
    399    400    401   1    120.0000    527.1840
    399    400    412   1    120.0000    292.8800
    401    400    412   1    120.0000    292.8800
    400    401    402   1    120.0000    527.1840
    400    401    413   1    120.0000    292.8800
    402    401    413   1    120.0000    292.8800
    401    402    403   1    119.5260    502.0800
    401    402    406   1    120.0000    527.1840
    403    402    406   1    119.5260    502.0800
    402    403    404   1    123.7840    627.6000
    402    403    405   1    111.4000    677.8080
    404    403    405   1    123.4000    694.5440
    403    405    416   1    112.0000   1004.1600
    402    406    407   1    120.0000    527.1840
    402    406    414   1    120.0000    292.8800
    407    406    414   1    120.0000    292.8800
    399    407    406   1    120.0000    527.1840
    399    407    415   1    120.0000    292.8800
    406    407    415   1    120.0000    292.8800
    405    416    417   1    107.0000   1046.0000
    416    417    418   1    109.5000    418.4000
    416    417    431   1    109.5000    292.8800
    416    417    432   1    109.5000    292.8800
    418    417    431   1    110.7000    313.8000
    418    417    432   1    110.7000    313.8000
    431    417    432   1    107.8000    276.1440
    417    418    419   1    109.5000    418.4000
    417    418    433   1    110.7000    313.8000
    417    418    434   1    110.7000    313.8000
    419    418    433   1    109.5000    292.8800
    419    418    434   1    109.5000    292.8800
    433    418    434   1    107.8000    276.1440
    418    419    420   1    116.9000    694.5440
    419    420    421   1    123.4000    694.5440
    419    420    422   1    111.4000    677.8080
    421    420    422   1    123.7840    627.6000
    420    422    423   1    119.5260    502.0800
    420    422    430   1    119.5260    502.0800
    423    422    430   1    120.0000    527.1840
    422    423    424   1    120.0000    527.1840
    422    423    435   1    120.0000    292.8800
    424    423    435   1    120.0000    292.8800
    423    424    425   1    120.0000    527.1840
    423    424    436   1    120.0000    292.8800
    425    424    436   1    120.0000    292.8800
    424    425    426   1    119.5260    502.0800
    424    425    429   1    120.0000    527.1840
    426    425    429   1    119.5260    502.0800
    425    426    427   1    123.7840    627.6000
    425    426    428   1    111.4000    677.8080
    427    426    428   1    123.4000    694.5440
    426    428    439   1    112.0000   1004.1600
    425    429    430   1    120.0000    527.1840
    425    429    437   1    120.0000    292.8800
    430    429    437   1    120.0000    292.8800
    422    430    429   1    120.0000    527.1840
    422    430    438   1    120.0000    292.8800
    429    430    438   1    120.0000    292.8800
    428    439    440   1    107.0000   1046.0000
    439    440    441   1    109.5000    418.4000
    439    440    454   1    109.5000    292.8800
    439    440    455   1    109.5000    292.8800
    441    440    454   1    110.7000    313.8000
    441    440    455   1    110.7000    313.8000
    454    440    455   1    107.8000    276.1440
    440    441    442   1    109.5000    418.4000
    440    441    456   1    110.7000    313.8000
    440    441    457   1    110.7000    313.8000
    442    441    456   1    109.5000    292.8800
    442    441    457   1    109.5000    292.8800
    456    441    457   1    107.8000    276.1440
    441    442    443   1    116.9000    694.5440
    442    443    444   1    123.4000    694.5440
    442    443    445   1    111.4000    677.8080
    444    443    445   1    123.7840    627.6000
    443    445    446   1    119.5260    502.0800
    443    445    453   1    119.5260    502.0800
    446    445    453   1    120.0000    527.1840
    445    446    447   1    120.0000    527.1840
    445    446    458   1    120.0000    292.8800
    447    446    458   1    120.0000    292.8800
    446    447    448   1    120.0000    527.1840
    446    447    459   1    120.0000    292.8800
    448    447    459   1    120.0000    292.8800
    447    448    449   1    120.0000    711.2800
    447    448    452   1    120.0000    527.1840
    449    448    452   1    120.0000    711.2800
    448    449    450   1    120.4000    669.4400
    448    449    451   1    111.8800    711.2800
    450    449    451   1    123.3200    836.8000
    449    451    462   1    113.0000    292.8800
    448    452    453   1    120.0000    527.1840
    448    452    460   1    120.0000    292.8800
    453    452    460   1    120.0000    292.8800
    445    453    452   1    120.0000    527.1840
    445    453    461   1    120.0000    292.8800
    452    453    461   1    120.0000    292.8800

[ dihedrals ]
; Proper dihedrals
     24      1      2      3   5    -0.97069    -0.79078     1.77820  0.0
     24      1      2     16   5     0.00000     0.00000     1.62758  0.0
     24      1      2     17   5     0.00000     0.00000     1.62758  0.0
      1      2      3      4   5    30.90721   -15.30926     0.00000  0.0
      1      2      3     18   5     0.00000     0.00000     1.95811  0.0
      1      2      3     19   5     0.00000     0.00000     1.95811  0.0
     16      2      3      4   5     0.00000     0.00000     1.95811  0.0
     16      2      3     18   5     0.00000     0.00000     1.25520  0.0
     16      2      3     19   5     0.00000     0.00000     1.25520  0.0
     17      2      3      4   5     0.00000     0.00000     1.95811  0.0
     17      2      3     18   5     0.00000     0.00000     1.25520  0.0
     17      2      3     19   5     0.00000     0.00000     1.25520  0.0
      2      3      4      5   5    -2.16731    -3.93296     0.98324  0.0
     18      3      4      5   5     0.00000     0.00000     0.67362  0.0
     19      3      4      5   5     0.00000     0.00000     0.67362  0.0
      3      4      5      6   5     0.00000    25.10400     0.00000  0.0
      3      4      5      7   5     5.01662    27.18345     0.00000  0.0
      4      5      7      8   5     0.00000     8.26340     0.00000  0.0
      4      5      7     15   5     0.00000     8.26340     0.00000  0.0
      6      5      7      8   5     0.00000     8.78640     0.00000  0.0
      6      5      7     15   5     0.00000     8.78640     0.00000  0.0
      5      7      8      9   5     0.00000    30.33400     0.00000  0.0
      5      7      8     20   5     0.00000    30.33400     0.00000  0.0
     15      7      8      9   5     0.00000    30.33400     0.00000  0.0
     15      7      8     20   5     0.00000    30.33400     0.00000  0.0
      5      7     15     14   5     0.00000    30.33400     0.00000  0.0
      5      7     15     23   5     0.00000    30.33400     0.00000  0.0
      8      7     15     14   5     0.00000    30.33400     0.00000  0.0
      8      7     15     23   5     0.00000    30.33400     0.00000  0.0
      7      8      9     10   5     0.00000    30.33400     0.00000  0.0
      7      8      9     21   5     0.00000    30.33400     0.00000  0.0
     20      8      9     10   5     0.00000    30.33400     0.00000  0.0
     20      8      9     21   5     0.00000    30.33400     0.00000  0.0
      8      9     10     11   5     0.00000    30.33400     0.00000  0.0
      8      9     10     14   5     0.00000    30.33400     0.00000  0.0
     21      9     10     11   5     0.00000    30.33400     0.00000  0.0
     21      9     10     14   5     0.00000    30.33400     0.00000  0.0
      9     10     11     12   5     0.00000     8.78640     0.00000  0.0
      9     10     11     13   5     0.00000     8.26340     0.00000  0.0
     14     10     11     12   5     0.00000     8.78640     0.00000  0.0
     14     10     11     13   5     0.00000     8.26340     0.00000  0.0
      9     10     14     15   5     0.00000    30.33400     0.00000  0.0
      9     10     14     22   5     0.00000    30.33400     0.00000  0.0
     11     10     14     15   5     0.00000    30.33400     0.00000  0.0
     11     10     14     22   5     0.00000    30.33400     0.00000  0.0
     10     11     13     25   5     0.00000    16.73600     0.00000  0.0
     12     11     13     25   5     0.00000    25.10400     0.00000  0.0
     11     13     25     26   5     0.00000   -20.92000     0.00000  0.0
     10     14     15      7   5     0.00000    30.33400     0.00000  0.0
     10     14     15     23   5     0.00000    30.33400     0.00000  0.0
     22     14     15      7   5     0.00000    30.33400     0.00000  0.0
     22     14     15     23   5     0.00000    30.33400     0.00000  0.0
     13     25     26     27   5     0.00000     0.00000     3.13800  0.0
     13     25     26     40   5     0.00000     0.00000     3.13800  0.0
     13     25     26     41   5     0.00000     0.00000     3.13800  0.0
     25     26     27     28   5     9.36379    -9.73617    -2.85767  0.0
     25     26     27     42   5     0.00000     0.00000     1.95811  0.0
     25     26     27     43   5     0.00000     0.00000     1.95811  0.0
     40     26     27     28   5     0.00000     0.00000     1.95811  0.0
     40     26     27     42   5     0.00000     0.00000     1.25520  0.0
     40     26     27     43   5     0.00000     0.00000     1.25520  0.0
     41     26     27     28   5     0.00000     0.00000     1.95811  0.0
     41     26     27     42   5     0.00000     0.00000     1.25520  0.0
     41     26     27     43   5     0.00000     0.00000     1.25520  0.0
     26     27     28     29   5    -2.16731    -3.93296     0.98324  0.0
     42     27     28     29   5     0.00000     0.00000     0.67362  0.0
     43     27     28     29   5     0.00000     0.00000     0.67362  0.0
     27     28     29     30   5     0.00000    25.10400     0.00000  0.0
     27     28     29     31   5     5.01662    27.18345     0.00000  0.0
     28     29     31     32   5     0.00000     8.26340     0.00000  0.0
     28     29     31     39   5     0.00000     8.26340     0.00000  0.0
     30     29     31     32   5     0.00000     8.78640     0.00000  0.0
     30     29     31     39   5     0.00000     8.78640     0.00000  0.0
     29     31     32     33   5     0.00000    30.33400     0.00000  0.0
     29     31     32     44   5     0.00000    30.33400     0.00000  0.0
     39     31     32     33   5     0.00000    30.33400     0.00000  0.0
     39     31     32     44   5     0.00000    30.33400     0.00000  0.0
     29     31     39     38   5     0.00000    30.33400     0.00000  0.0
     29     31     39     47   5     0.00000    30.33400     0.00000  0.0
     32     31     39     38   5     0.00000    30.33400     0.00000  0.0
     32     31     39     47   5     0.00000    30.33400     0.00000  0.0
     31     32     33     34   5     0.00000    30.33400     0.00000  0.0
     31     32     33     45   5     0.00000    30.33400     0.00000  0.0
     44     32     33     34   5     0.00000    30.33400     0.00000  0.0
     44     32     33     45   5     0.00000    30.33400     0.00000  0.0
     32     33     34     35   5     0.00000    30.33400     0.00000  0.0
     32     33     34     38   5     0.00000    30.33400     0.00000  0.0
     45     33     34     35   5     0.00000    30.33400     0.00000  0.0
     45     33     34     38   5     0.00000    30.33400     0.00000  0.0
     33     34     35     36   5     0.00000     8.78640     0.00000  0.0
     33     34     35     37   5     0.00000     8.26340     0.00000  0.0
     38     34     35     36   5     0.00000     8.78640     0.00000  0.0
     38     34     35     37   5     0.00000     8.26340     0.00000  0.0
     33     34     38     39   5     0.00000    30.33400     0.00000  0.0
     33     34     38     46   5     0.00000    30.33400     0.00000  0.0
     35     34     38     39   5     0.00000    30.33400     0.00000  0.0
     35     34     38     46   5     0.00000    30.33400     0.00000  0.0
     34     35     37     48   5     0.00000    16.73600     0.00000  0.0
     36     35     37     48   5     0.00000    25.10400     0.00000  0.0
     35     37     48     49   5     0.00000   -20.92000     0.00000  0.0
     34     38     39     31   5     0.00000    30.33400     0.00000  0.0
     34     38     39     47   5     0.00000    30.33400     0.00000  0.0
     46     38     39     31   5     0.00000    30.33400     0.00000  0.0
     46     38     39     47   5     0.00000    30.33400     0.00000  0.0
     37     48     49     50   5     0.00000     0.00000     3.13800  0.0
     37     48     49     63   5     0.00000     0.00000     3.13800  0.0
     37     48     49     64   5     0.00000     0.00000     3.13800  0.0
     48     49     50     51   5     9.36379    -9.73617    -2.85767  0.0
     48     49     50     65   5     0.00000     0.00000     1.95811  0.0
     48     49     50     66   5     0.00000     0.00000     1.95811  0.0
     63     49     50     51   5     0.00000     0.00000     1.95811  0.0
     63     49     50     65   5     0.00000     0.00000     1.25520  0.0
     63     49     50     66   5     0.00000     0.00000     1.25520  0.0
     64     49     50     51   5     0.00000     0.00000     1.95811  0.0
     64     49     50     65   5     0.00000     0.00000     1.25520  0.0
     64     49     50     66   5     0.00000     0.00000     1.25520  0.0
     49     50     51     52   5    -2.16731    -3.93296     0.98324  0.0
     65     50     51     52   5     0.00000     0.00000     0.67362  0.0
     66     50     51     52   5     0.00000     0.00000     0.67362  0.0
     50     51     52     53   5     0.00000    25.10400     0.00000  0.0
     50     51     52     54   5     5.01662    27.18345     0.00000  0.0
     51     52     54     55   5     0.00000     8.26340     0.00000  0.0
     51     52     54     62   5     0.00000     8.26340     0.00000  0.0
     53     52     54     55   5     0.00000     8.78640     0.00000  0.0
     53     52     54     62   5     0.00000     8.78640     0.00000  0.0
     52     54     55     56   5     0.00000    30.33400     0.00000  0.0
     52     54     55     67   5     0.00000    30.33400     0.00000  0.0
     62     54     55     56   5     0.00000    30.33400     0.00000  0.0
     62     54     55     67   5     0.00000    30.33400     0.00000  0.0
     52     54     62     61   5     0.00000    30.33400     0.00000  0.0
     52     54     62     70   5     0.00000    30.33400     0.00000  0.0
     55     54     62     61   5     0.00000    30.33400     0.00000  0.0
     55     54     62     70   5     0.00000    30.33400     0.00000  0.0
     54     55     56     57   5     0.00000    30.33400     0.00000  0.0
     54     55     56     68   5     0.00000    30.33400     0.00000  0.0
     67     55     56     57   5     0.00000    30.33400     0.00000  0.0
     67     55     56     68   5     0.00000    30.33400     0.00000  0.0
     55     56     57     58   5     0.00000    30.33400     0.00000  0.0
     55     56     57     61   5     0.00000    30.33400     0.00000  0.0
     68     56     57     58   5     0.00000    30.33400     0.00000  0.0
     68     56     57     61   5     0.00000    30.33400     0.00000  0.0
     56     57     58     59   5     0.00000     8.78640     0.00000  0.0
     56     57     58     60   5     0.00000     8.26340     0.00000  0.0
     61     57     58     59   5     0.00000     8.78640     0.00000  0.0
     61     57     58     60   5     0.00000     8.26340     0.00000  0.0
     56     57     61     62   5     0.00000    30.33400     0.00000  0.0
     56     57     61     69   5     0.00000    30.33400     0.00000  0.0
     58     57     61     62   5     0.00000    30.33400     0.00000  0.0
     58     57     61     69   5     0.00000    30.33400     0.00000  0.0
     57     58     60     71   5     0.00000    16.73600     0.00000  0.0
     59     58     60     71   5     0.00000    25.10400     0.00000  0.0
     58     60     71     72   5     0.00000   -20.92000     0.00000  0.0
     57     61     62     54   5     0.00000    30.33400     0.00000  0.0
     57     61     62     70   5     0.00000    30.33400     0.00000  0.0
     69     61     62     54   5     0.00000    30.33400     0.00000  0.0
     69     61     62     70   5     0.00000    30.33400     0.00000  0.0
     60     71     72     73   5     0.00000     0.00000     3.13800  0.0
     60     71     72     86   5     0.00000     0.00000     3.13800  0.0
     60     71     72     87   5     0.00000     0.00000     3.13800  0.0
     71     72     73     74   5     9.36379    -9.73617    -2.85767  0.0
     71     72     73     88   5     0.00000     0.00000     1.95811  0.0
     71     72     73     89   5     0.00000     0.00000     1.95811  0.0
     86     72     73     74   5     0.00000     0.00000     1.95811  0.0
     86     72     73     88   5     0.00000     0.00000     1.25520  0.0
     86     72     73     89   5     0.00000     0.00000     1.25520  0.0
     87     72     73     74   5     0.00000     0.00000     1.95811  0.0
     87     72     73     88   5     0.00000     0.00000     1.25520  0.0
     87     72     73     89   5     0.00000     0.00000     1.25520  0.0
     72     73     74     75   5    -2.16731    -3.93296     0.98324  0.0
     88     73     74     75   5     0.00000     0.00000     0.67362  0.0
     89     73     74     75   5     0.00000     0.00000     0.67362  0.0
     73     74     75     76   5     0.00000    25.10400     0.00000  0.0
     73     74     75     77   5     5.01662    27.18345     0.00000  0.0
     74     75     77     78   5     0.00000     8.26340     0.00000  0.0
     74     75     77     85   5     0.00000     8.26340     0.00000  0.0
     76     75     77     78   5     0.00000     8.78640     0.00000  0.0
     76     75     77     85   5     0.00000     8.78640     0.00000  0.0
     75     77     78     79   5     0.00000    30.33400     0.00000  0.0
     75     77     78     90   5     0.00000    30.33400     0.00000  0.0
     85     77     78     79   5     0.00000    30.33400     0.00000  0.0
     85     77     78     90   5     0.00000    30.33400     0.00000  0.0
     75     77     85     84   5     0.00000    30.33400     0.00000  0.0
     75     77     85     93   5     0.00000    30.33400     0.00000  0.0
     78     77     85     84   5     0.00000    30.33400     0.00000  0.0
     78     77     85     93   5     0.00000    30.33400     0.00000  0.0
     77     78     79     80   5     0.00000    30.33400     0.00000  0.0
     77     78     79     91   5     0.00000    30.33400     0.00000  0.0
     90     78     79     80   5     0.00000    30.33400     0.00000  0.0
     90     78     79     91   5     0.00000    30.33400     0.00000  0.0
     78     79     80     81   5     0.00000    30.33400     0.00000  0.0
     78     79     80     84   5     0.00000    30.33400     0.00000  0.0
     91     79     80     81   5     0.00000    30.33400     0.00000  0.0
     91     79     80     84   5     0.00000    30.33400     0.00000  0.0
     79     80     81     82   5     0.00000     8.78640     0.00000  0.0
     79     80     81     83   5     0.00000     8.26340     0.00000  0.0
     84     80     81     82   5     0.00000     8.78640     0.00000  0.0
     84     80     81     83   5     0.00000     8.26340     0.00000  0.0
     79     80     84     85   5     0.00000    30.33400     0.00000  0.0
     79     80     84     92   5     0.00000    30.33400     0.00000  0.0
     81     80     84     85   5     0.00000    30.33400     0.00000  0.0
     81     80     84     92   5     0.00000    30.33400     0.00000  0.0
     80     81     83     94   5     0.00000    16.73600     0.00000  0.0
     82     81     83     94   5     0.00000    25.10400     0.00000  0.0
     81     83     94     95   5     0.00000   -20.92000     0.00000  0.0
     80     84     85     77   5     0.00000    30.33400     0.00000  0.0
     80     84     85     93   5     0.00000    30.33400     0.00000  0.0
     92     84     85     77   5     0.00000    30.33400     0.00000  0.0
     92     84     85     93   5     0.00000    30.33400     0.00000  0.0
     83     94     95     96   5     0.00000     0.00000     3.13800  0.0
     83     94     95    109   5     0.00000     0.00000     3.13800  0.0
     83     94     95    110   5     0.00000     0.00000     3.13800  0.0
     94     95     96     97   5     9.36379    -9.73617    -2.85767  0.0
     94     95     96    111   5     0.00000     0.00000     1.95811  0.0
     94     95     96    112   5     0.00000     0.00000     1.95811  0.0
    109     95     96     97   5     0.00000     0.00000     1.95811  0.0
    109     95     96    111   5     0.00000     0.00000     1.25520  0.0
    109     95     96    112   5     0.00000     0.00000     1.25520  0.0
    110     95     96     97   5     0.00000     0.00000     1.95811  0.0
    110     95     96    111   5     0.00000     0.00000     1.25520  0.0
    110     95     96    112   5     0.00000     0.00000     1.25520  0.0
     95     96     97     98   5    -2.16731    -3.93296     0.98324  0.0
    111     96     97     98   5     0.00000     0.00000     0.67362  0.0
    112     96     97     98   5     0.00000     0.00000     0.67362  0.0
     96     97     98     99   5     0.00000    25.10400     0.00000  0.0
     96     97     98    100   5     5.01662    27.18345     0.00000  0.0
     97     98    100    101   5     0.00000     8.26340     0.00000  0.0
     97     98    100    108   5     0.00000     8.26340     0.00000  0.0
     99     98    100    101   5     0.00000     8.78640     0.00000  0.0
     99     98    100    108   5     0.00000     8.78640     0.00000  0.0
     98    100    101    102   5     0.00000    30.33400     0.00000  0.0
     98    100    101    113   5     0.00000    30.33400     0.00000  0.0
    108    100    101    102   5     0.00000    30.33400     0.00000  0.0
    108    100    101    113   5     0.00000    30.33400     0.00000  0.0
     98    100    108    107   5     0.00000    30.33400     0.00000  0.0
     98    100    108    116   5     0.00000    30.33400     0.00000  0.0
    101    100    108    107   5     0.00000    30.33400     0.00000  0.0
    101    100    108    116   5     0.00000    30.33400     0.00000  0.0
    100    101    102    103   5     0.00000    30.33400     0.00000  0.0
    100    101    102    114   5     0.00000    30.33400     0.00000  0.0
    113    101    102    103   5     0.00000    30.33400     0.00000  0.0
    113    101    102    114   5     0.00000    30.33400     0.00000  0.0
    101    102    103    104   5     0.00000    30.33400     0.00000  0.0
    101    102    103    107   5     0.00000    30.33400     0.00000  0.0
    114    102    103    104   5     0.00000    30.33400     0.00000  0.0
    114    102    103    107   5     0.00000    30.33400     0.00000  0.0
    102    103    104    105   5     0.00000     8.78640     0.00000  0.0
    102    103    104    106   5     0.00000     8.26340     0.00000  0.0
    107    103    104    105   5     0.00000     8.78640     0.00000  0.0
    107    103    104    106   5     0.00000     8.26340     0.00000  0.0
    102    103    107    108   5     0.00000    30.33400     0.00000  0.0
    102    103    107    115   5     0.00000    30.33400     0.00000  0.0
    104    103    107    108   5     0.00000    30.33400     0.00000  0.0
    104    103    107    115   5     0.00000    30.33400     0.00000  0.0
    103    104    106    117   5     0.00000    16.73600     0.00000  0.0
    105    104    106    117   5     0.00000    25.10400     0.00000  0.0
    104    106    117    118   5     0.00000   -20.92000     0.00000  0.0
    103    107    108    100   5     0.00000    30.33400     0.00000  0.0
    103    107    108    116   5     0.00000    30.33400     0.00000  0.0
    115    107    108    100   5     0.00000    30.33400     0.00000  0.0
    115    107    108    116   5     0.00000    30.33400     0.00000  0.0
    106    117    118    119   5     0.00000     0.00000     3.13800  0.0
    106    117    118    132   5     0.00000     0.00000     3.13800  0.0
    106    117    118    133   5     0.00000     0.00000     3.13800  0.0
    117    118    119    120   5     9.36379    -9.73617    -2.85767  0.0
    117    118    119    134   5     0.00000     0.00000     1.95811  0.0
    117    118    119    135   5     0.00000     0.00000     1.95811  0.0
    132    118    119    120   5     0.00000     0.00000     1.95811  0.0
    132    118    119    134   5     0.00000     0.00000     1.25520  0.0
    132    118    119    135   5     0.00000     0.00000     1.25520  0.0
    133    118    119    120   5     0.00000     0.00000     1.95811  0.0
    133    118    119    134   5     0.00000     0.00000     1.25520  0.0
    133    118    119    135   5     0.00000     0.00000     1.25520  0.0
    118    119    120    121   5    -2.16731    -3.93296     0.98324  0.0
    134    119    120    121   5     0.00000     0.00000     0.67362  0.0
    135    119    120    121   5     0.00000     0.00000     0.67362  0.0
    119    120    121    122   5     0.00000    25.10400     0.00000  0.0
    119    120    121    123   5     5.01662    27.18345     0.00000  0.0
    120    121    123    124   5     0.00000     8.26340     0.00000  0.0
    120    121    123    131   5     0.00000     8.26340     0.00000  0.0
    122    121    123    124   5     0.00000     8.78640     0.00000  0.0
    122    121    123    131   5     0.00000     8.78640     0.00000  0.0
    121    123    124    125   5     0.00000    30.33400     0.00000  0.0
    121    123    124    136   5     0.00000    30.33400     0.00000  0.0
    131    123    124    125   5     0.00000    30.33400     0.00000  0.0
    131    123    124    136   5     0.00000    30.33400     0.00000  0.0
    121    123    131    130   5     0.00000    30.33400     0.00000  0.0
    121    123    131    139   5     0.00000    30.33400     0.00000  0.0
    124    123    131    130   5     0.00000    30.33400     0.00000  0.0
    124    123    131    139   5     0.00000    30.33400     0.00000  0.0
    123    124    125    126   5     0.00000    30.33400     0.00000  0.0
    123    124    125    137   5     0.00000    30.33400     0.00000  0.0
    136    124    125    126   5     0.00000    30.33400     0.00000  0.0
    136    124    125    137   5     0.00000    30.33400     0.00000  0.0
    124    125    126    127   5     0.00000    30.33400     0.00000  0.0
    124    125    126    130   5     0.00000    30.33400     0.00000  0.0
    137    125    126    127   5     0.00000    30.33400     0.00000  0.0
    137    125    126    130   5     0.00000    30.33400     0.00000  0.0
    125    126    127    128   5     0.00000     8.78640     0.00000  0.0
    125    126    127    129   5     0.00000     8.26340     0.00000  0.0
    130    126    127    128   5     0.00000     8.78640     0.00000  0.0
    130    126    127    129   5     0.00000     8.26340     0.00000  0.0
    125    126    130    131   5     0.00000    30.33400     0.00000  0.0
    125    126    130    138   5     0.00000    30.33400     0.00000  0.0
    127    126    130    131   5     0.00000    30.33400     0.00000  0.0
    127    126    130    138   5     0.00000    30.33400     0.00000  0.0
    126    127    129    140   5     0.00000    16.73600     0.00000  0.0
    128    127    129    140   5     0.00000    25.10400     0.00000  0.0
    127    129    140    141   5     0.00000   -20.92000     0.00000  0.0
    126    130    131    123   5     0.00000    30.33400     0.00000  0.0
    126    130    131    139   5     0.00000    30.33400     0.00000  0.0
    138    130    131    123   5     0.00000    30.33400     0.00000  0.0
    138    130    131    139   5     0.00000    30.33400     0.00000  0.0
    129    140    141    142   5     0.00000     0.00000     3.13800  0.0
    129    140    141    155   5     0.00000     0.00000     3.13800  0.0
    129    140    141    156   5     0.00000     0.00000     3.13800  0.0
    140    141    142    143   5     9.36379    -9.73617    -2.85767  0.0
    140    141    142    157   5     0.00000     0.00000     1.95811  0.0
    140    141    142    158   5     0.00000     0.00000     1.95811  0.0
    155    141    142    143   5     0.00000     0.00000     1.95811  0.0
    155    141    142    157   5     0.00000     0.00000     1.25520  0.0
    155    141    142    158   5     0.00000     0.00000     1.25520  0.0
    156    141    142    143   5     0.00000     0.00000     1.95811  0.0
    156    141    142    157   5     0.00000     0.00000     1.25520  0.0
    156    141    142    158   5     0.00000     0.00000     1.25520  0.0
    141    142    143    144   5    -2.16731    -3.93296     0.98324  0.0
    157    142    143    144   5     0.00000     0.00000     0.67362  0.0
    158    142    143    144   5     0.00000     0.00000     0.67362  0.0
    142    143    144    145   5     0.00000    25.10400     0.00000  0.0
    142    143    144    146   5     5.01662    27.18345     0.00000  0.0
    143    144    146    147   5     0.00000     8.26340     0.00000  0.0
    143    144    146    154   5     0.00000     8.26340     0.00000  0.0
    145    144    146    147   5     0.00000     8.78640     0.00000  0.0
    145    144    146    154   5     0.00000     8.78640     0.00000  0.0
    144    146    147    148   5     0.00000    30.33400     0.00000  0.0
    144    146    147    159   5     0.00000    30.33400     0.00000  0.0
    154    146    147    148   5     0.00000    30.33400     0.00000  0.0
    154    146    147    159   5     0.00000    30.33400     0.00000  0.0
    144    146    154    153   5     0.00000    30.33400     0.00000  0.0
    144    146    154    162   5     0.00000    30.33400     0.00000  0.0
    147    146    154    153   5     0.00000    30.33400     0.00000  0.0
    147    146    154    162   5     0.00000    30.33400     0.00000  0.0
    146    147    148    149   5     0.00000    30.33400     0.00000  0.0
    146    147    148    160   5     0.00000    30.33400     0.00000  0.0
    159    147    148    149   5     0.00000    30.33400     0.00000  0.0
    159    147    148    160   5     0.00000    30.33400     0.00000  0.0
    147    148    149    150   5     0.00000    30.33400     0.00000  0.0
    147    148    149    153   5     0.00000    30.33400     0.00000  0.0
    160    148    149    150   5     0.00000    30.33400     0.00000  0.0
    160    148    149    153   5     0.00000    30.33400     0.00000  0.0
    148    149    150    151   5     0.00000     8.78640     0.00000  0.0
    148    149    150    152   5     0.00000     8.26340     0.00000  0.0
    153    149    150    151   5     0.00000     8.78640     0.00000  0.0
    153    149    150    152   5     0.00000     8.26340     0.00000  0.0
    148    149    153    154   5     0.00000    30.33400     0.00000  0.0
    148    149    153    161   5     0.00000    30.33400     0.00000  0.0
    150    149    153    154   5     0.00000    30.33400     0.00000  0.0
    150    149    153    161   5     0.00000    30.33400     0.00000  0.0
    149    150    152    163   5     0.00000    16.73600     0.00000  0.0
    151    150    152    163   5     0.00000    25.10400     0.00000  0.0
    150    152    163    164   5     0.00000   -20.92000     0.00000  0.0
    149    153    154    146   5     0.00000    30.33400     0.00000  0.0
    149    153    154    162   5     0.00000    30.33400     0.00000  0.0
    161    153    154    146   5     0.00000    30.33400     0.00000  0.0
    161    153    154    162   5     0.00000    30.33400     0.00000  0.0
    152    163    164    165   5     0.00000     0.00000     3.13800  0.0
    152    163    164    178   5     0.00000     0.00000     3.13800  0.0
    152    163    164    179   5     0.00000     0.00000     3.13800  0.0
    163    164    165    166   5     9.36379    -9.73617    -2.85767  0.0
    163    164    165    180   5     0.00000     0.00000     1.95811  0.0
    163    164    165    181   5     0.00000     0.00000     1.95811  0.0
    178    164    165    166   5     0.00000     0.00000     1.95811  0.0
    178    164    165    180   5     0.00000     0.00000     1.25520  0.0
    178    164    165    181   5     0.00000     0.00000     1.25520  0.0
    179    164    165    166   5     0.00000     0.00000     1.95811  0.0
    179    164    165    180   5     0.00000     0.00000     1.25520  0.0
    179    164    165    181   5     0.00000     0.00000     1.25520  0.0
    164    165    166    167   5    -2.16731    -3.93296     0.98324  0.0
    180    165    166    167   5     0.00000     0.00000     0.67362  0.0
    181    165    166    167   5     0.00000     0.00000     0.67362  0.0
    165    166    167    168   5     0.00000    25.10400     0.00000  0.0
    165    166    167    169   5     5.01662    27.18345     0.00000  0.0
    166    167    169    170   5     0.00000     8.26340     0.00000  0.0
    166    167    169    177   5     0.00000     8.26340     0.00000  0.0
    168    167    169    170   5     0.00000     8.78640     0.00000  0.0
    168    167    169    177   5     0.00000     8.78640     0.00000  0.0
    167    169    170    171   5     0.00000    30.33400     0.00000  0.0
    167    169    170    182   5     0.00000    30.33400     0.00000  0.0
    177    169    170    171   5     0.00000    30.33400     0.00000  0.0
    177    169    170    182   5     0.00000    30.33400     0.00000  0.0
    167    169    177    176   5     0.00000    30.33400     0.00000  0.0
    167    169    177    185   5     0.00000    30.33400     0.00000  0.0
    170    169    177    176   5     0.00000    30.33400     0.00000  0.0
    170    169    177    185   5     0.00000    30.33400     0.00000  0.0
    169    170    171    172   5     0.00000    30.33400     0.00000  0.0
    169    170    171    183   5     0.00000    30.33400     0.00000  0.0
    182    170    171    172   5     0.00000    30.33400     0.00000  0.0
    182    170    171    183   5     0.00000    30.33400     0.00000  0.0
    170    171    172    173   5     0.00000    30.33400     0.00000  0.0
    170    171    172    176   5     0.00000    30.33400     0.00000  0.0
    183    171    172    173   5     0.00000    30.33400     0.00000  0.0
    183    171    172    176   5     0.00000    30.33400     0.00000  0.0
    171    172    173    174   5     0.00000     8.78640     0.00000  0.0
    171    172    173    175   5     0.00000     8.26340     0.00000  0.0
    176    172    173    174   5     0.00000     8.78640     0.00000  0.0
    176    172    173    175   5     0.00000     8.26340     0.00000  0.0
    171    172    176    177   5     0.00000    30.33400     0.00000  0.0
    171    172    176    184   5     0.00000    30.33400     0.00000  0.0
    173    172    176    177   5     0.00000    30.33400     0.00000  0.0
    173    172    176    184   5     0.00000    30.33400     0.00000  0.0
    172    173    175    186   5     0.00000    16.73600     0.00000  0.0
    174    173    175    186   5     0.00000    25.10400     0.00000  0.0
    173    175    186    187   5     0.00000   -20.92000     0.00000  0.0
    172    176    177    169   5     0.00000    30.33400     0.00000  0.0
    172    176    177    185   5     0.00000    30.33400     0.00000  0.0
    184    176    177    169   5     0.00000    30.33400     0.00000  0.0
    184    176    177    185   5     0.00000    30.33400     0.00000  0.0
    175    186    187    188   5     0.00000     0.00000     3.13800  0.0
    175    186    187    201   5     0.00000     0.00000     3.13800  0.0
    175    186    187    202   5     0.00000     0.00000     3.13800  0.0
    186    187    188    189   5     9.36379    -9.73617    -2.85767  0.0
    186    187    188    203   5     0.00000     0.00000     1.95811  0.0
    186    187    188    204   5     0.00000     0.00000     1.95811  0.0
    201    187    188    189   5     0.00000     0.00000     1.95811  0.0
    201    187    188    203   5     0.00000     0.00000     1.25520  0.0
    201    187    188    204   5     0.00000     0.00000     1.25520  0.0
    202    187    188    189   5     0.00000     0.00000     1.95811  0.0
    202    187    188    203   5     0.00000     0.00000     1.25520  0.0
    202    187    188    204   5     0.00000     0.00000     1.25520  0.0
    187    188    189    190   5    -2.16731    -3.93296     0.98324  0.0
    203    188    189    190   5     0.00000     0.00000     0.67362  0.0
    204    188    189    190   5     0.00000     0.00000     0.67362  0.0
    188    189    190    191   5     0.00000    25.10400     0.00000  0.0
    188    189    190    192   5     5.01662    27.18345     0.00000  0.0
    189    190    192    193   5     0.00000     8.26340     0.00000  0.0
    189    190    192    200   5     0.00000     8.26340     0.00000  0.0
    191    190    192    193   5     0.00000     8.78640     0.00000  0.0
    191    190    192    200   5     0.00000     8.78640     0.00000  0.0
    190    192    193    194   5     0.00000    30.33400     0.00000  0.0
    190    192    193    205   5     0.00000    30.33400     0.00000  0.0
    200    192    193    194   5     0.00000    30.33400     0.00000  0.0
    200    192    193    205   5     0.00000    30.33400     0.00000  0.0
    190    192    200    199   5     0.00000    30.33400     0.00000  0.0
    190    192    200    208   5     0.00000    30.33400     0.00000  0.0
    193    192    200    199   5     0.00000    30.33400     0.00000  0.0
    193    192    200    208   5     0.00000    30.33400     0.00000  0.0
    192    193    194    195   5     0.00000    30.33400     0.00000  0.0
    192    193    194    206   5     0.00000    30.33400     0.00000  0.0
    205    193    194    195   5     0.00000    30.33400     0.00000  0.0
    205    193    194    206   5     0.00000    30.33400     0.00000  0.0
    193    194    195    196   5     0.00000    30.33400     0.00000  0.0
    193    194    195    199   5     0.00000    30.33400     0.00000  0.0
    206    194    195    196   5     0.00000    30.33400     0.00000  0.0
    206    194    195    199   5     0.00000    30.33400     0.00000  0.0
    194    195    196    197   5     0.00000     8.78640     0.00000  0.0
    194    195    196    198   5     0.00000     8.26340     0.00000  0.0
    199    195    196    197   5     0.00000     8.78640     0.00000  0.0
    199    195    196    198   5     0.00000     8.26340     0.00000  0.0
    194    195    199    200   5     0.00000    30.33400     0.00000  0.0
    194    195    199    207   5     0.00000    30.33400     0.00000  0.0
    196    195    199    200   5     0.00000    30.33400     0.00000  0.0
    196    195    199    207   5     0.00000    30.33400     0.00000  0.0
    195    196    198    209   5     0.00000    16.73600     0.00000  0.0
    197    196    198    209   5     0.00000    25.10400     0.00000  0.0
    196    198    209    210   5     0.00000   -20.92000     0.00000  0.0
    195    199    200    192   5     0.00000    30.33400     0.00000  0.0
    195    199    200    208   5     0.00000    30.33400     0.00000  0.0
    207    199    200    192   5     0.00000    30.33400     0.00000  0.0
    207    199    200    208   5     0.00000    30.33400     0.00000  0.0
    198    209    210    211   5     0.00000     0.00000     3.13800  0.0
    198    209    210    224   5     0.00000     0.00000     3.13800  0.0
    198    209    210    225   5     0.00000     0.00000     3.13800  0.0
    209    210    211    212   5     9.36379    -9.73617    -2.85767  0.0
    209    210    211    226   5     0.00000     0.00000     1.95811  0.0
    209    210    211    227   5     0.00000     0.00000     1.95811  0.0
    224    210    211    212   5     0.00000     0.00000     1.95811  0.0
    224    210    211    226   5     0.00000     0.00000     1.25520  0.0
    224    210    211    227   5     0.00000     0.00000     1.25520  0.0
    225    210    211    212   5     0.00000     0.00000     1.95811  0.0
    225    210    211    226   5     0.00000     0.00000     1.25520  0.0
    225    210    211    227   5     0.00000     0.00000     1.25520  0.0
    210    211    212    213   5    -2.16731    -3.93296     0.98324  0.0
    226    211    212    213   5     0.00000     0.00000     0.67362  0.0
    227    211    212    213   5     0.00000     0.00000     0.67362  0.0
    211    212    213    214   5     0.00000    25.10400     0.00000  0.0
    211    212    213    215   5     5.01662    27.18345     0.00000  0.0
    212    213    215    216   5     0.00000     8.26340     0.00000  0.0
    212    213    215    223   5     0.00000     8.26340     0.00000  0.0
    214    213    215    216   5     0.00000     8.78640     0.00000  0.0
    214    213    215    223   5     0.00000     8.78640     0.00000  0.0
    213    215    216    217   5     0.00000    30.33400     0.00000  0.0
    213    215    216    228   5     0.00000    30.33400     0.00000  0.0
    223    215    216    217   5     0.00000    30.33400     0.00000  0.0
    223    215    216    228   5     0.00000    30.33400     0.00000  0.0
    213    215    223    222   5     0.00000    30.33400     0.00000  0.0
    213    215    223    231   5     0.00000    30.33400     0.00000  0.0
    216    215    223    222   5     0.00000    30.33400     0.00000  0.0
    216    215    223    231   5     0.00000    30.33400     0.00000  0.0
    215    216    217    218   5     0.00000    30.33400     0.00000  0.0
    215    216    217    229   5     0.00000    30.33400     0.00000  0.0
    228    216    217    218   5     0.00000    30.33400     0.00000  0.0
    228    216    217    229   5     0.00000    30.33400     0.00000  0.0
    216    217    218    219   5     0.00000    30.33400     0.00000  0.0
    216    217    218    222   5     0.00000    30.33400     0.00000  0.0
    229    217    218    219   5     0.00000    30.33400     0.00000  0.0
    229    217    218    222   5     0.00000    30.33400     0.00000  0.0
    217    218    219    220   5     0.00000     8.78640     0.00000  0.0
    217    218    219    221   5     0.00000     8.26340     0.00000  0.0
    222    218    219    220   5     0.00000     8.78640     0.00000  0.0
    222    218    219    221   5     0.00000     8.26340     0.00000  0.0
    217    218    222    223   5     0.00000    30.33400     0.00000  0.0
    217    218    222    230   5     0.00000    30.33400     0.00000  0.0
    219    218    222    223   5     0.00000    30.33400     0.00000  0.0
    219    218    222    230   5     0.00000    30.33400     0.00000  0.0
    218    219    221    232   5     0.00000    16.73600     0.00000  0.0
    220    219    221    232   5     0.00000    25.10400     0.00000  0.0
    219    221    232    233   5     0.00000   -20.92000     0.00000  0.0
    218    222    223    215   5     0.00000    30.33400     0.00000  0.0
    218    222    223    231   5     0.00000    30.33400     0.00000  0.0
    230    222    223    215   5     0.00000    30.33400     0.00000  0.0
    230    222    223    231   5     0.00000    30.33400     0.00000  0.0
    221    232    233    234   5     0.00000     0.00000     3.13800  0.0
    221    232    233    247   5     0.00000     0.00000     3.13800  0.0
    221    232    233    248   5     0.00000     0.00000     3.13800  0.0
    232    233    234    235   5     9.36379    -9.73617    -2.85767  0.0
    232    233    234    249   5     0.00000     0.00000     1.95811  0.0
    232    233    234    250   5     0.00000     0.00000     1.95811  0.0
    247    233    234    235   5     0.00000     0.00000     1.95811  0.0
    247    233    234    249   5     0.00000     0.00000     1.25520  0.0
    247    233    234    250   5     0.00000     0.00000     1.25520  0.0
    248    233    234    235   5     0.00000     0.00000     1.95811  0.0
    248    233    234    249   5     0.00000     0.00000     1.25520  0.0
    248    233    234    250   5     0.00000     0.00000     1.25520  0.0
    233    234    235    236   5    -2.16731    -3.93296     0.98324  0.0
    249    234    235    236   5     0.00000     0.00000     0.67362  0.0
    250    234    235    236   5     0.00000     0.00000     0.67362  0.0
    234    235    236    237   5     0.00000    25.10400     0.00000  0.0
    234    235    236    238   5     5.01662    27.18345     0.00000  0.0
    235    236    238    239   5     0.00000     8.26340     0.00000  0.0
    235    236    238    246   5     0.00000     8.26340     0.00000  0.0
    237    236    238    239   5     0.00000     8.78640     0.00000  0.0
    237    236    238    246   5     0.00000     8.78640     0.00000  0.0
    236    238    239    240   5     0.00000    30.33400     0.00000  0.0
    236    238    239    251   5     0.00000    30.33400     0.00000  0.0
    246    238    239    240   5     0.00000    30.33400     0.00000  0.0
    246    238    239    251   5     0.00000    30.33400     0.00000  0.0
    236    238    246    245   5     0.00000    30.33400     0.00000  0.0
    236    238    246    254   5     0.00000    30.33400     0.00000  0.0
    239    238    246    245   5     0.00000    30.33400     0.00000  0.0
    239    238    246    254   5     0.00000    30.33400     0.00000  0.0
    238    239    240    241   5     0.00000    30.33400     0.00000  0.0
    238    239    240    252   5     0.00000    30.33400     0.00000  0.0
    251    239    240    241   5     0.00000    30.33400     0.00000  0.0
    251    239    240    252   5     0.00000    30.33400     0.00000  0.0
    239    240    241    242   5     0.00000    30.33400     0.00000  0.0
    239    240    241    245   5     0.00000    30.33400     0.00000  0.0
    252    240    241    242   5     0.00000    30.33400     0.00000  0.0
    252    240    241    245   5     0.00000    30.33400     0.00000  0.0
    240    241    242    243   5     0.00000     8.78640     0.00000  0.0
    240    241    242    244   5     0.00000     8.26340     0.00000  0.0
    245    241    242    243   5     0.00000     8.78640     0.00000  0.0
    245    241    242    244   5     0.00000     8.26340     0.00000  0.0
    240    241    245    246   5     0.00000    30.33400     0.00000  0.0
    240    241    245    253   5     0.00000    30.33400     0.00000  0.0
    242    241    245    246   5     0.00000    30.33400     0.00000  0.0
    242    241    245    253   5     0.00000    30.33400     0.00000  0.0
    241    242    244    255   5     0.00000    16.73600     0.00000  0.0
    243    242    244    255   5     0.00000    25.10400     0.00000  0.0
    242    244    255    256   5     0.00000   -20.92000     0.00000  0.0
    241    245    246    238   5     0.00000    30.33400     0.00000  0.0
    241    245    246    254   5     0.00000    30.33400     0.00000  0.0
    253    245    246    238   5     0.00000    30.33400     0.00000  0.0
    253    245    246    254   5     0.00000    30.33400     0.00000  0.0
    244    255    256    257   5     0.00000     0.00000     3.13800  0.0
    244    255    256    270   5     0.00000     0.00000     3.13800  0.0
    244    255    256    271   5     0.00000     0.00000     3.13800  0.0
    255    256    257    258   5     9.36379    -9.73617    -2.85767  0.0
    255    256    257    272   5     0.00000     0.00000     1.95811  0.0
    255    256    257    273   5     0.00000     0.00000     1.95811  0.0
    270    256    257    258   5     0.00000     0.00000     1.95811  0.0
    270    256    257    272   5     0.00000     0.00000     1.25520  0.0
    270    256    257    273   5     0.00000     0.00000     1.25520  0.0
    271    256    257    258   5     0.00000     0.00000     1.95811  0.0
    271    256    257    272   5     0.00000     0.00000     1.25520  0.0
    271    256    257    273   5     0.00000     0.00000     1.25520  0.0
    256    257    258    259   5    -2.16731    -3.93296     0.98324  0.0
    272    257    258    259   5     0.00000     0.00000     0.67362  0.0
    273    257    258    259   5     0.00000     0.00000     0.67362  0.0
    257    258    259    260   5     0.00000    25.10400     0.00000  0.0
    257    258    259    261   5     5.01662    27.18345     0.00000  0.0
    258    259    261    262   5     0.00000     8.26340     0.00000  0.0
    258    259    261    269   5     0.00000     8.26340     0.00000  0.0
    260    259    261    262   5     0.00000     8.78640     0.00000  0.0
    260    259    261    269   5     0.00000     8.78640     0.00000  0.0
    259    261    262    263   5     0.00000    30.33400     0.00000  0.0
    259    261    262    274   5     0.00000    30.33400     0.00000  0.0
    269    261    262    263   5     0.00000    30.33400     0.00000  0.0
    269    261    262    274   5     0.00000    30.33400     0.00000  0.0
    259    261    269    268   5     0.00000    30.33400     0.00000  0.0
    259    261    269    277   5     0.00000    30.33400     0.00000  0.0
    262    261    269    268   5     0.00000    30.33400     0.00000  0.0
    262    261    269    277   5     0.00000    30.33400     0.00000  0.0
    261    262    263    264   5     0.00000    30.33400     0.00000  0.0
    261    262    263    275   5     0.00000    30.33400     0.00000  0.0
    274    262    263    264   5     0.00000    30.33400     0.00000  0.0
    274    262    263    275   5     0.00000    30.33400     0.00000  0.0
    262    263    264    265   5     0.00000    30.33400     0.00000  0.0
    262    263    264    268   5     0.00000    30.33400     0.00000  0.0
    275    263    264    265   5     0.00000    30.33400     0.00000  0.0
    275    263    264    268   5     0.00000    30.33400     0.00000  0.0
    263    264    265    266   5     0.00000     8.78640     0.00000  0.0
    263    264    265    267   5     0.00000     8.26340     0.00000  0.0
    268    264    265    266   5     0.00000     8.78640     0.00000  0.0
    268    264    265    267   5     0.00000     8.26340     0.00000  0.0
    263    264    268    269   5     0.00000    30.33400     0.00000  0.0
    263    264    268    276   5     0.00000    30.33400     0.00000  0.0
    265    264    268    269   5     0.00000    30.33400     0.00000  0.0
    265    264    268    276   5     0.00000    30.33400     0.00000  0.0
    264    265    267    278   5     0.00000    16.73600     0.00000  0.0
    266    265    267    278   5     0.00000    25.10400     0.00000  0.0
    265    267    278    279   5     0.00000   -20.92000     0.00000  0.0
    264    268    269    261   5     0.00000    30.33400     0.00000  0.0
    264    268    269    277   5     0.00000    30.33400     0.00000  0.0
    276    268    269    261   5     0.00000    30.33400     0.00000  0.0
    276    268    269    277   5     0.00000    30.33400     0.00000  0.0
    267    278    279    280   5     0.00000     0.00000     3.13800  0.0
    267    278    279    293   5     0.00000     0.00000     3.13800  0.0
    267    278    279    294   5     0.00000     0.00000     3.13800  0.0
    278    279    280    281   5     9.36379    -9.73617    -2.85767  0.0
    278    279    280    295   5     0.00000     0.00000     1.95811  0.0
    278    279    280    296   5     0.00000     0.00000     1.95811  0.0
    293    279    280    281   5     0.00000     0.00000     1.95811  0.0
    293    279    280    295   5     0.00000     0.00000     1.25520  0.0
    293    279    280    296   5     0.00000     0.00000     1.25520  0.0
    294    279    280    281   5     0.00000     0.00000     1.95811  0.0
    294    279    280    295   5     0.00000     0.00000     1.25520  0.0
    294    279    280    296   5     0.00000     0.00000     1.25520  0.0
    279    280    281    282   5    -2.16731    -3.93296     0.98324  0.0
    295    280    281    282   5     0.00000     0.00000     0.67362  0.0
    296    280    281    282   5     0.00000     0.00000     0.67362  0.0
    280    281    282    283   5     0.00000    25.10400     0.00000  0.0
    280    281    282    284   5     5.01662    27.18345     0.00000  0.0
    281    282    284    285   5     0.00000     8.26340     0.00000  0.0
    281    282    284    292   5     0.00000     8.26340     0.00000  0.0
    283    282    284    285   5     0.00000     8.78640     0.00000  0.0
    283    282    284    292   5     0.00000     8.78640     0.00000  0.0
    282    284    285    286   5     0.00000    30.33400     0.00000  0.0
    282    284    285    297   5     0.00000    30.33400     0.00000  0.0
    292    284    285    286   5     0.00000    30.33400     0.00000  0.0
    292    284    285    297   5     0.00000    30.33400     0.00000  0.0
    282    284    292    291   5     0.00000    30.33400     0.00000  0.0
    282    284    292    300   5     0.00000    30.33400     0.00000  0.0
    285    284    292    291   5     0.00000    30.33400     0.00000  0.0
    285    284    292    300   5     0.00000    30.33400     0.00000  0.0
    284    285    286    287   5     0.00000    30.33400     0.00000  0.0
    284    285    286    298   5     0.00000    30.33400     0.00000  0.0
    297    285    286    287   5     0.00000    30.33400     0.00000  0.0
    297    285    286    298   5     0.00000    30.33400     0.00000  0.0
    285    286    287    288   5     0.00000    30.33400     0.00000  0.0
    285    286    287    291   5     0.00000    30.33400     0.00000  0.0
    298    286    287    288   5     0.00000    30.33400     0.00000  0.0
    298    286    287    291   5     0.00000    30.33400     0.00000  0.0
    286    287    288    289   5     0.00000     8.78640     0.00000  0.0
    286    287    288    290   5     0.00000     8.26340     0.00000  0.0
    291    287    288    289   5     0.00000     8.78640     0.00000  0.0
    291    287    288    290   5     0.00000     8.26340     0.00000  0.0
    286    287    291    292   5     0.00000    30.33400     0.00000  0.0
    286    287    291    299   5     0.00000    30.33400     0.00000  0.0
    288    287    291    292   5     0.00000    30.33400     0.00000  0.0
    288    287    291    299   5     0.00000    30.33400     0.00000  0.0
    287    288    290    301   5     0.00000    16.73600     0.00000  0.0
    289    288    290    301   5     0.00000    25.10400     0.00000  0.0
    288    290    301    302   5     0.00000   -20.92000     0.00000  0.0
    287    291    292    284   5     0.00000    30.33400     0.00000  0.0
    287    291    292    300   5     0.00000    30.33400     0.00000  0.0
    299    291    292    284   5     0.00000    30.33400     0.00000  0.0
    299    291    292    300   5     0.00000    30.33400     0.00000  0.0
    290    301    302    303   5     0.00000     0.00000     3.13800  0.0
    290    301    302    316   5     0.00000     0.00000     3.13800  0.0
    290    301    302    317   5     0.00000     0.00000     3.13800  0.0
    301    302    303    304   5     9.36379    -9.73617    -2.85767  0.0
    301    302    303    318   5     0.00000     0.00000     1.95811  0.0
    301    302    303    319   5     0.00000     0.00000     1.95811  0.0
    316    302    303    304   5     0.00000     0.00000     1.95811  0.0
    316    302    303    318   5     0.00000     0.00000     1.25520  0.0
    316    302    303    319   5     0.00000     0.00000     1.25520  0.0
    317    302    303    304   5     0.00000     0.00000     1.95811  0.0
    317    302    303    318   5     0.00000     0.00000     1.25520  0.0
    317    302    303    319   5     0.00000     0.00000     1.25520  0.0
    302    303    304    305   5    -2.16731    -3.93296     0.98324  0.0
    318    303    304    305   5     0.00000     0.00000     0.67362  0.0
    319    303    304    305   5     0.00000     0.00000     0.67362  0.0
    303    304    305    306   5     0.00000    25.10400     0.00000  0.0
    303    304    305    307   5     5.01662    27.18345     0.00000  0.0
    304    305    307    308   5     0.00000     8.26340     0.00000  0.0
    304    305    307    315   5     0.00000     8.26340     0.00000  0.0
    306    305    307    308   5     0.00000     8.78640     0.00000  0.0
    306    305    307    315   5     0.00000     8.78640     0.00000  0.0
    305    307    308    309   5     0.00000    30.33400     0.00000  0.0
    305    307    308    320   5     0.00000    30.33400     0.00000  0.0
    315    307    308    309   5     0.00000    30.33400     0.00000  0.0
    315    307    308    320   5     0.00000    30.33400     0.00000  0.0
    305    307    315    314   5     0.00000    30.33400     0.00000  0.0
    305    307    315    323   5     0.00000    30.33400     0.00000  0.0
    308    307    315    314   5     0.00000    30.33400     0.00000  0.0
    308    307    315    323   5     0.00000    30.33400     0.00000  0.0
    307    308    309    310   5     0.00000    30.33400     0.00000  0.0
    307    308    309    321   5     0.00000    30.33400     0.00000  0.0
    320    308    309    310   5     0.00000    30.33400     0.00000  0.0
    320    308    309    321   5     0.00000    30.33400     0.00000  0.0
    308    309    310    311   5     0.00000    30.33400     0.00000  0.0
    308    309    310    314   5     0.00000    30.33400     0.00000  0.0
    321    309    310    311   5     0.00000    30.33400     0.00000  0.0
    321    309    310    314   5     0.00000    30.33400     0.00000  0.0
    309    310    311    312   5     0.00000     8.78640     0.00000  0.0
    309    310    311    313   5     0.00000     8.26340     0.00000  0.0
    314    310    311    312   5     0.00000     8.78640     0.00000  0.0
    314    310    311    313   5     0.00000     8.26340     0.00000  0.0
    309    310    314    315   5     0.00000    30.33400     0.00000  0.0
    309    310    314    322   5     0.00000    30.33400     0.00000  0.0
    311    310    314    315   5     0.00000    30.33400     0.00000  0.0
    311    310    314    322   5     0.00000    30.33400     0.00000  0.0
    310    311    313    324   5     0.00000    16.73600     0.00000  0.0
    312    311    313    324   5     0.00000    25.10400     0.00000  0.0
    311    313    324    325   5     0.00000   -20.92000     0.00000  0.0
    310    314    315    307   5     0.00000    30.33400     0.00000  0.0
    310    314    315    323   5     0.00000    30.33400     0.00000  0.0
    322    314    315    307   5     0.00000    30.33400     0.00000  0.0
    322    314    315    323   5     0.00000    30.33400     0.00000  0.0
    313    324    325    326   5     0.00000     0.00000     3.13800  0.0
    313    324    325    339   5     0.00000     0.00000     3.13800  0.0
    313    324    325    340   5     0.00000     0.00000     3.13800  0.0
    324    325    326    327   5     9.36379    -9.73617    -2.85767  0.0
    324    325    326    341   5     0.00000     0.00000     1.95811  0.0
    324    325    326    342   5     0.00000     0.00000     1.95811  0.0
    339    325    326    327   5     0.00000     0.00000     1.95811  0.0
    339    325    326    341   5     0.00000     0.00000     1.25520  0.0
    339    325    326    342   5     0.00000     0.00000     1.25520  0.0
    340    325    326    327   5     0.00000     0.00000     1.95811  0.0
    340    325    326    341   5     0.00000     0.00000     1.25520  0.0
    340    325    326    342   5     0.00000     0.00000     1.25520  0.0
    325    326    327    328   5    -2.16731    -3.93296     0.98324  0.0
    341    326    327    328   5     0.00000     0.00000     0.67362  0.0
    342    326    327    328   5     0.00000     0.00000     0.67362  0.0
    326    327    328    329   5     0.00000    25.10400     0.00000  0.0
    326    327    328    330   5     5.01662    27.18345     0.00000  0.0
    327    328    330    331   5     0.00000     8.26340     0.00000  0.0
    327    328    330    338   5     0.00000     8.26340     0.00000  0.0
    329    328    330    331   5     0.00000     8.78640     0.00000  0.0
    329    328    330    338   5     0.00000     8.78640     0.00000  0.0
    328    330    331    332   5     0.00000    30.33400     0.00000  0.0
    328    330    331    343   5     0.00000    30.33400     0.00000  0.0
    338    330    331    332   5     0.00000    30.33400     0.00000  0.0
    338    330    331    343   5     0.00000    30.33400     0.00000  0.0
    328    330    338    337   5     0.00000    30.33400     0.00000  0.0
    328    330    338    346   5     0.00000    30.33400     0.00000  0.0
    331    330    338    337   5     0.00000    30.33400     0.00000  0.0
    331    330    338    346   5     0.00000    30.33400     0.00000  0.0
    330    331    332    333   5     0.00000    30.33400     0.00000  0.0
    330    331    332    344   5     0.00000    30.33400     0.00000  0.0
    343    331    332    333   5     0.00000    30.33400     0.00000  0.0
    343    331    332    344   5     0.00000    30.33400     0.00000  0.0
    331    332    333    334   5     0.00000    30.33400     0.00000  0.0
    331    332    333    337   5     0.00000    30.33400     0.00000  0.0
    344    332    333    334   5     0.00000    30.33400     0.00000  0.0
    344    332    333    337   5     0.00000    30.33400     0.00000  0.0
    332    333    334    335   5     0.00000     8.78640     0.00000  0.0
    332    333    334    336   5     0.00000     8.26340     0.00000  0.0
    337    333    334    335   5     0.00000     8.78640     0.00000  0.0
    337    333    334    336   5     0.00000     8.26340     0.00000  0.0
    332    333    337    338   5     0.00000    30.33400     0.00000  0.0
    332    333    337    345   5     0.00000    30.33400     0.00000  0.0
    334    333    337    338   5     0.00000    30.33400     0.00000  0.0
    334    333    337    345   5     0.00000    30.33400     0.00000  0.0
    333    334    336    347   5     0.00000    16.73600     0.00000  0.0
    335    334    336    347   5     0.00000    25.10400     0.00000  0.0
    334    336    347    348   5     0.00000   -20.92000     0.00000  0.0
    333    337    338    330   5     0.00000    30.33400     0.00000  0.0
    333    337    338    346   5     0.00000    30.33400     0.00000  0.0
    345    337    338    330   5     0.00000    30.33400     0.00000  0.0
    345    337    338    346   5     0.00000    30.33400     0.00000  0.0
    336    347    348    349   5     0.00000     0.00000     3.13800  0.0
    336    347    348    362   5     0.00000     0.00000     3.13800  0.0
    336    347    348    363   5     0.00000     0.00000     3.13800  0.0
    347    348    349    350   5     9.36379    -9.73617    -2.85767  0.0
    347    348    349    364   5     0.00000     0.00000     1.95811  0.0
    347    348    349    365   5     0.00000     0.00000     1.95811  0.0
    362    348    349    350   5     0.00000     0.00000     1.95811  0.0
    362    348    349    364   5     0.00000     0.00000     1.25520  0.0
    362    348    349    365   5     0.00000     0.00000     1.25520  0.0
    363    348    349    350   5     0.00000     0.00000     1.95811  0.0
    363    348    349    364   5     0.00000     0.00000     1.25520  0.0
    363    348    349    365   5     0.00000     0.00000     1.25520  0.0
    348    349    350    351   5    -2.16731    -3.93296     0.98324  0.0
    364    349    350    351   5     0.00000     0.00000     0.67362  0.0
    365    349    350    351   5     0.00000     0.00000     0.67362  0.0
    349    350    351    352   5     0.00000    25.10400     0.00000  0.0
    349    350    351    353   5     5.01662    27.18345     0.00000  0.0
    350    351    353    354   5     0.00000     8.26340     0.00000  0.0
    350    351    353    361   5     0.00000     8.26340     0.00000  0.0
    352    351    353    354   5     0.00000     8.78640     0.00000  0.0
    352    351    353    361   5     0.00000     8.78640     0.00000  0.0
    351    353    354    355   5     0.00000    30.33400     0.00000  0.0
    351    353    354    366   5     0.00000    30.33400     0.00000  0.0
    361    353    354    355   5     0.00000    30.33400     0.00000  0.0
    361    353    354    366   5     0.00000    30.33400     0.00000  0.0
    351    353    361    360   5     0.00000    30.33400     0.00000  0.0
    351    353    361    369   5     0.00000    30.33400     0.00000  0.0
    354    353    361    360   5     0.00000    30.33400     0.00000  0.0
    354    353    361    369   5     0.00000    30.33400     0.00000  0.0
    353    354    355    356   5     0.00000    30.33400     0.00000  0.0
    353    354    355    367   5     0.00000    30.33400     0.00000  0.0
    366    354    355    356   5     0.00000    30.33400     0.00000  0.0
    366    354    355    367   5     0.00000    30.33400     0.00000  0.0
    354    355    356    357   5     0.00000    30.33400     0.00000  0.0
    354    355    356    360   5     0.00000    30.33400     0.00000  0.0
    367    355    356    357   5     0.00000    30.33400     0.00000  0.0
    367    355    356    360   5     0.00000    30.33400     0.00000  0.0
    355    356    357    358   5     0.00000     8.78640     0.00000  0.0
    355    356    357    359   5     0.00000     8.26340     0.00000  0.0
    360    356    357    358   5     0.00000     8.78640     0.00000  0.0
    360    356    357    359   5     0.00000     8.26340     0.00000  0.0
    355    356    360    361   5     0.00000    30.33400     0.00000  0.0
    355    356    360    368   5     0.00000    30.33400     0.00000  0.0
    357    356    360    361   5     0.00000    30.33400     0.00000  0.0
    357    356    360    368   5     0.00000    30.33400     0.00000  0.0
    356    357    359    370   5     0.00000    16.73600     0.00000  0.0
    358    357    359    370   5     0.00000    25.10400     0.00000  0.0
    357    359    370    371   5     0.00000   -20.92000     0.00000  0.0
    356    360    361    353   5     0.00000    30.33400     0.00000  0.0
    356    360    361    369   5     0.00000    30.33400     0.00000  0.0
    368    360    361    353   5     0.00000    30.33400     0.00000  0.0
    368    360    361    369   5     0.00000    30.33400     0.00000  0.0
    359    370    371    372   5     0.00000     0.00000     3.13800  0.0
    359    370    371    385   5     0.00000     0.00000     3.13800  0.0
    359    370    371    386   5     0.00000     0.00000     3.13800  0.0
    370    371    372    373   5     9.36379    -9.73617    -2.85767  0.0
    370    371    372    387   5     0.00000     0.00000     1.95811  0.0
    370    371    372    388   5     0.00000     0.00000     1.95811  0.0
    385    371    372    373   5     0.00000     0.00000     1.95811  0.0
    385    371    372    387   5     0.00000     0.00000     1.25520  0.0
    385    371    372    388   5     0.00000     0.00000     1.25520  0.0
    386    371    372    373   5     0.00000     0.00000     1.95811  0.0
    386    371    372    387   5     0.00000     0.00000     1.25520  0.0
    386    371    372    388   5     0.00000     0.00000     1.25520  0.0
    371    372    373    374   5    -2.16731    -3.93296     0.98324  0.0
    387    372    373    374   5     0.00000     0.00000     0.67362  0.0
    388    372    373    374   5     0.00000     0.00000     0.67362  0.0
    372    373    374    375   5     0.00000    25.10400     0.00000  0.0
    372    373    374    376   5     5.01662    27.18345     0.00000  0.0
    373    374    376    377   5     0.00000     8.26340     0.00000  0.0
    373    374    376    384   5     0.00000     8.26340     0.00000  0.0
    375    374    376    377   5     0.00000     8.78640     0.00000  0.0
    375    374    376    384   5     0.00000     8.78640     0.00000  0.0
    374    376    377    378   5     0.00000    30.33400     0.00000  0.0
    374    376    377    389   5     0.00000    30.33400     0.00000  0.0
    384    376    377    378   5     0.00000    30.33400     0.00000  0.0
    384    376    377    389   5     0.00000    30.33400     0.00000  0.0
    374    376    384    383   5     0.00000    30.33400     0.00000  0.0
    374    376    384    392   5     0.00000    30.33400     0.00000  0.0
    377    376    384    383   5     0.00000    30.33400     0.00000  0.0
    377    376    384    392   5     0.00000    30.33400     0.00000  0.0
    376    377    378    379   5     0.00000    30.33400     0.00000  0.0
    376    377    378    390   5     0.00000    30.33400     0.00000  0.0
    389    377    378    379   5     0.00000    30.33400     0.00000  0.0
    389    377    378    390   5     0.00000    30.33400     0.00000  0.0
    377    378    379    380   5     0.00000    30.33400     0.00000  0.0
    377    378    379    383   5     0.00000    30.33400     0.00000  0.0
    390    378    379    380   5     0.00000    30.33400     0.00000  0.0
    390    378    379    383   5     0.00000    30.33400     0.00000  0.0
    378    379    380    381   5     0.00000     8.78640     0.00000  0.0
    378    379    380    382   5     0.00000     8.26340     0.00000  0.0
    383    379    380    381   5     0.00000     8.78640     0.00000  0.0
    383    379    380    382   5     0.00000     8.26340     0.00000  0.0
    378    379    383    384   5     0.00000    30.33400     0.00000  0.0
    378    379    383    391   5     0.00000    30.33400     0.00000  0.0
    380    379    383    384   5     0.00000    30.33400     0.00000  0.0
    380    379    383    391   5     0.00000    30.33400     0.00000  0.0
    379    380    382    393   5     0.00000    16.73600     0.00000  0.0
    381    380    382    393   5     0.00000    25.10400     0.00000  0.0
    380    382    393    394   5     0.00000   -20.92000     0.00000  0.0
    379    383    384    376   5     0.00000    30.33400     0.00000  0.0
    379    383    384    392   5     0.00000    30.33400     0.00000  0.0
    391    383    384    376   5     0.00000    30.33400     0.00000  0.0
    391    383    384    392   5     0.00000    30.33400     0.00000  0.0
    382    393    394    395   5     0.00000     0.00000     3.13800  0.0
    382    393    394    408   5     0.00000     0.00000     3.13800  0.0
    382    393    394    409   5     0.00000     0.00000     3.13800  0.0
    393    394    395    396   5     9.36379    -9.73617    -2.85767  0.0
    393    394    395    410   5     0.00000     0.00000     1.95811  0.0
    393    394    395    411   5     0.00000     0.00000     1.95811  0.0
    408    394    395    396   5     0.00000     0.00000     1.95811  0.0
    408    394    395    410   5     0.00000     0.00000     1.25520  0.0
    408    394    395    411   5     0.00000     0.00000     1.25520  0.0
    409    394    395    396   5     0.00000     0.00000     1.95811  0.0
    409    394    395    410   5     0.00000     0.00000     1.25520  0.0
    409    394    395    411   5     0.00000     0.00000     1.25520  0.0
    394    395    396    397   5    -2.16731    -3.93296     0.98324  0.0
    410    395    396    397   5     0.00000     0.00000     0.67362  0.0
    411    395    396    397   5     0.00000     0.00000     0.67362  0.0
    395    396    397    398   5     0.00000    25.10400     0.00000  0.0
    395    396    397    399   5     5.01662    27.18345     0.00000  0.0
    396    397    399    400   5     0.00000     8.26340     0.00000  0.0
    396    397    399    407   5     0.00000     8.26340     0.00000  0.0
    398    397    399    400   5     0.00000     8.78640     0.00000  0.0
    398    397    399    407   5     0.00000     8.78640     0.00000  0.0
    397    399    400    401   5     0.00000    30.33400     0.00000  0.0
    397    399    400    412   5     0.00000    30.33400     0.00000  0.0
    407    399    400    401   5     0.00000    30.33400     0.00000  0.0
    407    399    400    412   5     0.00000    30.33400     0.00000  0.0
    397    399    407    406   5     0.00000    30.33400     0.00000  0.0
    397    399    407    415   5     0.00000    30.33400     0.00000  0.0
    400    399    407    406   5     0.00000    30.33400     0.00000  0.0
    400    399    407    415   5     0.00000    30.33400     0.00000  0.0
    399    400    401    402   5     0.00000    30.33400     0.00000  0.0
    399    400    401    413   5     0.00000    30.33400     0.00000  0.0
    412    400    401    402   5     0.00000    30.33400     0.00000  0.0
    412    400    401    413   5     0.00000    30.33400     0.00000  0.0
    400    401    402    403   5     0.00000    30.33400     0.00000  0.0
    400    401    402    406   5     0.00000    30.33400     0.00000  0.0
    413    401    402    403   5     0.00000    30.33400     0.00000  0.0
    413    401    402    406   5     0.00000    30.33400     0.00000  0.0
    401    402    403    404   5     0.00000     8.78640     0.00000  0.0
    401    402    403    405   5     0.00000     8.26340     0.00000  0.0
    406    402    403    404   5     0.00000     8.78640     0.00000  0.0
    406    402    403    405   5     0.00000     8.26340     0.00000  0.0
    401    402    406    407   5     0.00000    30.33400     0.00000  0.0
    401    402    406    414   5     0.00000    30.33400     0.00000  0.0
    403    402    406    407   5     0.00000    30.33400     0.00000  0.0
    403    402    406    414   5     0.00000    30.33400     0.00000  0.0
    402    403    405    416   5     0.00000    16.73600     0.00000  0.0
    404    403    405    416   5     0.00000    25.10400     0.00000  0.0
    403    405    416    417   5     0.00000   -20.92000     0.00000  0.0
    402    406    407    399   5     0.00000    30.33400     0.00000  0.0
    402    406    407    415   5     0.00000    30.33400     0.00000  0.0
    414    406    407    399   5     0.00000    30.33400     0.00000  0.0
    414    406    407    415   5     0.00000    30.33400     0.00000  0.0
    405    416    417    418   5     0.00000     0.00000     3.13800  0.0
    405    416    417    431   5     0.00000     0.00000     3.13800  0.0
    405    416    417    432   5     0.00000     0.00000     3.13800  0.0
    416    417    418    419   5     9.36379    -9.73617    -2.85767  0.0
    416    417    418    433   5     0.00000     0.00000     1.95811  0.0
    416    417    418    434   5     0.00000     0.00000     1.95811  0.0
    431    417    418    419   5     0.00000     0.00000     1.95811  0.0
    431    417    418    433   5     0.00000     0.00000     1.25520  0.0
    431    417    418    434   5     0.00000     0.00000     1.25520  0.0
    432    417    418    419   5     0.00000     0.00000     1.95811  0.0
    432    417    418    433   5     0.00000     0.00000     1.25520  0.0
    432    417    418    434   5     0.00000     0.00000     1.25520  0.0
    417    418    419    420   5    -2.16731    -3.93296     0.98324  0.0
    433    418    419    420   5     0.00000     0.00000     0.67362  0.0
    434    418    419    420   5     0.00000     0.00000     0.67362  0.0
    418    419    420    421   5     0.00000    25.10400     0.00000  0.0
    418    419    420    422   5     5.01662    27.18345     0.00000  0.0
    419    420    422    423   5     0.00000     8.26340     0.00000  0.0
    419    420    422    430   5     0.00000     8.26340     0.00000  0.0
    421    420    422    423   5     0.00000     8.78640     0.00000  0.0
    421    420    422    430   5     0.00000     8.78640     0.00000  0.0
    420    422    423    424   5     0.00000    30.33400     0.00000  0.0
    420    422    423    435   5     0.00000    30.33400     0.00000  0.0
    430    422    423    424   5     0.00000    30.33400     0.00000  0.0
    430    422    423    435   5     0.00000    30.33400     0.00000  0.0
    420    422    430    429   5     0.00000    30.33400     0.00000  0.0
    420    422    430    438   5     0.00000    30.33400     0.00000  0.0
    423    422    430    429   5     0.00000    30.33400     0.00000  0.0
    423    422    430    438   5     0.00000    30.33400     0.00000  0.0
    422    423    424    425   5     0.00000    30.33400     0.00000  0.0
    422    423    424    436   5     0.00000    30.33400     0.00000  0.0
    435    423    424    425   5     0.00000    30.33400     0.00000  0.0
    435    423    424    436   5     0.00000    30.33400     0.00000  0.0
    423    424    425    426   5     0.00000    30.33400     0.00000  0.0
    423    424    425    429   5     0.00000    30.33400     0.00000  0.0
    436    424    425    426   5     0.00000    30.33400     0.00000  0.0
    436    424    425    429   5     0.00000    30.33400     0.00000  0.0
    424    425    426    427   5     0.00000     8.78640     0.00000  0.0
    424    425    426    428   5     0.00000     8.26340     0.00000  0.0
    429    425    426    427   5     0.00000     8.78640     0.00000  0.0
    429    425    426    428   5     0.00000     8.26340     0.00000  0.0
    424    425    429    430   5     0.00000    30.33400     0.00000  0.0
    424    425    429    437   5     0.00000    30.33400     0.00000  0.0
    426    425    429    430   5     0.00000    30.33400     0.00000  0.0
    426    425    429    437   5     0.00000    30.33400     0.00000  0.0
    425    426    428    439   5     0.00000    16.73600     0.00000  0.0
    427    426    428    439   5     0.00000    25.10400     0.00000  0.0
    426    428    439    440   5     0.00000   -20.92000     0.00000  0.0
    425    429    430    422   5     0.00000    30.33400     0.00000  0.0
    425    429    430    438   5     0.00000    30.33400     0.00000  0.0
    437    429    430    422   5     0.00000    30.33400     0.00000  0.0
    437    429    430    438   5     0.00000    30.33400     0.00000  0.0
    428    439    440    441   5     0.00000     0.00000     3.13800  0.0
    428    439    440    454   5     0.00000     0.00000     3.13800  0.0
    428    439    440    455   5     0.00000     0.00000     3.13800  0.0
    439    440    441    442   5     9.36379    -9.73617    -2.85767  0.0
    439    440    441    456   5     0.00000     0.00000     1.95811  0.0
    439    440    441    457   5     0.00000     0.00000     1.95811  0.0
    454    440    441    442   5     0.00000     0.00000     1.95811  0.0
    454    440    441    456   5     0.00000     0.00000     1.25520  0.0
    454    440    441    457   5     0.00000     0.00000     1.25520  0.0
    455    440    441    442   5     0.00000     0.00000     1.95811  0.0
    455    440    441    456   5     0.00000     0.00000     1.25520  0.0
    455    440    441    457   5     0.00000     0.00000     1.25520  0.0
    440    441    442    443   5    -2.16731    -3.93296     0.98324  0.0
    456    441    442    443   5     0.00000     0.00000     0.67362  0.0
    457    441    442    443   5     0.00000     0.00000     0.67362  0.0
    441    442    443    444   5     0.00000    25.10400     0.00000  0.0
    441    442    443    445   5     5.01662    27.18345     0.00000  0.0
    442    443    445    446   5     0.00000     8.26340     0.00000  0.0
    442    443    445    453   5     0.00000     8.26340     0.00000  0.0
    444    443    445    446   5     0.00000     8.78640     0.00000  0.0
    444    443    445    453   5     0.00000     8.78640     0.00000  0.0
    443    445    446    447   5     0.00000    30.33400     0.00000  0.0
    443    445    446    458   5     0.00000    30.33400     0.00000  0.0
    453    445    446    447   5     0.00000    30.33400     0.00000  0.0
    453    445    446    458   5     0.00000    30.33400     0.00000  0.0
    443    445    453    452   5     0.00000    30.33400     0.00000  0.0
    443    445    453    461   5     0.00000    30.33400     0.00000  0.0
    446    445    453    452   5     0.00000    30.33400     0.00000  0.0
    446    445    453    461   5     0.00000    30.33400     0.00000  0.0
    445    446    447    448   5     0.00000    30.33400     0.00000  0.0
    445    446    447    459   5     0.00000    30.33400     0.00000  0.0
    458    446    447    448   5     0.00000    30.33400     0.00000  0.0
    458    446    447    459   5     0.00000    30.33400     0.00000  0.0
    446    447    448    449   5     0.00000    30.33400     0.00000  0.0
    446    447    448    452   5     0.00000    30.33400     0.00000  0.0
    459    447    448    449   5     0.00000    30.33400     0.00000  0.0
    459    447    448    452   5     0.00000    30.33400     0.00000  0.0
    447    448    449    450   5     0.00000     8.78640     0.00000  0.0
    447    448    449    451   5     0.00000     3.01248     0.00000  0.0
    452    448    449    450   5     0.00000     8.78640     0.00000  0.0
    452    448    449    451   5     0.00000     3.01248     0.00000  0.0
    447    448    452    453   5     0.00000    30.33400     0.00000  0.0
    447    448    452    460   5     0.00000    30.33400     0.00000  0.0
    449    448    452    453   5     0.00000    30.33400     0.00000  0.0
    449    448    452    460   5     0.00000    30.33400     0.00000  0.0
    448    449    451    462   5    18.89076   -16.12514     0.00000  0.0
    450    449    451    462   5     7.71530    31.30469     0.00000  0.0
    448    452    453    445   5     0.00000    30.33400     0.00000  0.0
    448    452    453    461   5     0.00000    30.33400     0.00000  0.0
    460    452    453    445   5     0.00000    30.33400     0.00000  0.0
    460    452    453    461   5     0.00000    30.33400     0.00000  0.0

[ dihedrals ]
; Improper dihedrals
; h   i   j   k   funct
      4      6      5      7   5     0.00000    87.86400     0.00000  0.0
      5      8      7     15   5     0.00000    33.47200     0.00000  0.0
      7      9      8     20   5     0.00000     9.20480     0.00000  0.0
      8     10      9     21   5     0.00000     9.20480     0.00000  0.0
      9     11     10     14   5     0.00000    33.47200     0.00000  0.0
     10     12     11     13   5     0.00000    87.86400     0.00000  0.0
     10     15     14     22   5     0.00000     9.20480     0.00000  0.0
      7     14     15     23   5     0.00000     9.20480     0.00000  0.0
     28     30     29     31   5     0.00000    87.86400     0.00000  0.0
     29     32     31     39   5     0.00000    33.47200     0.00000  0.0
     31     33     32     44   5     0.00000     9.20480     0.00000  0.0
     32     34     33     45   5     0.00000     9.20480     0.00000  0.0
     33     35     34     38   5     0.00000    33.47200     0.00000  0.0
     34     36     35     37   5     0.00000    87.86400     0.00000  0.0
     34     39     38     46   5     0.00000     9.20480     0.00000  0.0
     31     38     39     47   5     0.00000     9.20480     0.00000  0.0
     51     53     52     54   5     0.00000    87.86400     0.00000  0.0
     52     55     54     62   5     0.00000    33.47200     0.00000  0.0
     54     56     55     67   5     0.00000     9.20480     0.00000  0.0
     55     57     56     68   5     0.00000     9.20480     0.00000  0.0
     56     58     57     61   5     0.00000    33.47200     0.00000  0.0
     57     59     58     60   5     0.00000    87.86400     0.00000  0.0
     57     62     61     69   5     0.00000     9.20480     0.00000  0.0
     54     61     62     70   5     0.00000     9.20480     0.00000  0.0
     74     76     75     77   5     0.00000    87.86400     0.00000  0.0
     75     78     77     85   5     0.00000    33.47200     0.00000  0.0
     77     79     78     90   5     0.00000     9.20480     0.00000  0.0
     78     80     79     91   5     0.00000     9.20480     0.00000  0.0
     79     81     80     84   5     0.00000    33.47200     0.00000  0.0
     80     82     81     83   5     0.00000    87.86400     0.00000  0.0
     80     85     84     92   5     0.00000     9.20480     0.00000  0.0
     77     84     85     93   5     0.00000     9.20480     0.00000  0.0
     97     99     98    100   5     0.00000    87.86400     0.00000  0.0
     98    101    100    108   5     0.00000    33.47200     0.00000  0.0
    100    102    101    113   5     0.00000     9.20480     0.00000  0.0
    101    103    102    114   5     0.00000     9.20480     0.00000  0.0
    102    104    103    107   5     0.00000    33.47200     0.00000  0.0
    103    105    104    106   5     0.00000    87.86400     0.00000  0.0
    103    108    107    115   5     0.00000     9.20480     0.00000  0.0
    100    107    108    116   5     0.00000     9.20480     0.00000  0.0
    120    122    121    123   5     0.00000    87.86400     0.00000  0.0
    121    124    123    131   5     0.00000    33.47200     0.00000  0.0
    123    125    124    136   5     0.00000     9.20480     0.00000  0.0
    124    126    125    137   5     0.00000     9.20480     0.00000  0.0
    125    127    126    130   5     0.00000    33.47200     0.00000  0.0
    126    128    127    129   5     0.00000    87.86400     0.00000  0.0
    126    131    130    138   5     0.00000     9.20480     0.00000  0.0
    123    130    131    139   5     0.00000     9.20480     0.00000  0.0
    143    145    144    146   5     0.00000    87.86400     0.00000  0.0
    144    147    146    154   5     0.00000    33.47200     0.00000  0.0
    146    148    147    159   5     0.00000     9.20480     0.00000  0.0
    147    149    148    160   5     0.00000     9.20480     0.00000  0.0
    148    150    149    153   5     0.00000    33.47200     0.00000  0.0
    149    151    150    152   5     0.00000    87.86400     0.00000  0.0
    149    154    153    161   5     0.00000     9.20480     0.00000  0.0
    146    153    154    162   5     0.00000     9.20480     0.00000  0.0
    166    168    167    169   5     0.00000    87.86400     0.00000  0.0
    167    170    169    177   5     0.00000    33.47200     0.00000  0.0
    169    171    170    182   5     0.00000     9.20480     0.00000  0.0
    170    172    171    183   5     0.00000     9.20480     0.00000  0.0
    171    173    172    176   5     0.00000    33.47200     0.00000  0.0
    172    174    173    175   5     0.00000    87.86400     0.00000  0.0
    172    177    176    184   5     0.00000     9.20480     0.00000  0.0
    169    176    177    185   5     0.00000     9.20480     0.00000  0.0
    189    191    190    192   5     0.00000    87.86400     0.00000  0.0
    190    193    192    200   5     0.00000    33.47200     0.00000  0.0
    192    194    193    205   5     0.00000     9.20480     0.00000  0.0
    193    195    194    206   5     0.00000     9.20480     0.00000  0.0
    194    196    195    199   5     0.00000    33.47200     0.00000  0.0
    195    197    196    198   5     0.00000    87.86400     0.00000  0.0
    195    200    199    207   5     0.00000     9.20480     0.00000  0.0
    192    199    200    208   5     0.00000     9.20480     0.00000  0.0
    212    214    213    215   5     0.00000    87.86400     0.00000  0.0
    213    216    215    223   5     0.00000    33.47200     0.00000  0.0
    215    217    216    228   5     0.00000     9.20480     0.00000  0.0
    216    218    217    229   5     0.00000     9.20480     0.00000  0.0
    217    219    218    222   5     0.00000    33.47200     0.00000  0.0
    218    220    219    221   5     0.00000    87.86400     0.00000  0.0
    218    223    222    230   5     0.00000     9.20480     0.00000  0.0
    215    222    223    231   5     0.00000     9.20480     0.00000  0.0
    235    237    236    238   5     0.00000    87.86400     0.00000  0.0
    236    239    238    246   5     0.00000    33.47200     0.00000  0.0
    238    240    239    251   5     0.00000     9.20480     0.00000  0.0
    239    241    240    252   5     0.00000     9.20480     0.00000  0.0
    240    242    241    245   5     0.00000    33.47200     0.00000  0.0
    241    243    242    244   5     0.00000    87.86400     0.00000  0.0
    241    246    245    253   5     0.00000     9.20480     0.00000  0.0
    238    245    246    254   5     0.00000     9.20480     0.00000  0.0
    258    260    259    261   5     0.00000    87.86400     0.00000  0.0
    259    262    261    269   5     0.00000    33.47200     0.00000  0.0
    261    263    262    274   5     0.00000     9.20480     0.00000  0.0
    262    264    263    275   5     0.00000     9.20480     0.00000  0.0
    263    265    264    268   5     0.00000    33.47200     0.00000  0.0
    264    266    265    267   5     0.00000    87.86400     0.00000  0.0
    264    269    268    276   5     0.00000     9.20480     0.00000  0.0
    261    268    269    277   5     0.00000     9.20480     0.00000  0.0
    281    283    282    284   5     0.00000    87.86400     0.00000  0.0
    282    285    284    292   5     0.00000    33.47200     0.00000  0.0
    284    286    285    297   5     0.00000     9.20480     0.00000  0.0
    285    287    286    298   5     0.00000     9.20480     0.00000  0.0
    286    288    287    291   5     0.00000    33.47200     0.00000  0.0
    287    289    288    290   5     0.00000    87.86400     0.00000  0.0
    287    292    291    299   5     0.00000     9.20480     0.00000  0.0
    284    291    292    300   5     0.00000     9.20480     0.00000  0.0
    304    306    305    307   5     0.00000    87.86400     0.00000  0.0
    305    308    307    315   5     0.00000    33.47200     0.00000  0.0
    307    309    308    320   5     0.00000     9.20480     0.00000  0.0
    308    310    309    321   5     0.00000     9.20480     0.00000  0.0
    309    311    310    314   5     0.00000    33.47200     0.00000  0.0
    310    312    311    313   5     0.00000    87.86400     0.00000  0.0
    310    315    314    322   5     0.00000     9.20480     0.00000  0.0
    307    314    315    323   5     0.00000     9.20480     0.00000  0.0
    327    329    328    330   5     0.00000    87.86400     0.00000  0.0
    328    331    330    338   5     0.00000    33.47200     0.00000  0.0
    330    332    331    343   5     0.00000     9.20480     0.00000  0.0
    331    333    332    344   5     0.00000     9.20480     0.00000  0.0
    332    334    333    337   5     0.00000    33.47200     0.00000  0.0
    333    335    334    336   5     0.00000    87.86400     0.00000  0.0
    333    338    337    345   5     0.00000     9.20480     0.00000  0.0
    330    337    338    346   5     0.00000     9.20480     0.00000  0.0
    350    352    351    353   5     0.00000    87.86400     0.00000  0.0
    351    354    353    361   5     0.00000    33.47200     0.00000  0.0
    353    355    354    366   5     0.00000     9.20480     0.00000  0.0
    354    356    355    367   5     0.00000     9.20480     0.00000  0.0
    355    357    356    360   5     0.00000    33.47200     0.00000  0.0
    356    358    357    359   5     0.00000    87.86400     0.00000  0.0
    356    361    360    368   5     0.00000     9.20480     0.00000  0.0
    353    360    361    369   5     0.00000     9.20480     0.00000  0.0
    373    375    374    376   5     0.00000    87.86400     0.00000  0.0
    374    377    376    384   5     0.00000    33.47200     0.00000  0.0
    376    378    377    389   5     0.00000     9.20480     0.00000  0.0
    377    379    378    390   5     0.00000     9.20480     0.00000  0.0
    378    380    379    383   5     0.00000    33.47200     0.00000  0.0
    379    381    380    382   5     0.00000    87.86400     0.00000  0.0
    379    384    383    391   5     0.00000     9.20480     0.00000  0.0
    376    383    384    392   5     0.00000     9.20480     0.00000  0.0
    396    398    397    399   5     0.00000    87.86400     0.00000  0.0
    397    400    399    407   5     0.00000    33.47200     0.00000  0.0
    399    401    400    412   5     0.00000     9.20480     0.00000  0.0
    400    402    401    413   5     0.00000     9.20480     0.00000  0.0
    401    403    402    406   5     0.00000    33.47200     0.00000  0.0
    402    404    403    405   5     0.00000    87.86400     0.00000  0.0
    402    407    406    414   5     0.00000     9.20480     0.00000  0.0
    399    406    407    415   5     0.00000     9.20480     0.00000  0.0
    419    421    420    422   5     0.00000    87.86400     0.00000  0.0
    420    423    422    430   5     0.00000    33.47200     0.00000  0.0
    422    424    423    435   5     0.00000     9.20480     0.00000  0.0
    423    425    424    436   5     0.00000     9.20480     0.00000  0.0
    424    426    425    429   5     0.00000    33.47200     0.00000  0.0
    425    427    426    428   5     0.00000    87.86400     0.00000  0.0
    425    430    429    437   5     0.00000     9.20480     0.00000  0.0
    422    429    430    438   5     0.00000     9.20480     0.00000  0.0
    442    444    443    445   5     0.00000    87.86400     0.00000  0.0
    443    446    445    453   5     0.00000    33.47200     0.00000  0.0
    445    447    446    458   5     0.00000     9.20480     0.00000  0.0
    446    448    447    459   5     0.00000     9.20480     0.00000  0.0
    447    449    448    452   5     0.00000    33.47200     0.00000  0.0
    448    450    449    451   5     0.00000    87.86400     0.00000  0.0
    448    453    452    460   5     0.00000     9.20480     0.00000  0.0
    445    452    453    461   5     0.00000     9.20480     0.00000  0.0
