;
; Gromacs include topology (itp) file.
; For Molecular Group XYZ
; Force field scheme: opls2005
; Produced from DL_FIELD v4.11
;


[ moleculetype ]
; name    nrexcl
XYZ    3

[ atoms ]
; nr   type   resnr   residu    atom    cgnr    charge    mass
    1        CT    1  MOL      C1     1   0.0800000   12.0115
    2         N    1  MOL      N2     2  -0.5000000   14.0067
    3         C    1  MOL      C3     3   0.5000000   12.0115
    4         O    1  MOL      O4     4  -0.5000000   15.9994
    5        CT    1  MOL      C5     5  -0.1800000   12.0115
    6        CT    1  MOL      C6     6  -0.1200000   12.0115
    7        HC    1  MOL      H7     7   0.0600000    1.0080
    8         H    1  MOL      H8     8   0.3000000    1.0080
    9        HC    1  MOL      H9     9   0.0600000    1.0080
   10        HC    1  MOL     H10    10   0.0600000    1.0080
   11        HC    1  MOL     H11    11   0.0600000    1.0080
   12        HC    1  MOL     H12    12   0.0600000    1.0080
   13        HC    1  MOL     H13    13   0.0600000    1.0080
   14        HC    1  MOL     H14    14   0.0600000    1.0080
   15        CT    1  MOL     C15    15   0.1400000   12.0115
   16         N    1  MOL     N16    16  -0.5000000   14.0067
   17         C    1  MOL     C17    17   0.5000000   12.0115
   18         O    1  MOL     O18    18  -0.5000000   15.9994
   19        CT    1  MOL     C19    19  -0.1800000   12.0115
   20        CT    1  MOL     C20    20  -0.1200000   12.0115
   21        HC    1  MOL     H21    21   0.0600000    1.0080
   22         H    1  MOL     H22    22   0.3000000    1.0080
   23        HC    1  MOL     H23    23   0.0600000    1.0080
   24        HC    1  MOL     H24    24   0.0600000    1.0080
   25        HC    1  MOL     H25    25   0.0600000    1.0080
   26        HC    1  MOL     H26    26   0.0600000    1.0080
   27        HC    1  MOL     H27    27   0.0600000    1.0080
   28        CT    1  MOL     C28    28   0.1400000   12.0115
   29         N    1  MOL     N29    29  -0.5000000   14.0067
   30         C    1  MOL     C30    30   0.5000000   12.0115
   31         O    1  MOL     O31    31  -0.5000000   15.9994
   32        CT    1  MOL     C32    32  -0.1800000   12.0115
   33        CT    1  MOL     C33    33  -0.1200000   12.0115
   34        HC    1  MOL     H34    34   0.0600000    1.0080
   35         H    1  MOL     H35    35   0.3000000    1.0080
   36        HC    1  MOL     H36    36   0.0600000    1.0080
   37        HC    1  MOL     H37    37   0.0600000    1.0080
   38        HC    1  MOL     H38    38   0.0600000    1.0080
   39        HC    1  MOL     H39    39   0.0600000    1.0080
   40        HC    1  MOL     H40    40   0.0600000    1.0080
   41        CT    1  MOL     C41    41   0.1400000   12.0115
   42         N    1  MOL     N42    42  -0.5000000   14.0067
   43         C    1  MOL     C43    43   0.5000000   12.0115
   44         O    1  MOL     O44    44  -0.5000000   15.9994
   45        CT    1  MOL     C45    45  -0.1800000   12.0115
   46        CT    1  MOL     C46    46  -0.1200000   12.0115
   47        HC    1  MOL     H47    47   0.0600000    1.0080
   48         H    1  MOL     H48    48   0.3000000    1.0080
   49        HC    1  MOL     H49    49   0.0600000    1.0080
   50        HC    1  MOL     H50    50   0.0600000    1.0080
   51        HC    1  MOL     H51    51   0.0600000    1.0080
   52        HC    1  MOL     H52    52   0.0600000    1.0080
   53        HC    1  MOL     H53    53   0.0600000    1.0080
   54        CT    1  MOL     C54    54   0.1400000   12.0115
   55         N    1  MOL     N55    55  -0.5000000   14.0067
   56         C    1  MOL     C56    56   0.5000000   12.0115
   57         O    1  MOL     O57    57  -0.5000000   15.9994
   58        CT    1  MOL     C58    58  -0.1800000   12.0115
   59        CT    1  MOL     C59    59  -0.1200000   12.0115
   60        HC    1  MOL     H60    60   0.0600000    1.0080
   61         H    1  MOL     H61    61   0.3000000    1.0080
   62        HC    1  MOL     H62    62   0.0600000    1.0080
   63        HC    1  MOL     H63    63   0.0600000    1.0080
   64        HC    1  MOL     H64    64   0.0600000    1.0080
   65        HC    1  MOL     H65    65   0.0600000    1.0080
   66        HC    1  MOL     H66    66   0.0600000    1.0080
   67        CT    1  MOL     C67    67   0.1400000   12.0115
   68         N    1  MOL     N68    68  -0.5000000   14.0067
   69         C    1  MOL     C69    69   0.5000000   12.0115
   70         O    1  MOL     O70    70  -0.5000000   15.9994
   71        CT    1  MOL     C71    71  -0.1800000   12.0115
   72        CT    1  MOL     C72    72  -0.1200000   12.0115
   73        HC    1  MOL     H73    73   0.0600000    1.0080
   74         H    1  MOL     H74    74   0.3000000    1.0080
   75        HC    1  MOL     H75    75   0.0600000    1.0080
   76        HC    1  MOL     H76    76   0.0600000    1.0080
   77        HC    1  MOL     H77    77   0.0600000    1.0080
   78        HC    1  MOL     H78    78   0.0600000    1.0080
   79        HC    1  MOL     H79    79   0.0600000    1.0080
   80        CT    1  MOL     C80    80   0.1400000   12.0115
   81         N    1  MOL     N81    81  -0.5000000   14.0067
   82         C    1  MOL     C82    82   0.5000000   12.0115
   83         O    1  MOL     O83    83  -0.5000000   15.9994
   84        CT    1  MOL     C84    84  -0.1800000   12.0115
   85        CT    1  MOL     C85    85  -0.1200000   12.0115
   86        HC    1  MOL     H86    86   0.0600000    1.0080
   87         H    1  MOL     H87    87   0.3000000    1.0080
   88        HC    1  MOL     H88    88   0.0600000    1.0080
   89        HC    1  MOL     H89    89   0.0600000    1.0080
   90        HC    1  MOL     H90    90   0.0600000    1.0080
   91        HC    1  MOL     H91    91   0.0600000    1.0080
   92        HC    1  MOL     H92    92   0.0600000    1.0080
   93        CT    1  MOL     C93    93   0.1400000   12.0115
   94         N    1  MOL     N94    94  -0.5000000   14.0067
   95         C    1  MOL     C95    95   0.5000000   12.0115
   96         O    1  MOL     O96    96  -0.5000000   15.9994
   97        CT    1  MOL     C97    97  -0.1800000   12.0115
   98        CT    1  MOL     C98    98  -0.1200000   12.0115
   99        HC    1  MOL     H99    99   0.0600000    1.0080
  100         H    1  MOL    H100   100   0.3000000    1.0080
  101        HC    1  MOL    H101   101   0.0600000    1.0080
  102        HC    1  MOL    H102   102   0.0600000    1.0080
  103        HC    1  MOL    H103   103   0.0600000    1.0080
  104        HC    1  MOL    H104   104   0.0600000    1.0080
  105        HC    1  MOL    H105   105   0.0600000    1.0080
  106        CT    1  MOL    C106   106   0.1400000   12.0115
  107         N    1  MOL    N107   107  -0.5000000   14.0067
  108         C    1  MOL    C108   108   0.5000000   12.0115
  109         O    1  MOL    O109   109  -0.5000000   15.9994
  110        CT    1  MOL    C110   110  -0.1800000   12.0115
  111        CT    1  MOL    C111   111  -0.1200000   12.0115
  112        HC    1  MOL    H112   112   0.0600000    1.0080
  113         H    1  MOL    H113   113   0.3000000    1.0080
  114        HC    1  MOL    H114   114   0.0600000    1.0080
  115        HC    1  MOL    H115   115   0.0600000    1.0080
  116        HC    1  MOL    H116   116   0.0600000    1.0080
  117        HC    1  MOL    H117   117   0.0600000    1.0080
  118        HC    1  MOL    H118   118   0.0600000    1.0080
  119        CT    1  MOL    C119   119   0.1400000   12.0115
  120         N    1  MOL    N120   120  -0.5000000   14.0067
  121         C    1  MOL    C121   121   0.5000000   12.0115
  122         O    1  MOL    O122   122  -0.5000000   15.9994
  123        CT    1  MOL    C123   123  -0.1800000   12.0115
  124        CT    1  MOL    C124   124  -0.1200000   12.0115
  125        HC    1  MOL    H125   125   0.0600000    1.0080
  126         H    1  MOL    H126   126   0.3000000    1.0080
  127        HC    1  MOL    H127   127   0.0600000    1.0080
  128        HC    1  MOL    H128   128   0.0600000    1.0080
  129        HC    1  MOL    H129   129   0.0600000    1.0080
  130        HC    1  MOL    H130   130   0.0600000    1.0080
  131        HC    1  MOL    H131   131   0.0600000    1.0080
  132        CT    1  MOL    C132   132   0.1400000   12.0115
  133         N    1  MOL    N133   133  -0.5000000   14.0067
  134         C    1  MOL    C134   134   0.5000000   12.0115
  135         O    1  MOL    O135   135  -0.5000000   15.9994
  136        CT    1  MOL    C136   136  -0.1800000   12.0115
  137        CT    1  MOL    C137   137  -0.1200000   12.0115
  138        HC    1  MOL    H138   138   0.0600000    1.0080
  139         H    1  MOL    H139   139   0.3000000    1.0080
  140        HC    1  MOL    H140   140   0.0600000    1.0080
  141        HC    1  MOL    H141   141   0.0600000    1.0080
  142        HC    1  MOL    H142   142   0.0600000    1.0080
  143        HC    1  MOL    H143   143   0.0600000    1.0080
  144        HC    1  MOL    H144   144   0.0600000    1.0080
  145        CT    1  MOL    C145   145   0.1400000   12.0115
  146         N    1  MOL    N146   146  -0.5000000   14.0067
  147         C    1  MOL    C147   147   0.5000000   12.0115
  148         O    1  MOL    O148   148  -0.5000000   15.9994
  149        CT    1  MOL    C149   149  -0.1800000   12.0115
  150        CT    1  MOL    C150   150  -0.1200000   12.0115
  151        HC    1  MOL    H151   151   0.0600000    1.0080
  152         H    1  MOL    H152   152   0.3000000    1.0080
  153        HC    1  MOL    H153   153   0.0600000    1.0080
  154        HC    1  MOL    H154   154   0.0600000    1.0080
  155        HC    1  MOL    H155   155   0.0600000    1.0080
  156        HC    1  MOL    H156   156   0.0600000    1.0080
  157        HC    1  MOL    H157   157   0.0600000    1.0080
  158        CT    1  MOL    C158   158   0.1400000   12.0115
  159         N    1  MOL    N159   159  -0.5000000   14.0067
  160         C    1  MOL    C160   160   0.5000000   12.0115
  161         O    1  MOL    O161   161  -0.5000000   15.9994
  162        CT    1  MOL    C162   162  -0.1800000   12.0115
  163        CT    1  MOL    C163   163  -0.1200000   12.0115
  164        HC    1  MOL    H164   164   0.0600000    1.0080
  165         H    1  MOL    H165   165   0.3000000    1.0080
  166        HC    1  MOL    H166   166   0.0600000    1.0080
  167        HC    1  MOL    H167   167   0.0600000    1.0080
  168        HC    1  MOL    H168   168   0.0600000    1.0080
  169        HC    1  MOL    H169   169   0.0600000    1.0080
  170        HC    1  MOL    H170   170   0.0600000    1.0080
  171        CT    1  MOL    C171   171   0.1400000   12.0115
  172         N    1  MOL    N172   172  -0.5000000   14.0067
  173         C    1  MOL    C173   173   0.5000000   12.0115
  174         O    1  MOL    O174   174  -0.5000000   15.9994
  175        CT    1  MOL    C175   175  -0.1800000   12.0115
  176        CT    1  MOL    C176   176  -0.1200000   12.0115
  177        HC    1  MOL    H177   177   0.0600000    1.0080
  178         H    1  MOL    H178   178   0.3000000    1.0080
  179        HC    1  MOL    H179   179   0.0600000    1.0080
  180        HC    1  MOL    H180   180   0.0600000    1.0080
  181        HC    1  MOL    H181   181   0.0600000    1.0080
  182        HC    1  MOL    H182   182   0.0600000    1.0080
  183        HC    1  MOL    H183   183   0.0600000    1.0080
  184        CT    1  MOL    C184   184   0.1400000   12.0115
  185         N    1  MOL    N185   185  -0.5000000   14.0067
  186         C    1  MOL    C186   186   0.5000000   12.0115
  187         O    1  MOL    O187   187  -0.5000000   15.9994
  188        CT    1  MOL    C188   188  -0.1800000   12.0115
  189        CT    1  MOL    C189   189  -0.1200000   12.0115
  190        HC    1  MOL    H190   190   0.0600000    1.0080
  191         H    1  MOL    H191   191   0.3000000    1.0080
  192        HC    1  MOL    H192   192   0.0600000    1.0080
  193        HC    1  MOL    H193   193   0.0600000    1.0080
  194        HC    1  MOL    H194   194   0.0600000    1.0080
  195        HC    1  MOL    H195   195   0.0600000    1.0080
  196        HC    1  MOL    H196   196   0.0600000    1.0080
  197        CT    1  MOL    C197   197   0.1400000   12.0115
  198         N    1  MOL    N198   198  -0.5000000   14.0067
  199         C    1  MOL    C199   199   0.5000000   12.0115
  200         O    1  MOL    O200   200  -0.5000000   15.9994
  201        CT    1  MOL    C201   201  -0.1800000   12.0115
  202        CT    1  MOL    C202   202  -0.1200000   12.0115
  203        HC    1  MOL    H203   203   0.0600000    1.0080
  204         H    1  MOL    H204   204   0.3000000    1.0080
  205        HC    1  MOL    H205   205   0.0600000    1.0080
  206        HC    1  MOL    H206   206   0.0600000    1.0080
  207        HC    1  MOL    H207   207   0.0600000    1.0080
  208        HC    1  MOL    H208   208   0.0600000    1.0080
  209        HC    1  MOL    H209   209   0.0600000    1.0080
  210        CT    1  MOL    C210   210   0.1400000   12.0115
  211         N    1  MOL    N211   211  -0.5000000   14.0067
  212         C    1  MOL    C212   212   0.5000000   12.0115
  213         O    1  MOL    O213   213  -0.5000000   15.9994
  214        CT    1  MOL    C214   214  -0.1800000   12.0115
  215        CT    1  MOL    C215   215  -0.1200000   12.0115
  216        HC    1  MOL    H216   216   0.0600000    1.0080
  217         H    1  MOL    H217   217   0.3000000    1.0080
  218        HC    1  MOL    H218   218   0.0600000    1.0080
  219        HC    1  MOL    H219   219   0.0600000    1.0080
  220        HC    1  MOL    H220   220   0.0600000    1.0080
  221        HC    1  MOL    H221   221   0.0600000    1.0080
  222        HC    1  MOL    H222   222   0.0600000    1.0080
  223        CT    1  MOL    C223   223   0.1400000   12.0115
  224         N    1  MOL    N224   224  -0.5000000   14.0067
  225         C    1  MOL    C225   225   0.5000000   12.0115
  226         O    1  MOL    O226   226  -0.5000000   15.9994
  227        CT    1  MOL    C227   227  -0.1800000   12.0115
  228        CT    1  MOL    C228   228  -0.1200000   12.0115
  229        HC    1  MOL    H229   229   0.0600000    1.0080
  230         H    1  MOL    H230   230   0.3000000    1.0080
  231        HC    1  MOL    H231   231   0.0600000    1.0080
  232        HC    1  MOL    H232   232   0.0600000    1.0080
  233        HC    1  MOL    H233   233   0.0600000    1.0080
  234        HC    1  MOL    H234   234   0.0600000    1.0080
  235        HC    1  MOL    H235   235   0.0600000    1.0080
  236        CT    1  MOL    C236   236   0.1400000   12.0115
  237         N    1  MOL    N237   237  -0.5000000   14.0067
  238         C    1  MOL    C238   238   0.5000000   12.0115
  239         O    1  MOL    O239   239  -0.5000000   15.9994
  240        CT    1  MOL    C240   240  -0.1800000   12.0115
  241        CT    1  MOL    C241   241  -0.1200000   12.0115
  242        HC    1  MOL    H242   242   0.0600000    1.0080
  243         H    1  MOL    H243   243   0.3000000    1.0080
  244        HC    1  MOL    H244   244   0.0600000    1.0080
  245        HC    1  MOL    H245   245   0.0600000    1.0080
  246        HC    1  MOL    H246   246   0.0600000    1.0080
  247        HC    1  MOL    H247   247   0.0600000    1.0080
  248        HC    1  MOL    H248   248   0.0600000    1.0080
  249        CT    1  MOL    C249   249   0.1400000   12.0115
  250         N    1  MOL    N250   250  -0.5000000   14.0067
  251         C    1  MOL    C251   251   0.5000000   12.0115
  252         O    1  MOL    O252   252  -0.5000000   15.9994
  253        CT    1  MOL    C253   253  -0.1800000   12.0115
  254        CT    1  MOL    C254   254  -0.1800000   12.0115
  255        HC    1  MOL    H255   255   0.0600000    1.0080
  256         H    1  MOL    H256   256   0.3000000    1.0080
  257        HC    1  MOL    H257   257   0.0600000    1.0080
  258        HC    1  MOL    H258   258   0.0600000    1.0080
  259        HC    1  MOL    H259   259   0.0600000    1.0080
  260        HC    1  MOL    H260   260   0.0600000    1.0080
  261        HC    1  MOL    H261   261   0.0600000    1.0080
  262        HC    1  MOL    H262   262   0.0600000    1.0080

[ bonds ]
      1      2   1      0.1449 282001.6000
      1      6   1      0.1529 224262.4000
      1      7   1      0.1090 284512.0000
      1     14   1      0.1090 284512.0000
      2      3   1      0.1335 410032.0000
      2      8   1      0.1010 363171.2000
      3      4   1      0.1229 476976.0000
      3      5   1      0.1522 265265.6000
      5      9   1      0.1090 284512.0000
      5     10   1      0.1090 284512.0000
      5     11   1      0.1090 284512.0000
      6     12   1      0.1090 284512.0000
      6     13   1      0.1090 284512.0000
      6     15   1      0.1529 224262.4000
     15     16   1      0.1449 282001.6000
     15     20   1      0.1529 224262.4000
     15     21   1      0.1090 284512.0000
     16     17   1      0.1335 410032.0000
     16     22   1      0.1010 363171.2000
     17     18   1      0.1229 476976.0000
     17     19   1      0.1522 265265.6000
     19     23   1      0.1090 284512.0000
     19     24   1      0.1090 284512.0000
     19     25   1      0.1090 284512.0000
     20     26   1      0.1090 284512.0000
     20     27   1      0.1090 284512.0000
     20     28   1      0.1529 224262.4000
     28     29   1      0.1449 282001.6000
     28     33   1      0.1529 224262.4000
     28     34   1      0.1090 284512.0000
     29     30   1      0.1335 410032.0000
     29     35   1      0.1010 363171.2000
     30     31   1      0.1229 476976.0000
     30     32   1      0.1522 265265.6000
     32     36   1      0.1090 284512.0000
     32     37   1      0.1090 284512.0000
     32     38   1      0.1090 284512.0000
     33     39   1      0.1090 284512.0000
     33     40   1      0.1090 284512.0000
     33     41   1      0.1529 224262.4000
     41     42   1      0.1449 282001.6000
     41     46   1      0.1529 224262.4000
     41     47   1      0.1090 284512.0000
     42     43   1      0.1335 410032.0000
     42     48   1      0.1010 363171.2000
     43     44   1      0.1229 476976.0000
     43     45   1      0.1522 265265.6000
     45     49   1      0.1090 284512.0000
     45     50   1      0.1090 284512.0000
     45     51   1      0.1090 284512.0000
     46     52   1      0.1090 284512.0000
     46     53   1      0.1090 284512.0000
     46     54   1      0.1529 224262.4000
     54     55   1      0.1449 282001.6000
     54     59   1      0.1529 224262.4000
     54     60   1      0.1090 284512.0000
     55     56   1      0.1335 410032.0000
     55     61   1      0.1010 363171.2000
     56     57   1      0.1229 476976.0000
     56     58   1      0.1522 265265.6000
     58     62   1      0.1090 284512.0000
     58     63   1      0.1090 284512.0000
     58     64   1      0.1090 284512.0000
     59     65   1      0.1090 284512.0000
     59     66   1      0.1090 284512.0000
     59     67   1      0.1529 224262.4000
     67     68   1      0.1449 282001.6000
     67     72   1      0.1529 224262.4000
     67     73   1      0.1090 284512.0000
     68     69   1      0.1335 410032.0000
     68     74   1      0.1010 363171.2000
     69     70   1      0.1229 476976.0000
     69     71   1      0.1522 265265.6000
     71     75   1      0.1090 284512.0000
     71     76   1      0.1090 284512.0000
     71     77   1      0.1090 284512.0000
     72     78   1      0.1090 284512.0000
     72     79   1      0.1090 284512.0000
     72     80   1      0.1529 224262.4000
     80     81   1      0.1449 282001.6000
     80     85   1      0.1529 224262.4000
     80     86   1      0.1090 284512.0000
     81     82   1      0.1335 410032.0000
     81     87   1      0.1010 363171.2000
     82     83   1      0.1229 476976.0000
     82     84   1      0.1522 265265.6000
     84     88   1      0.1090 284512.0000
     84     89   1      0.1090 284512.0000
     84     90   1      0.1090 284512.0000
     85     91   1      0.1090 284512.0000
     85     92   1      0.1090 284512.0000
     85     93   1      0.1529 224262.4000
     93     94   1      0.1449 282001.6000
     93     98   1      0.1529 224262.4000
     93     99   1      0.1090 284512.0000
     94     95   1      0.1335 410032.0000
     94    100   1      0.1010 363171.2000
     95     96   1      0.1229 476976.0000
     95     97   1      0.1522 265265.6000
     97    101   1      0.1090 284512.0000
     97    102   1      0.1090 284512.0000
     97    103   1      0.1090 284512.0000
     98    104   1      0.1090 284512.0000
     98    105   1      0.1090 284512.0000
     98    106   1      0.1529 224262.4000
    106    107   1      0.1449 282001.6000
    106    111   1      0.1529 224262.4000
    106    112   1      0.1090 284512.0000
    107    108   1      0.1335 410032.0000
    107    113   1      0.1010 363171.2000
    108    109   1      0.1229 476976.0000
    108    110   1      0.1522 265265.6000
    110    114   1      0.1090 284512.0000
    110    115   1      0.1090 284512.0000
    110    116   1      0.1090 284512.0000
    111    117   1      0.1090 284512.0000
    111    118   1      0.1090 284512.0000
    111    119   1      0.1529 224262.4000
    119    120   1      0.1449 282001.6000
    119    124   1      0.1529 224262.4000
    119    125   1      0.1090 284512.0000
    120    121   1      0.1335 410032.0000
    120    126   1      0.1010 363171.2000
    121    122   1      0.1229 476976.0000
    121    123   1      0.1522 265265.6000
    123    127   1      0.1090 284512.0000
    123    128   1      0.1090 284512.0000
    123    129   1      0.1090 284512.0000
    124    130   1      0.1090 284512.0000
    124    131   1      0.1090 284512.0000
    124    132   1      0.1529 224262.4000
    132    133   1      0.1449 282001.6000
    132    137   1      0.1529 224262.4000
    132    138   1      0.1090 284512.0000
    133    134   1      0.1335 410032.0000
    133    139   1      0.1010 363171.2000
    134    135   1      0.1229 476976.0000
    134    136   1      0.1522 265265.6000
    136    140   1      0.1090 284512.0000
    136    141   1      0.1090 284512.0000
    136    142   1      0.1090 284512.0000
    137    143   1      0.1090 284512.0000
    137    144   1      0.1090 284512.0000
    137    145   1      0.1529 224262.4000
    145    146   1      0.1449 282001.6000
    145    150   1      0.1529 224262.4000
    145    151   1      0.1090 284512.0000
    146    147   1      0.1335 410032.0000
    146    152   1      0.1010 363171.2000
    147    148   1      0.1229 476976.0000
    147    149   1      0.1522 265265.6000
    149    153   1      0.1090 284512.0000
    149    154   1      0.1090 284512.0000
    149    155   1      0.1090 284512.0000
    150    156   1      0.1090 284512.0000
    150    157   1      0.1090 284512.0000
    150    158   1      0.1529 224262.4000
    158    159   1      0.1449 282001.6000
    158    163   1      0.1529 224262.4000
    158    164   1      0.1090 284512.0000
    159    160   1      0.1335 410032.0000
    159    165   1      0.1010 363171.2000
    160    161   1      0.1229 476976.0000
    160    162   1      0.1522 265265.6000
    162    166   1      0.1090 284512.0000
    162    167   1      0.1090 284512.0000
    162    168   1      0.1090 284512.0000
    163    169   1      0.1090 284512.0000
    163    170   1      0.1090 284512.0000
    163    171   1      0.1529 224262.4000
    171    172   1      0.1449 282001.6000
    171    176   1      0.1529 224262.4000
    171    177   1      0.1090 284512.0000
    172    173   1      0.1335 410032.0000
    172    178   1      0.1010 363171.2000
    173    174   1      0.1229 476976.0000
    173    175   1      0.1522 265265.6000
    175    179   1      0.1090 284512.0000
    175    180   1      0.1090 284512.0000
    175    181   1      0.1090 284512.0000
    176    182   1      0.1090 284512.0000
    176    183   1      0.1090 284512.0000
    176    184   1      0.1529 224262.4000
    184    185   1      0.1449 282001.6000
    184    189   1      0.1529 224262.4000
    184    190   1      0.1090 284512.0000
    185    186   1      0.1335 410032.0000
    185    191   1      0.1010 363171.2000
    186    187   1      0.1229 476976.0000
    186    188   1      0.1522 265265.6000
    188    192   1      0.1090 284512.0000
    188    193   1      0.1090 284512.0000
    188    194   1      0.1090 284512.0000
    189    195   1      0.1090 284512.0000
    189    196   1      0.1090 284512.0000
    189    197   1      0.1529 224262.4000
    197    198   1      0.1449 282001.6000
    197    202   1      0.1529 224262.4000
    197    203   1      0.1090 284512.0000
    198    199   1      0.1335 410032.0000
    198    204   1      0.1010 363171.2000
    199    200   1      0.1229 476976.0000
    199    201   1      0.1522 265265.6000
    201    205   1      0.1090 284512.0000
    201    206   1      0.1090 284512.0000
    201    207   1      0.1090 284512.0000
    202    208   1      0.1090 284512.0000
    202    209   1      0.1090 284512.0000
    202    210   1      0.1529 224262.4000
    210    211   1      0.1449 282001.6000
    210    215   1      0.1529 224262.4000
    210    216   1      0.1090 284512.0000
    211    212   1      0.1335 410032.0000
    211    217   1      0.1010 363171.2000
    212    213   1      0.1229 476976.0000
    212    214   1      0.1522 265265.6000
    214    218   1      0.1090 284512.0000
    214    219   1      0.1090 284512.0000
    214    220   1      0.1090 284512.0000
    215    221   1      0.1090 284512.0000
    215    222   1      0.1090 284512.0000
    215    223   1      0.1529 224262.4000
    223    224   1      0.1449 282001.6000
    223    228   1      0.1529 224262.4000
    223    229   1      0.1090 284512.0000
    224    225   1      0.1335 410032.0000
    224    230   1      0.1010 363171.2000
    225    226   1      0.1229 476976.0000
    225    227   1      0.1522 265265.6000
    227    231   1      0.1090 284512.0000
    227    232   1      0.1090 284512.0000
    227    233   1      0.1090 284512.0000
    228    234   1      0.1090 284512.0000
    228    235   1      0.1090 284512.0000
    228    236   1      0.1529 224262.4000
    236    237   1      0.1449 282001.6000
    236    241   1      0.1529 224262.4000
    236    242   1      0.1090 284512.0000
    237    238   1      0.1335 410032.0000
    237    243   1      0.1010 363171.2000
    238    239   1      0.1229 476976.0000
    238    240   1      0.1522 265265.6000
    240    244   1      0.1090 284512.0000
    240    245   1      0.1090 284512.0000
    240    246   1      0.1090 284512.0000
    241    247   1      0.1090 284512.0000
    241    248   1      0.1090 284512.0000
    241    249   1      0.1529 224262.4000
    249    250   1      0.1449 282001.6000
    249    254   1      0.1529 224262.4000
    249    255   1      0.1090 284512.0000
    250    251   1      0.1335 410032.0000
    250    256   1      0.1010 363171.2000
    251    252   1      0.1229 476976.0000
    251    253   1      0.1522 265265.6000
    253    257   1      0.1090 284512.0000
    253    258   1      0.1090 284512.0000
    253    259   1      0.1090 284512.0000
    254    260   1      0.1090 284512.0000
    254    261   1      0.1090 284512.0000
    254    262   1      0.1090 284512.0000

[ pairs ]
; ai   aj   funct   fudge_QQ  charge_i   charge_j   c6    c12
      6      3   2   0.50000    -0.1200000    0.5000000   1.575021e-03  3.561100e-06
      6      8   2   0.50000    -0.1200000    0.3000000   1.995577e-06  1.069504e-11
      7      3   2   0.50000     0.0600000    0.5000000   3.869820e-04  3.188634e-07
      7      8   2   0.50000     0.0600000    0.3000000   4.903125e-07  9.576416e-13
     14      3   2   0.50000     0.0600000    0.5000000   3.869820e-04  3.188634e-07
     14      8   2   0.50000     0.0600000    0.3000000   4.903125e-07  9.576416e-13
      2     12   2   0.50000    -0.5000000    0.0600000   3.205360e-04  1.719281e-07
      2     13   2   0.50000    -0.5000000    0.0600000   3.205360e-04  1.719281e-07
      2     15   2   0.50000    -0.5000000    0.1400000   1.304585e-03  1.920112e-06
      7     12   2   0.50000     0.0600000    0.0600000   6.128906e-05  1.496315e-08
      7     13   2   0.50000     0.0600000    0.0600000   6.128906e-05  1.496315e-08
      7     15   2   0.50000     0.0600000    0.1400000   2.494471e-04  1.671101e-07
     14     12   2   0.50000     0.0600000    0.0600000   6.128906e-05  1.496315e-08
     14     13   2   0.50000     0.0600000    0.0600000   6.128906e-05  1.496315e-08
     14     15   2   0.50000     0.0600000    0.1400000   2.494471e-04  1.671101e-07
      1      4   2   0.50000     0.0800000   -0.5000000   1.095425e-03  1.218041e-06
      1      5   2   0.50000     0.0800000   -0.1800000   1.015252e-03  1.866303e-06
      8      4   2   0.50000     0.3000000   -0.5000000   2.153164e-06  6.980110e-12
      8      5   2   0.50000     0.3000000   -0.1800000   1.995577e-06  1.069504e-11
      2      9   2   0.50000    -0.5000000    0.0600000   3.205360e-04  1.719281e-07
      2     10   2   0.50000    -0.5000000    0.0600000   3.205360e-04  1.719281e-07
      2     11   2   0.50000    -0.5000000    0.0600000   3.205360e-04  1.719281e-07
      4      9   2   0.50000    -0.5000000    0.0600000   2.691455e-04  1.090642e-07
      4     10   2   0.50000    -0.5000000    0.0600000   2.691455e-04  1.090642e-07
      4     11   2   0.50000    -0.5000000    0.0600000   2.691455e-04  1.090642e-07
      1     16   2   0.50000     0.0800000   -0.5000000   1.304585e-03  1.920112e-06
      1     20   2   0.50000     0.0800000   -0.1200000   1.015252e-03  1.866303e-06
      1     21   2   0.50000     0.0800000    0.0600000   2.494471e-04  1.671101e-07
     12     16   2   0.50000     0.0600000   -0.5000000   3.205360e-04  1.719281e-07
     12     20   2   0.50000     0.0600000   -0.1200000   2.494471e-04  1.671101e-07
     12     21   2   0.50000     0.0600000    0.0600000   6.128906e-05  1.496315e-08
     13     16   2   0.50000     0.0600000   -0.5000000   3.205360e-04  1.719281e-07
     13     20   2   0.50000     0.0600000   -0.1200000   2.494471e-04  1.671101e-07
     13     21   2   0.50000     0.0600000    0.0600000   6.128906e-05  1.496315e-08
      6     17   2   0.50000    -0.1200000    0.5000000   1.575021e-03  3.561100e-06
      6     22   2   0.50000    -0.1200000    0.3000000   1.995577e-06  1.069504e-11
     20     17   2   0.50000    -0.1200000    0.5000000   1.575021e-03  3.561100e-06
     20     22   2   0.50000    -0.1200000    0.3000000   1.995577e-06  1.069504e-11
     21     17   2   0.50000     0.0600000    0.5000000   3.869820e-04  3.188634e-07
     21     22   2   0.50000     0.0600000    0.3000000   4.903125e-07  9.576416e-13
      6     26   2   0.50000    -0.1200000    0.0600000   2.494471e-04  1.671101e-07
      6     27   2   0.50000    -0.1200000    0.0600000   2.494471e-04  1.671101e-07
      6     28   2   0.50000    -0.1200000    0.1400000   1.015252e-03  1.866303e-06
     16     26   2   0.50000    -0.5000000    0.0600000   3.205360e-04  1.719281e-07
     16     27   2   0.50000    -0.5000000    0.0600000   3.205360e-04  1.719281e-07
     16     28   2   0.50000    -0.5000000    0.1400000   1.304585e-03  1.920112e-06
     21     26   2   0.50000     0.0600000    0.0600000   6.128906e-05  1.496315e-08
     21     27   2   0.50000     0.0600000    0.0600000   6.128906e-05  1.496315e-08
     21     28   2   0.50000     0.0600000    0.1400000   2.494471e-04  1.671101e-07
     15     18   2   0.50000     0.1400000   -0.5000000   1.095425e-03  1.218041e-06
     15     19   2   0.50000     0.1400000   -0.1800000   1.015252e-03  1.866303e-06
     22     18   2   0.50000     0.3000000   -0.5000000   2.153164e-06  6.980110e-12
     22     19   2   0.50000     0.3000000   -0.1800000   1.995577e-06  1.069504e-11
     16     23   2   0.50000    -0.5000000    0.0600000   3.205360e-04  1.719281e-07
     16     24   2   0.50000    -0.5000000    0.0600000   3.205360e-04  1.719281e-07
     16     25   2   0.50000    -0.5000000    0.0600000   3.205360e-04  1.719281e-07
     18     23   2   0.50000    -0.5000000    0.0600000   2.691455e-04  1.090642e-07
     18     24   2   0.50000    -0.5000000    0.0600000   2.691455e-04  1.090642e-07
     18     25   2   0.50000    -0.5000000    0.0600000   2.691455e-04  1.090642e-07
     15     29   2   0.50000     0.1400000   -0.5000000   1.304585e-03  1.920112e-06
     15     33   2   0.50000     0.1400000   -0.1200000   1.015252e-03  1.866303e-06
     15     34   2   0.50000     0.1400000    0.0600000   2.494471e-04  1.671101e-07
     26     29   2   0.50000     0.0600000   -0.5000000   3.205360e-04  1.719281e-07
     26     33   2   0.50000     0.0600000   -0.1200000   2.494471e-04  1.671101e-07
     26     34   2   0.50000     0.0600000    0.0600000   6.128906e-05  1.496315e-08
     27     29   2   0.50000     0.0600000   -0.5000000   3.205360e-04  1.719281e-07
     27     33   2   0.50000     0.0600000   -0.1200000   2.494471e-04  1.671101e-07
     27     34   2   0.50000     0.0600000    0.0600000   6.128906e-05  1.496315e-08
     20     30   2   0.50000    -0.1200000    0.5000000   1.575021e-03  3.561100e-06
     20     35   2   0.50000    -0.1200000    0.3000000   1.995577e-06  1.069504e-11
     33     30   2   0.50000    -0.1200000    0.5000000   1.575021e-03  3.561100e-06
     33     35   2   0.50000    -0.1200000    0.3000000   1.995577e-06  1.069504e-11
     34     30   2   0.50000     0.0600000    0.5000000   3.869820e-04  3.188634e-07
     34     35   2   0.50000     0.0600000    0.3000000   4.903125e-07  9.576416e-13
     20     39   2   0.50000    -0.1200000    0.0600000   2.494471e-04  1.671101e-07
     20     40   2   0.50000    -0.1200000    0.0600000   2.494471e-04  1.671101e-07
     20     41   2   0.50000    -0.1200000    0.1400000   1.015252e-03  1.866303e-06
     29     39   2   0.50000    -0.5000000    0.0600000   3.205360e-04  1.719281e-07
     29     40   2   0.50000    -0.5000000    0.0600000   3.205360e-04  1.719281e-07
     29     41   2   0.50000    -0.5000000    0.1400000   1.304585e-03  1.920112e-06
     34     39   2   0.50000     0.0600000    0.0600000   6.128906e-05  1.496315e-08
     34     40   2   0.50000     0.0600000    0.0600000   6.128906e-05  1.496315e-08
     34     41   2   0.50000     0.0600000    0.1400000   2.494471e-04  1.671101e-07
     28     31   2   0.50000     0.1400000   -0.5000000   1.095425e-03  1.218041e-06
     28     32   2   0.50000     0.1400000   -0.1800000   1.015252e-03  1.866303e-06
     35     31   2   0.50000     0.3000000   -0.5000000   2.153164e-06  6.980110e-12
     35     32   2   0.50000     0.3000000   -0.1800000   1.995577e-06  1.069504e-11
     29     36   2   0.50000    -0.5000000    0.0600000   3.205360e-04  1.719281e-07
     29     37   2   0.50000    -0.5000000    0.0600000   3.205360e-04  1.719281e-07
     29     38   2   0.50000    -0.5000000    0.0600000   3.205360e-04  1.719281e-07
     31     36   2   0.50000    -0.5000000    0.0600000   2.691455e-04  1.090642e-07
     31     37   2   0.50000    -0.5000000    0.0600000   2.691455e-04  1.090642e-07
     31     38   2   0.50000    -0.5000000    0.0600000   2.691455e-04  1.090642e-07
     28     42   2   0.50000     0.1400000   -0.5000000   1.304585e-03  1.920112e-06
     28     46   2   0.50000     0.1400000   -0.1200000   1.015252e-03  1.866303e-06
     28     47   2   0.50000     0.1400000    0.0600000   2.494471e-04  1.671101e-07
     39     42   2   0.50000     0.0600000   -0.5000000   3.205360e-04  1.719281e-07
     39     46   2   0.50000     0.0600000   -0.1200000   2.494471e-04  1.671101e-07
     39     47   2   0.50000     0.0600000    0.0600000   6.128906e-05  1.496315e-08
     40     42   2   0.50000     0.0600000   -0.5000000   3.205360e-04  1.719281e-07
     40     46   2   0.50000     0.0600000   -0.1200000   2.494471e-04  1.671101e-07
     40     47   2   0.50000     0.0600000    0.0600000   6.128906e-05  1.496315e-08
     33     43   2   0.50000    -0.1200000    0.5000000   1.575021e-03  3.561100e-06
     33     48   2   0.50000    -0.1200000    0.3000000   1.995577e-06  1.069504e-11
     46     43   2   0.50000    -0.1200000    0.5000000   1.575021e-03  3.561100e-06
     46     48   2   0.50000    -0.1200000    0.3000000   1.995577e-06  1.069504e-11
     47     43   2   0.50000     0.0600000    0.5000000   3.869820e-04  3.188634e-07
     47     48   2   0.50000     0.0600000    0.3000000   4.903125e-07  9.576416e-13
     33     52   2   0.50000    -0.1200000    0.0600000   2.494471e-04  1.671101e-07
     33     53   2   0.50000    -0.1200000    0.0600000   2.494471e-04  1.671101e-07
     33     54   2   0.50000    -0.1200000    0.1400000   1.015252e-03  1.866303e-06
     42     52   2   0.50000    -0.5000000    0.0600000   3.205360e-04  1.719281e-07
     42     53   2   0.50000    -0.5000000    0.0600000   3.205360e-04  1.719281e-07
     42     54   2   0.50000    -0.5000000    0.1400000   1.304585e-03  1.920112e-06
     47     52   2   0.50000     0.0600000    0.0600000   6.128906e-05  1.496315e-08
     47     53   2   0.50000     0.0600000    0.0600000   6.128906e-05  1.496315e-08
     47     54   2   0.50000     0.0600000    0.1400000   2.494471e-04  1.671101e-07
     41     44   2   0.50000     0.1400000   -0.5000000   1.095425e-03  1.218041e-06
     41     45   2   0.50000     0.1400000   -0.1800000   1.015252e-03  1.866303e-06
     48     44   2   0.50000     0.3000000   -0.5000000   2.153164e-06  6.980110e-12
     48     45   2   0.50000     0.3000000   -0.1800000   1.995577e-06  1.069504e-11
     42     49   2   0.50000    -0.5000000    0.0600000   3.205360e-04  1.719281e-07
     42     50   2   0.50000    -0.5000000    0.0600000   3.205360e-04  1.719281e-07
     42     51   2   0.50000    -0.5000000    0.0600000   3.205360e-04  1.719281e-07
     44     49   2   0.50000    -0.5000000    0.0600000   2.691455e-04  1.090642e-07
     44     50   2   0.50000    -0.5000000    0.0600000   2.691455e-04  1.090642e-07
     44     51   2   0.50000    -0.5000000    0.0600000   2.691455e-04  1.090642e-07
     41     55   2   0.50000     0.1400000   -0.5000000   1.304585e-03  1.920112e-06
     41     59   2   0.50000     0.1400000   -0.1200000   1.015252e-03  1.866303e-06
     41     60   2   0.50000     0.1400000    0.0600000   2.494471e-04  1.671101e-07
     52     55   2   0.50000     0.0600000   -0.5000000   3.205360e-04  1.719281e-07
     52     59   2   0.50000     0.0600000   -0.1200000   2.494471e-04  1.671101e-07
     52     60   2   0.50000     0.0600000    0.0600000   6.128906e-05  1.496315e-08
     53     55   2   0.50000     0.0600000   -0.5000000   3.205360e-04  1.719281e-07
     53     59   2   0.50000     0.0600000   -0.1200000   2.494471e-04  1.671101e-07
     53     60   2   0.50000     0.0600000    0.0600000   6.128906e-05  1.496315e-08
     46     56   2   0.50000    -0.1200000    0.5000000   1.575021e-03  3.561100e-06
     46     61   2   0.50000    -0.1200000    0.3000000   1.995577e-06  1.069504e-11
     59     56   2   0.50000    -0.1200000    0.5000000   1.575021e-03  3.561100e-06
     59     61   2   0.50000    -0.1200000    0.3000000   1.995577e-06  1.069504e-11
     60     56   2   0.50000     0.0600000    0.5000000   3.869820e-04  3.188634e-07
     60     61   2   0.50000     0.0600000    0.3000000   4.903125e-07  9.576416e-13
     46     65   2   0.50000    -0.1200000    0.0600000   2.494471e-04  1.671101e-07
     46     66   2   0.50000    -0.1200000    0.0600000   2.494471e-04  1.671101e-07
     46     67   2   0.50000    -0.1200000    0.1400000   1.015252e-03  1.866303e-06
     55     65   2   0.50000    -0.5000000    0.0600000   3.205360e-04  1.719281e-07
     55     66   2   0.50000    -0.5000000    0.0600000   3.205360e-04  1.719281e-07
     55     67   2   0.50000    -0.5000000    0.1400000   1.304585e-03  1.920112e-06
     60     65   2   0.50000     0.0600000    0.0600000   6.128906e-05  1.496315e-08
     60     66   2   0.50000     0.0600000    0.0600000   6.128906e-05  1.496315e-08
     60     67   2   0.50000     0.0600000    0.1400000   2.494471e-04  1.671101e-07
     54     57   2   0.50000     0.1400000   -0.5000000   1.095425e-03  1.218041e-06
     54     58   2   0.50000     0.1400000   -0.1800000   1.015252e-03  1.866303e-06
     61     57   2   0.50000     0.3000000   -0.5000000   2.153164e-06  6.980110e-12
     61     58   2   0.50000     0.3000000   -0.1800000   1.995577e-06  1.069504e-11
     55     62   2   0.50000    -0.5000000    0.0600000   3.205360e-04  1.719281e-07
     55     63   2   0.50000    -0.5000000    0.0600000   3.205360e-04  1.719281e-07
     55     64   2   0.50000    -0.5000000    0.0600000   3.205360e-04  1.719281e-07
     57     62   2   0.50000    -0.5000000    0.0600000   2.691455e-04  1.090642e-07
     57     63   2   0.50000    -0.5000000    0.0600000   2.691455e-04  1.090642e-07
     57     64   2   0.50000    -0.5000000    0.0600000   2.691455e-04  1.090642e-07
     54     68   2   0.50000     0.1400000   -0.5000000   1.304585e-03  1.920112e-06
     54     72   2   0.50000     0.1400000   -0.1200000   1.015252e-03  1.866303e-06
     54     73   2   0.50000     0.1400000    0.0600000   2.494471e-04  1.671101e-07
     65     68   2   0.50000     0.0600000   -0.5000000   3.205360e-04  1.719281e-07
     65     72   2   0.50000     0.0600000   -0.1200000   2.494471e-04  1.671101e-07
     65     73   2   0.50000     0.0600000    0.0600000   6.128906e-05  1.496315e-08
     66     68   2   0.50000     0.0600000   -0.5000000   3.205360e-04  1.719281e-07
     66     72   2   0.50000     0.0600000   -0.1200000   2.494471e-04  1.671101e-07
     66     73   2   0.50000     0.0600000    0.0600000   6.128906e-05  1.496315e-08
     59     69   2   0.50000    -0.1200000    0.5000000   1.575021e-03  3.561100e-06
     59     74   2   0.50000    -0.1200000    0.3000000   1.995577e-06  1.069504e-11
     72     69   2   0.50000    -0.1200000    0.5000000   1.575021e-03  3.561100e-06
     72     74   2   0.50000    -0.1200000    0.3000000   1.995577e-06  1.069504e-11
     73     69   2   0.50000     0.0600000    0.5000000   3.869820e-04  3.188634e-07
     73     74   2   0.50000     0.0600000    0.3000000   4.903125e-07  9.576416e-13
     59     78   2   0.50000    -0.1200000    0.0600000   2.494471e-04  1.671101e-07
     59     79   2   0.50000    -0.1200000    0.0600000   2.494471e-04  1.671101e-07
     59     80   2   0.50000    -0.1200000    0.1400000   1.015252e-03  1.866303e-06
     68     78   2   0.50000    -0.5000000    0.0600000   3.205360e-04  1.719281e-07
     68     79   2   0.50000    -0.5000000    0.0600000   3.205360e-04  1.719281e-07
     68     80   2   0.50000    -0.5000000    0.1400000   1.304585e-03  1.920112e-06
     73     78   2   0.50000     0.0600000    0.0600000   6.128906e-05  1.496315e-08
     73     79   2   0.50000     0.0600000    0.0600000   6.128906e-05  1.496315e-08
     73     80   2   0.50000     0.0600000    0.1400000   2.494471e-04  1.671101e-07
     67     70   2   0.50000     0.1400000   -0.5000000   1.095425e-03  1.218041e-06
     67     71   2   0.50000     0.1400000   -0.1800000   1.015252e-03  1.866303e-06
     74     70   2   0.50000     0.3000000   -0.5000000   2.153164e-06  6.980110e-12
     74     71   2   0.50000     0.3000000   -0.1800000   1.995577e-06  1.069504e-11
     68     75   2   0.50000    -0.5000000    0.0600000   3.205360e-04  1.719281e-07
     68     76   2   0.50000    -0.5000000    0.0600000   3.205360e-04  1.719281e-07
     68     77   2   0.50000    -0.5000000    0.0600000   3.205360e-04  1.719281e-07
     70     75   2   0.50000    -0.5000000    0.0600000   2.691455e-04  1.090642e-07
     70     76   2   0.50000    -0.5000000    0.0600000   2.691455e-04  1.090642e-07
     70     77   2   0.50000    -0.5000000    0.0600000   2.691455e-04  1.090642e-07
     67     81   2   0.50000     0.1400000   -0.5000000   1.304585e-03  1.920112e-06
     67     85   2   0.50000     0.1400000   -0.1200000   1.015252e-03  1.866303e-06
     67     86   2   0.50000     0.1400000    0.0600000   2.494471e-04  1.671101e-07
     78     81   2   0.50000     0.0600000   -0.5000000   3.205360e-04  1.719281e-07
     78     85   2   0.50000     0.0600000   -0.1200000   2.494471e-04  1.671101e-07
     78     86   2   0.50000     0.0600000    0.0600000   6.128906e-05  1.496315e-08
     79     81   2   0.50000     0.0600000   -0.5000000   3.205360e-04  1.719281e-07
     79     85   2   0.50000     0.0600000   -0.1200000   2.494471e-04  1.671101e-07
     79     86   2   0.50000     0.0600000    0.0600000   6.128906e-05  1.496315e-08
     72     82   2   0.50000    -0.1200000    0.5000000   1.575021e-03  3.561100e-06
     72     87   2   0.50000    -0.1200000    0.3000000   1.995577e-06  1.069504e-11
     85     82   2   0.50000    -0.1200000    0.5000000   1.575021e-03  3.561100e-06
     85     87   2   0.50000    -0.1200000    0.3000000   1.995577e-06  1.069504e-11
     86     82   2   0.50000     0.0600000    0.5000000   3.869820e-04  3.188634e-07
     86     87   2   0.50000     0.0600000    0.3000000   4.903125e-07  9.576416e-13
     72     91   2   0.50000    -0.1200000    0.0600000   2.494471e-04  1.671101e-07
     72     92   2   0.50000    -0.1200000    0.0600000   2.494471e-04  1.671101e-07
     72     93   2   0.50000    -0.1200000    0.1400000   1.015252e-03  1.866303e-06
     81     91   2   0.50000    -0.5000000    0.0600000   3.205360e-04  1.719281e-07
     81     92   2   0.50000    -0.5000000    0.0600000   3.205360e-04  1.719281e-07
     81     93   2   0.50000    -0.5000000    0.1400000   1.304585e-03  1.920112e-06
     86     91   2   0.50000     0.0600000    0.0600000   6.128906e-05  1.496315e-08
     86     92   2   0.50000     0.0600000    0.0600000   6.128906e-05  1.496315e-08
     86     93   2   0.50000     0.0600000    0.1400000   2.494471e-04  1.671101e-07
     80     83   2   0.50000     0.1400000   -0.5000000   1.095425e-03  1.218041e-06
     80     84   2   0.50000     0.1400000   -0.1800000   1.015252e-03  1.866303e-06
     87     83   2   0.50000     0.3000000   -0.5000000   2.153164e-06  6.980110e-12
     87     84   2   0.50000     0.3000000   -0.1800000   1.995577e-06  1.069504e-11
     81     88   2   0.50000    -0.5000000    0.0600000   3.205360e-04  1.719281e-07
     81     89   2   0.50000    -0.5000000    0.0600000   3.205360e-04  1.719281e-07
     81     90   2   0.50000    -0.5000000    0.0600000   3.205360e-04  1.719281e-07
     83     88   2   0.50000    -0.5000000    0.0600000   2.691455e-04  1.090642e-07
     83     89   2   0.50000    -0.5000000    0.0600000   2.691455e-04  1.090642e-07
     83     90   2   0.50000    -0.5000000    0.0600000   2.691455e-04  1.090642e-07
     80     94   2   0.50000     0.1400000   -0.5000000   1.304585e-03  1.920112e-06
     80     98   2   0.50000     0.1400000   -0.1200000   1.015252e-03  1.866303e-06
     80     99   2   0.50000     0.1400000    0.0600000   2.494471e-04  1.671101e-07
     91     94   2   0.50000     0.0600000   -0.5000000   3.205360e-04  1.719281e-07
     91     98   2   0.50000     0.0600000   -0.1200000   2.494471e-04  1.671101e-07
     91     99   2   0.50000     0.0600000    0.0600000   6.128906e-05  1.496315e-08
     92     94   2   0.50000     0.0600000   -0.5000000   3.205360e-04  1.719281e-07
     92     98   2   0.50000     0.0600000   -0.1200000   2.494471e-04  1.671101e-07
     92     99   2   0.50000     0.0600000    0.0600000   6.128906e-05  1.496315e-08
     85     95   2   0.50000    -0.1200000    0.5000000   1.575021e-03  3.561100e-06
     85    100   2   0.50000    -0.1200000    0.3000000   1.995577e-06  1.069504e-11
     98     95   2   0.50000    -0.1200000    0.5000000   1.575021e-03  3.561100e-06
     98    100   2   0.50000    -0.1200000    0.3000000   1.995577e-06  1.069504e-11
     99     95   2   0.50000     0.0600000    0.5000000   3.869820e-04  3.188634e-07
     99    100   2   0.50000     0.0600000    0.3000000   4.903125e-07  9.576416e-13
     85    104   2   0.50000    -0.1200000    0.0600000   2.494471e-04  1.671101e-07
     85    105   2   0.50000    -0.1200000    0.0600000   2.494471e-04  1.671101e-07
     85    106   2   0.50000    -0.1200000    0.1400000   1.015252e-03  1.866303e-06
     94    104   2   0.50000    -0.5000000    0.0600000   3.205360e-04  1.719281e-07
     94    105   2   0.50000    -0.5000000    0.0600000   3.205360e-04  1.719281e-07
     94    106   2   0.50000    -0.5000000    0.1400000   1.304585e-03  1.920112e-06
     99    104   2   0.50000     0.0600000    0.0600000   6.128906e-05  1.496315e-08
     99    105   2   0.50000     0.0600000    0.0600000   6.128906e-05  1.496315e-08
     99    106   2   0.50000     0.0600000    0.1400000   2.494471e-04  1.671101e-07
     93     96   2   0.50000     0.1400000   -0.5000000   1.095425e-03  1.218041e-06
     93     97   2   0.50000     0.1400000   -0.1800000   1.015252e-03  1.866303e-06
    100     96   2   0.50000     0.3000000   -0.5000000   2.153164e-06  6.980110e-12
    100     97   2   0.50000     0.3000000   -0.1800000   1.995577e-06  1.069504e-11
     94    101   2   0.50000    -0.5000000    0.0600000   3.205360e-04  1.719281e-07
     94    102   2   0.50000    -0.5000000    0.0600000   3.205360e-04  1.719281e-07
     94    103   2   0.50000    -0.5000000    0.0600000   3.205360e-04  1.719281e-07
     96    101   2   0.50000    -0.5000000    0.0600000   2.691455e-04  1.090642e-07
     96    102   2   0.50000    -0.5000000    0.0600000   2.691455e-04  1.090642e-07
     96    103   2   0.50000    -0.5000000    0.0600000   2.691455e-04  1.090642e-07
     93    107   2   0.50000     0.1400000   -0.5000000   1.304585e-03  1.920112e-06
     93    111   2   0.50000     0.1400000   -0.1200000   1.015252e-03  1.866303e-06
     93    112   2   0.50000     0.1400000    0.0600000   2.494471e-04  1.671101e-07
    104    107   2   0.50000     0.0600000   -0.5000000   3.205360e-04  1.719281e-07
    104    111   2   0.50000     0.0600000   -0.1200000   2.494471e-04  1.671101e-07
    104    112   2   0.50000     0.0600000    0.0600000   6.128906e-05  1.496315e-08
    105    107   2   0.50000     0.0600000   -0.5000000   3.205360e-04  1.719281e-07
    105    111   2   0.50000     0.0600000   -0.1200000   2.494471e-04  1.671101e-07
    105    112   2   0.50000     0.0600000    0.0600000   6.128906e-05  1.496315e-08
     98    108   2   0.50000    -0.1200000    0.5000000   1.575021e-03  3.561100e-06
     98    113   2   0.50000    -0.1200000    0.3000000   1.995577e-06  1.069504e-11
    111    108   2   0.50000    -0.1200000    0.5000000   1.575021e-03  3.561100e-06
    111    113   2   0.50000    -0.1200000    0.3000000   1.995577e-06  1.069504e-11
    112    108   2   0.50000     0.0600000    0.5000000   3.869820e-04  3.188634e-07
    112    113   2   0.50000     0.0600000    0.3000000   4.903125e-07  9.576416e-13
     98    117   2   0.50000    -0.1200000    0.0600000   2.494471e-04  1.671101e-07
     98    118   2   0.50000    -0.1200000    0.0600000   2.494471e-04  1.671101e-07
     98    119   2   0.50000    -0.1200000    0.1400000   1.015252e-03  1.866303e-06
    107    117   2   0.50000    -0.5000000    0.0600000   3.205360e-04  1.719281e-07
    107    118   2   0.50000    -0.5000000    0.0600000   3.205360e-04  1.719281e-07
    107    119   2   0.50000    -0.5000000    0.1400000   1.304585e-03  1.920112e-06
    112    117   2   0.50000     0.0600000    0.0600000   6.128906e-05  1.496315e-08
    112    118   2   0.50000     0.0600000    0.0600000   6.128906e-05  1.496315e-08
    112    119   2   0.50000     0.0600000    0.1400000   2.494471e-04  1.671101e-07
    106    109   2   0.50000     0.1400000   -0.5000000   1.095425e-03  1.218041e-06
    106    110   2   0.50000     0.1400000   -0.1800000   1.015252e-03  1.866303e-06
    113    109   2   0.50000     0.3000000   -0.5000000   2.153164e-06  6.980110e-12
    113    110   2   0.50000     0.3000000   -0.1800000   1.995577e-06  1.069504e-11
    107    114   2   0.50000    -0.5000000    0.0600000   3.205360e-04  1.719281e-07
    107    115   2   0.50000    -0.5000000    0.0600000   3.205360e-04  1.719281e-07
    107    116   2   0.50000    -0.5000000    0.0600000   3.205360e-04  1.719281e-07
    109    114   2   0.50000    -0.5000000    0.0600000   2.691455e-04  1.090642e-07
    109    115   2   0.50000    -0.5000000    0.0600000   2.691455e-04  1.090642e-07
    109    116   2   0.50000    -0.5000000    0.0600000   2.691455e-04  1.090642e-07
    106    120   2   0.50000     0.1400000   -0.5000000   1.304585e-03  1.920112e-06
    106    124   2   0.50000     0.1400000   -0.1200000   1.015252e-03  1.866303e-06
    106    125   2   0.50000     0.1400000    0.0600000   2.494471e-04  1.671101e-07
    117    120   2   0.50000     0.0600000   -0.5000000   3.205360e-04  1.719281e-07
    117    124   2   0.50000     0.0600000   -0.1200000   2.494471e-04  1.671101e-07
    117    125   2   0.50000     0.0600000    0.0600000   6.128906e-05  1.496315e-08
    118    120   2   0.50000     0.0600000   -0.5000000   3.205360e-04  1.719281e-07
    118    124   2   0.50000     0.0600000   -0.1200000   2.494471e-04  1.671101e-07
    118    125   2   0.50000     0.0600000    0.0600000   6.128906e-05  1.496315e-08
    111    121   2   0.50000    -0.1200000    0.5000000   1.575021e-03  3.561100e-06
    111    126   2   0.50000    -0.1200000    0.3000000   1.995577e-06  1.069504e-11
    124    121   2   0.50000    -0.1200000    0.5000000   1.575021e-03  3.561100e-06
    124    126   2   0.50000    -0.1200000    0.3000000   1.995577e-06  1.069504e-11
    125    121   2   0.50000     0.0600000    0.5000000   3.869820e-04  3.188634e-07
    125    126   2   0.50000     0.0600000    0.3000000   4.903125e-07  9.576416e-13
    111    130   2   0.50000    -0.1200000    0.0600000   2.494471e-04  1.671101e-07
    111    131   2   0.50000    -0.1200000    0.0600000   2.494471e-04  1.671101e-07
    111    132   2   0.50000    -0.1200000    0.1400000   1.015252e-03  1.866303e-06
    120    130   2   0.50000    -0.5000000    0.0600000   3.205360e-04  1.719281e-07
    120    131   2   0.50000    -0.5000000    0.0600000   3.205360e-04  1.719281e-07
    120    132   2   0.50000    -0.5000000    0.1400000   1.304585e-03  1.920112e-06
    125    130   2   0.50000     0.0600000    0.0600000   6.128906e-05  1.496315e-08
    125    131   2   0.50000     0.0600000    0.0600000   6.128906e-05  1.496315e-08
    125    132   2   0.50000     0.0600000    0.1400000   2.494471e-04  1.671101e-07
    119    122   2   0.50000     0.1400000   -0.5000000   1.095425e-03  1.218041e-06
    119    123   2   0.50000     0.1400000   -0.1800000   1.015252e-03  1.866303e-06
    126    122   2   0.50000     0.3000000   -0.5000000   2.153164e-06  6.980110e-12
    126    123   2   0.50000     0.3000000   -0.1800000   1.995577e-06  1.069504e-11
    120    127   2   0.50000    -0.5000000    0.0600000   3.205360e-04  1.719281e-07
    120    128   2   0.50000    -0.5000000    0.0600000   3.205360e-04  1.719281e-07
    120    129   2   0.50000    -0.5000000    0.0600000   3.205360e-04  1.719281e-07
    122    127   2   0.50000    -0.5000000    0.0600000   2.691455e-04  1.090642e-07
    122    128   2   0.50000    -0.5000000    0.0600000   2.691455e-04  1.090642e-07
    122    129   2   0.50000    -0.5000000    0.0600000   2.691455e-04  1.090642e-07
    119    133   2   0.50000     0.1400000   -0.5000000   1.304585e-03  1.920112e-06
    119    137   2   0.50000     0.1400000   -0.1200000   1.015252e-03  1.866303e-06
    119    138   2   0.50000     0.1400000    0.0600000   2.494471e-04  1.671101e-07
    130    133   2   0.50000     0.0600000   -0.5000000   3.205360e-04  1.719281e-07
    130    137   2   0.50000     0.0600000   -0.1200000   2.494471e-04  1.671101e-07
    130    138   2   0.50000     0.0600000    0.0600000   6.128906e-05  1.496315e-08
    131    133   2   0.50000     0.0600000   -0.5000000   3.205360e-04  1.719281e-07
    131    137   2   0.50000     0.0600000   -0.1200000   2.494471e-04  1.671101e-07
    131    138   2   0.50000     0.0600000    0.0600000   6.128906e-05  1.496315e-08
    124    134   2   0.50000    -0.1200000    0.5000000   1.575021e-03  3.561100e-06
    124    139   2   0.50000    -0.1200000    0.3000000   1.995577e-06  1.069504e-11
    137    134   2   0.50000    -0.1200000    0.5000000   1.575021e-03  3.561100e-06
    137    139   2   0.50000    -0.1200000    0.3000000   1.995577e-06  1.069504e-11
    138    134   2   0.50000     0.0600000    0.5000000   3.869820e-04  3.188634e-07
    138    139   2   0.50000     0.0600000    0.3000000   4.903125e-07  9.576416e-13
    124    143   2   0.50000    -0.1200000    0.0600000   2.494471e-04  1.671101e-07
    124    144   2   0.50000    -0.1200000    0.0600000   2.494471e-04  1.671101e-07
    124    145   2   0.50000    -0.1200000    0.1400000   1.015252e-03  1.866303e-06
    133    143   2   0.50000    -0.5000000    0.0600000   3.205360e-04  1.719281e-07
    133    144   2   0.50000    -0.5000000    0.0600000   3.205360e-04  1.719281e-07
    133    145   2   0.50000    -0.5000000    0.1400000   1.304585e-03  1.920112e-06
    138    143   2   0.50000     0.0600000    0.0600000   6.128906e-05  1.496315e-08
    138    144   2   0.50000     0.0600000    0.0600000   6.128906e-05  1.496315e-08
    138    145   2   0.50000     0.0600000    0.1400000   2.494471e-04  1.671101e-07
    132    135   2   0.50000     0.1400000   -0.5000000   1.095425e-03  1.218041e-06
    132    136   2   0.50000     0.1400000   -0.1800000   1.015252e-03  1.866303e-06
    139    135   2   0.50000     0.3000000   -0.5000000   2.153164e-06  6.980110e-12
    139    136   2   0.50000     0.3000000   -0.1800000   1.995577e-06  1.069504e-11
    133    140   2   0.50000    -0.5000000    0.0600000   3.205360e-04  1.719281e-07
    133    141   2   0.50000    -0.5000000    0.0600000   3.205360e-04  1.719281e-07
    133    142   2   0.50000    -0.5000000    0.0600000   3.205360e-04  1.719281e-07
    135    140   2   0.50000    -0.5000000    0.0600000   2.691455e-04  1.090642e-07
    135    141   2   0.50000    -0.5000000    0.0600000   2.691455e-04  1.090642e-07
    135    142   2   0.50000    -0.5000000    0.0600000   2.691455e-04  1.090642e-07
    132    146   2   0.50000     0.1400000   -0.5000000   1.304585e-03  1.920112e-06
    132    150   2   0.50000     0.1400000   -0.1200000   1.015252e-03  1.866303e-06
    132    151   2   0.50000     0.1400000    0.0600000   2.494471e-04  1.671101e-07
    143    146   2   0.50000     0.0600000   -0.5000000   3.205360e-04  1.719281e-07
    143    150   2   0.50000     0.0600000   -0.1200000   2.494471e-04  1.671101e-07
    143    151   2   0.50000     0.0600000    0.0600000   6.128906e-05  1.496315e-08
    144    146   2   0.50000     0.0600000   -0.5000000   3.205360e-04  1.719281e-07
    144    150   2   0.50000     0.0600000   -0.1200000   2.494471e-04  1.671101e-07
    144    151   2   0.50000     0.0600000    0.0600000   6.128906e-05  1.496315e-08
    137    147   2   0.50000    -0.1200000    0.5000000   1.575021e-03  3.561100e-06
    137    152   2   0.50000    -0.1200000    0.3000000   1.995577e-06  1.069504e-11
    150    147   2   0.50000    -0.1200000    0.5000000   1.575021e-03  3.561100e-06
    150    152   2   0.50000    -0.1200000    0.3000000   1.995577e-06  1.069504e-11
    151    147   2   0.50000     0.0600000    0.5000000   3.869820e-04  3.188634e-07
    151    152   2   0.50000     0.0600000    0.3000000   4.903125e-07  9.576416e-13
    137    156   2   0.50000    -0.1200000    0.0600000   2.494471e-04  1.671101e-07
    137    157   2   0.50000    -0.1200000    0.0600000   2.494471e-04  1.671101e-07
    137    158   2   0.50000    -0.1200000    0.1400000   1.015252e-03  1.866303e-06
    146    156   2   0.50000    -0.5000000    0.0600000   3.205360e-04  1.719281e-07
    146    157   2   0.50000    -0.5000000    0.0600000   3.205360e-04  1.719281e-07
    146    158   2   0.50000    -0.5000000    0.1400000   1.304585e-03  1.920112e-06
    151    156   2   0.50000     0.0600000    0.0600000   6.128906e-05  1.496315e-08
    151    157   2   0.50000     0.0600000    0.0600000   6.128906e-05  1.496315e-08
    151    158   2   0.50000     0.0600000    0.1400000   2.494471e-04  1.671101e-07
    145    148   2   0.50000     0.1400000   -0.5000000   1.095425e-03  1.218041e-06
    145    149   2   0.50000     0.1400000   -0.1800000   1.015252e-03  1.866303e-06
    152    148   2   0.50000     0.3000000   -0.5000000   2.153164e-06  6.980110e-12
    152    149   2   0.50000     0.3000000   -0.1800000   1.995577e-06  1.069504e-11
    146    153   2   0.50000    -0.5000000    0.0600000   3.205360e-04  1.719281e-07
    146    154   2   0.50000    -0.5000000    0.0600000   3.205360e-04  1.719281e-07
    146    155   2   0.50000    -0.5000000    0.0600000   3.205360e-04  1.719281e-07
    148    153   2   0.50000    -0.5000000    0.0600000   2.691455e-04  1.090642e-07
    148    154   2   0.50000    -0.5000000    0.0600000   2.691455e-04  1.090642e-07
    148    155   2   0.50000    -0.5000000    0.0600000   2.691455e-04  1.090642e-07
    145    159   2   0.50000     0.1400000   -0.5000000   1.304585e-03  1.920112e-06
    145    163   2   0.50000     0.1400000   -0.1200000   1.015252e-03  1.866303e-06
    145    164   2   0.50000     0.1400000    0.0600000   2.494471e-04  1.671101e-07
    156    159   2   0.50000     0.0600000   -0.5000000   3.205360e-04  1.719281e-07
    156    163   2   0.50000     0.0600000   -0.1200000   2.494471e-04  1.671101e-07
    156    164   2   0.50000     0.0600000    0.0600000   6.128906e-05  1.496315e-08
    157    159   2   0.50000     0.0600000   -0.5000000   3.205360e-04  1.719281e-07
    157    163   2   0.50000     0.0600000   -0.1200000   2.494471e-04  1.671101e-07
    157    164   2   0.50000     0.0600000    0.0600000   6.128906e-05  1.496315e-08
    150    160   2   0.50000    -0.1200000    0.5000000   1.575021e-03  3.561100e-06
    150    165   2   0.50000    -0.1200000    0.3000000   1.995577e-06  1.069504e-11
    163    160   2   0.50000    -0.1200000    0.5000000   1.575021e-03  3.561100e-06
    163    165   2   0.50000    -0.1200000    0.3000000   1.995577e-06  1.069504e-11
    164    160   2   0.50000     0.0600000    0.5000000   3.869820e-04  3.188634e-07
    164    165   2   0.50000     0.0600000    0.3000000   4.903125e-07  9.576416e-13
    150    169   2   0.50000    -0.1200000    0.0600000   2.494471e-04  1.671101e-07
    150    170   2   0.50000    -0.1200000    0.0600000   2.494471e-04  1.671101e-07
    150    171   2   0.50000    -0.1200000    0.1400000   1.015252e-03  1.866303e-06
    159    169   2   0.50000    -0.5000000    0.0600000   3.205360e-04  1.719281e-07
    159    170   2   0.50000    -0.5000000    0.0600000   3.205360e-04  1.719281e-07
    159    171   2   0.50000    -0.5000000    0.1400000   1.304585e-03  1.920112e-06
    164    169   2   0.50000     0.0600000    0.0600000   6.128906e-05  1.496315e-08
    164    170   2   0.50000     0.0600000    0.0600000   6.128906e-05  1.496315e-08
    164    171   2   0.50000     0.0600000    0.1400000   2.494471e-04  1.671101e-07
    158    161   2   0.50000     0.1400000   -0.5000000   1.095425e-03  1.218041e-06
    158    162   2   0.50000     0.1400000   -0.1800000   1.015252e-03  1.866303e-06
    165    161   2   0.50000     0.3000000   -0.5000000   2.153164e-06  6.980110e-12
    165    162   2   0.50000     0.3000000   -0.1800000   1.995577e-06  1.069504e-11
    159    166   2   0.50000    -0.5000000    0.0600000   3.205360e-04  1.719281e-07
    159    167   2   0.50000    -0.5000000    0.0600000   3.205360e-04  1.719281e-07
    159    168   2   0.50000    -0.5000000    0.0600000   3.205360e-04  1.719281e-07
    161    166   2   0.50000    -0.5000000    0.0600000   2.691455e-04  1.090642e-07
    161    167   2   0.50000    -0.5000000    0.0600000   2.691455e-04  1.090642e-07
    161    168   2   0.50000    -0.5000000    0.0600000   2.691455e-04  1.090642e-07
    158    172   2   0.50000     0.1400000   -0.5000000   1.304585e-03  1.920112e-06
    158    176   2   0.50000     0.1400000   -0.1200000   1.015252e-03  1.866303e-06
    158    177   2   0.50000     0.1400000    0.0600000   2.494471e-04  1.671101e-07
    169    172   2   0.50000     0.0600000   -0.5000000   3.205360e-04  1.719281e-07
    169    176   2   0.50000     0.0600000   -0.1200000   2.494471e-04  1.671101e-07
    169    177   2   0.50000     0.0600000    0.0600000   6.128906e-05  1.496315e-08
    170    172   2   0.50000     0.0600000   -0.5000000   3.205360e-04  1.719281e-07
    170    176   2   0.50000     0.0600000   -0.1200000   2.494471e-04  1.671101e-07
    170    177   2   0.50000     0.0600000    0.0600000   6.128906e-05  1.496315e-08
    163    173   2   0.50000    -0.1200000    0.5000000   1.575021e-03  3.561100e-06
    163    178   2   0.50000    -0.1200000    0.3000000   1.995577e-06  1.069504e-11
    176    173   2   0.50000    -0.1200000    0.5000000   1.575021e-03  3.561100e-06
    176    178   2   0.50000    -0.1200000    0.3000000   1.995577e-06  1.069504e-11
    177    173   2   0.50000     0.0600000    0.5000000   3.869820e-04  3.188634e-07
    177    178   2   0.50000     0.0600000    0.3000000   4.903125e-07  9.576416e-13
    163    182   2   0.50000    -0.1200000    0.0600000   2.494471e-04  1.671101e-07
    163    183   2   0.50000    -0.1200000    0.0600000   2.494471e-04  1.671101e-07
    163    184   2   0.50000    -0.1200000    0.1400000   1.015252e-03  1.866303e-06
    172    182   2   0.50000    -0.5000000    0.0600000   3.205360e-04  1.719281e-07
    172    183   2   0.50000    -0.5000000    0.0600000   3.205360e-04  1.719281e-07
    172    184   2   0.50000    -0.5000000    0.1400000   1.304585e-03  1.920112e-06
    177    182   2   0.50000     0.0600000    0.0600000   6.128906e-05  1.496315e-08
    177    183   2   0.50000     0.0600000    0.0600000   6.128906e-05  1.496315e-08
    177    184   2   0.50000     0.0600000    0.1400000   2.494471e-04  1.671101e-07
    171    174   2   0.50000     0.1400000   -0.5000000   1.095425e-03  1.218041e-06
    171    175   2   0.50000     0.1400000   -0.1800000   1.015252e-03  1.866303e-06
    178    174   2   0.50000     0.3000000   -0.5000000   2.153164e-06  6.980110e-12
    178    175   2   0.50000     0.3000000   -0.1800000   1.995577e-06  1.069504e-11
    172    179   2   0.50000    -0.5000000    0.0600000   3.205360e-04  1.719281e-07
    172    180   2   0.50000    -0.5000000    0.0600000   3.205360e-04  1.719281e-07
    172    181   2   0.50000    -0.5000000    0.0600000   3.205360e-04  1.719281e-07
    174    179   2   0.50000    -0.5000000    0.0600000   2.691455e-04  1.090642e-07
    174    180   2   0.50000    -0.5000000    0.0600000   2.691455e-04  1.090642e-07
    174    181   2   0.50000    -0.5000000    0.0600000   2.691455e-04  1.090642e-07
    171    185   2   0.50000     0.1400000   -0.5000000   1.304585e-03  1.920112e-06
    171    189   2   0.50000     0.1400000   -0.1200000   1.015252e-03  1.866303e-06
    171    190   2   0.50000     0.1400000    0.0600000   2.494471e-04  1.671101e-07
    182    185   2   0.50000     0.0600000   -0.5000000   3.205360e-04  1.719281e-07
    182    189   2   0.50000     0.0600000   -0.1200000   2.494471e-04  1.671101e-07
    182    190   2   0.50000     0.0600000    0.0600000   6.128906e-05  1.496315e-08
    183    185   2   0.50000     0.0600000   -0.5000000   3.205360e-04  1.719281e-07
    183    189   2   0.50000     0.0600000   -0.1200000   2.494471e-04  1.671101e-07
    183    190   2   0.50000     0.0600000    0.0600000   6.128906e-05  1.496315e-08
    176    186   2   0.50000    -0.1200000    0.5000000   1.575021e-03  3.561100e-06
    176    191   2   0.50000    -0.1200000    0.3000000   1.995577e-06  1.069504e-11
    189    186   2   0.50000    -0.1200000    0.5000000   1.575021e-03  3.561100e-06
    189    191   2   0.50000    -0.1200000    0.3000000   1.995577e-06  1.069504e-11
    190    186   2   0.50000     0.0600000    0.5000000   3.869820e-04  3.188634e-07
    190    191   2   0.50000     0.0600000    0.3000000   4.903125e-07  9.576416e-13
    176    195   2   0.50000    -0.1200000    0.0600000   2.494471e-04  1.671101e-07
    176    196   2   0.50000    -0.1200000    0.0600000   2.494471e-04  1.671101e-07
    176    197   2   0.50000    -0.1200000    0.1400000   1.015252e-03  1.866303e-06
    185    195   2   0.50000    -0.5000000    0.0600000   3.205360e-04  1.719281e-07
    185    196   2   0.50000    -0.5000000    0.0600000   3.205360e-04  1.719281e-07
    185    197   2   0.50000    -0.5000000    0.1400000   1.304585e-03  1.920112e-06
    190    195   2   0.50000     0.0600000    0.0600000   6.128906e-05  1.496315e-08
    190    196   2   0.50000     0.0600000    0.0600000   6.128906e-05  1.496315e-08
    190    197   2   0.50000     0.0600000    0.1400000   2.494471e-04  1.671101e-07
    184    187   2   0.50000     0.1400000   -0.5000000   1.095425e-03  1.218041e-06
    184    188   2   0.50000     0.1400000   -0.1800000   1.015252e-03  1.866303e-06
    191    187   2   0.50000     0.3000000   -0.5000000   2.153164e-06  6.980110e-12
    191    188   2   0.50000     0.3000000   -0.1800000   1.995577e-06  1.069504e-11
    185    192   2   0.50000    -0.5000000    0.0600000   3.205360e-04  1.719281e-07
    185    193   2   0.50000    -0.5000000    0.0600000   3.205360e-04  1.719281e-07
    185    194   2   0.50000    -0.5000000    0.0600000   3.205360e-04  1.719281e-07
    187    192   2   0.50000    -0.5000000    0.0600000   2.691455e-04  1.090642e-07
    187    193   2   0.50000    -0.5000000    0.0600000   2.691455e-04  1.090642e-07
    187    194   2   0.50000    -0.5000000    0.0600000   2.691455e-04  1.090642e-07
    184    198   2   0.50000     0.1400000   -0.5000000   1.304585e-03  1.920112e-06
    184    202   2   0.50000     0.1400000   -0.1200000   1.015252e-03  1.866303e-06
    184    203   2   0.50000     0.1400000    0.0600000   2.494471e-04  1.671101e-07
    195    198   2   0.50000     0.0600000   -0.5000000   3.205360e-04  1.719281e-07
    195    202   2   0.50000     0.0600000   -0.1200000   2.494471e-04  1.671101e-07
    195    203   2   0.50000     0.0600000    0.0600000   6.128906e-05  1.496315e-08
    196    198   2   0.50000     0.0600000   -0.5000000   3.205360e-04  1.719281e-07
    196    202   2   0.50000     0.0600000   -0.1200000   2.494471e-04  1.671101e-07
    196    203   2   0.50000     0.0600000    0.0600000   6.128906e-05  1.496315e-08
    189    199   2   0.50000    -0.1200000    0.5000000   1.575021e-03  3.561100e-06
    189    204   2   0.50000    -0.1200000    0.3000000   1.995577e-06  1.069504e-11
    202    199   2   0.50000    -0.1200000    0.5000000   1.575021e-03  3.561100e-06
    202    204   2   0.50000    -0.1200000    0.3000000   1.995577e-06  1.069504e-11
    203    199   2   0.50000     0.0600000    0.5000000   3.869820e-04  3.188634e-07
    203    204   2   0.50000     0.0600000    0.3000000   4.903125e-07  9.576416e-13
    189    208   2   0.50000    -0.1200000    0.0600000   2.494471e-04  1.671101e-07
    189    209   2   0.50000    -0.1200000    0.0600000   2.494471e-04  1.671101e-07
    189    210   2   0.50000    -0.1200000    0.1400000   1.015252e-03  1.866303e-06
    198    208   2   0.50000    -0.5000000    0.0600000   3.205360e-04  1.719281e-07
    198    209   2   0.50000    -0.5000000    0.0600000   3.205360e-04  1.719281e-07
    198    210   2   0.50000    -0.5000000    0.1400000   1.304585e-03  1.920112e-06
    203    208   2   0.50000     0.0600000    0.0600000   6.128906e-05  1.496315e-08
    203    209   2   0.50000     0.0600000    0.0600000   6.128906e-05  1.496315e-08
    203    210   2   0.50000     0.0600000    0.1400000   2.494471e-04  1.671101e-07
    197    200   2   0.50000     0.1400000   -0.5000000   1.095425e-03  1.218041e-06
    197    201   2   0.50000     0.1400000   -0.1800000   1.015252e-03  1.866303e-06
    204    200   2   0.50000     0.3000000   -0.5000000   2.153164e-06  6.980110e-12
    204    201   2   0.50000     0.3000000   -0.1800000   1.995577e-06  1.069504e-11
    198    205   2   0.50000    -0.5000000    0.0600000   3.205360e-04  1.719281e-07
    198    206   2   0.50000    -0.5000000    0.0600000   3.205360e-04  1.719281e-07
    198    207   2   0.50000    -0.5000000    0.0600000   3.205360e-04  1.719281e-07
    200    205   2   0.50000    -0.5000000    0.0600000   2.691455e-04  1.090642e-07
    200    206   2   0.50000    -0.5000000    0.0600000   2.691455e-04  1.090642e-07
    200    207   2   0.50000    -0.5000000    0.0600000   2.691455e-04  1.090642e-07
    197    211   2   0.50000     0.1400000   -0.5000000   1.304585e-03  1.920112e-06
    197    215   2   0.50000     0.1400000   -0.1200000   1.015252e-03  1.866303e-06
    197    216   2   0.50000     0.1400000    0.0600000   2.494471e-04  1.671101e-07
    208    211   2   0.50000     0.0600000   -0.5000000   3.205360e-04  1.719281e-07
    208    215   2   0.50000     0.0600000   -0.1200000   2.494471e-04  1.671101e-07
    208    216   2   0.50000     0.0600000    0.0600000   6.128906e-05  1.496315e-08
    209    211   2   0.50000     0.0600000   -0.5000000   3.205360e-04  1.719281e-07
    209    215   2   0.50000     0.0600000   -0.1200000   2.494471e-04  1.671101e-07
    209    216   2   0.50000     0.0600000    0.0600000   6.128906e-05  1.496315e-08
    202    212   2   0.50000    -0.1200000    0.5000000   1.575021e-03  3.561100e-06
    202    217   2   0.50000    -0.1200000    0.3000000   1.995577e-06  1.069504e-11
    215    212   2   0.50000    -0.1200000    0.5000000   1.575021e-03  3.561100e-06
    215    217   2   0.50000    -0.1200000    0.3000000   1.995577e-06  1.069504e-11
    216    212   2   0.50000     0.0600000    0.5000000   3.869820e-04  3.188634e-07
    216    217   2   0.50000     0.0600000    0.3000000   4.903125e-07  9.576416e-13
    202    221   2   0.50000    -0.1200000    0.0600000   2.494471e-04  1.671101e-07
    202    222   2   0.50000    -0.1200000    0.0600000   2.494471e-04  1.671101e-07
    202    223   2   0.50000    -0.1200000    0.1400000   1.015252e-03  1.866303e-06
    211    221   2   0.50000    -0.5000000    0.0600000   3.205360e-04  1.719281e-07
    211    222   2   0.50000    -0.5000000    0.0600000   3.205360e-04  1.719281e-07
    211    223   2   0.50000    -0.5000000    0.1400000   1.304585e-03  1.920112e-06
    216    221   2   0.50000     0.0600000    0.0600000   6.128906e-05  1.496315e-08
    216    222   2   0.50000     0.0600000    0.0600000   6.128906e-05  1.496315e-08
    216    223   2   0.50000     0.0600000    0.1400000   2.494471e-04  1.671101e-07
    210    213   2   0.50000     0.1400000   -0.5000000   1.095425e-03  1.218041e-06
    210    214   2   0.50000     0.1400000   -0.1800000   1.015252e-03  1.866303e-06
    217    213   2   0.50000     0.3000000   -0.5000000   2.153164e-06  6.980110e-12
    217    214   2   0.50000     0.3000000   -0.1800000   1.995577e-06  1.069504e-11
    211    218   2   0.50000    -0.5000000    0.0600000   3.205360e-04  1.719281e-07
    211    219   2   0.50000    -0.5000000    0.0600000   3.205360e-04  1.719281e-07
    211    220   2   0.50000    -0.5000000    0.0600000   3.205360e-04  1.719281e-07
    213    218   2   0.50000    -0.5000000    0.0600000   2.691455e-04  1.090642e-07
    213    219   2   0.50000    -0.5000000    0.0600000   2.691455e-04  1.090642e-07
    213    220   2   0.50000    -0.5000000    0.0600000   2.691455e-04  1.090642e-07
    210    224   2   0.50000     0.1400000   -0.5000000   1.304585e-03  1.920112e-06
    210    228   2   0.50000     0.1400000   -0.1200000   1.015252e-03  1.866303e-06
    210    229   2   0.50000     0.1400000    0.0600000   2.494471e-04  1.671101e-07
    221    224   2   0.50000     0.0600000   -0.5000000   3.205360e-04  1.719281e-07
    221    228   2   0.50000     0.0600000   -0.1200000   2.494471e-04  1.671101e-07
    221    229   2   0.50000     0.0600000    0.0600000   6.128906e-05  1.496315e-08
    222    224   2   0.50000     0.0600000   -0.5000000   3.205360e-04  1.719281e-07
    222    228   2   0.50000     0.0600000   -0.1200000   2.494471e-04  1.671101e-07
    222    229   2   0.50000     0.0600000    0.0600000   6.128906e-05  1.496315e-08
    215    225   2   0.50000    -0.1200000    0.5000000   1.575021e-03  3.561100e-06
    215    230   2   0.50000    -0.1200000    0.3000000   1.995577e-06  1.069504e-11
    228    225   2   0.50000    -0.1200000    0.5000000   1.575021e-03  3.561100e-06
    228    230   2   0.50000    -0.1200000    0.3000000   1.995577e-06  1.069504e-11
    229    225   2   0.50000     0.0600000    0.5000000   3.869820e-04  3.188634e-07
    229    230   2   0.50000     0.0600000    0.3000000   4.903125e-07  9.576416e-13
    215    234   2   0.50000    -0.1200000    0.0600000   2.494471e-04  1.671101e-07
    215    235   2   0.50000    -0.1200000    0.0600000   2.494471e-04  1.671101e-07
    215    236   2   0.50000    -0.1200000    0.1400000   1.015252e-03  1.866303e-06
    224    234   2   0.50000    -0.5000000    0.0600000   3.205360e-04  1.719281e-07
    224    235   2   0.50000    -0.5000000    0.0600000   3.205360e-04  1.719281e-07
    224    236   2   0.50000    -0.5000000    0.1400000   1.304585e-03  1.920112e-06
    229    234   2   0.50000     0.0600000    0.0600000   6.128906e-05  1.496315e-08
    229    235   2   0.50000     0.0600000    0.0600000   6.128906e-05  1.496315e-08
    229    236   2   0.50000     0.0600000    0.1400000   2.494471e-04  1.671101e-07
    223    226   2   0.50000     0.1400000   -0.5000000   1.095425e-03  1.218041e-06
    223    227   2   0.50000     0.1400000   -0.1800000   1.015252e-03  1.866303e-06
    230    226   2   0.50000     0.3000000   -0.5000000   2.153164e-06  6.980110e-12
    230    227   2   0.50000     0.3000000   -0.1800000   1.995577e-06  1.069504e-11
    224    231   2   0.50000    -0.5000000    0.0600000   3.205360e-04  1.719281e-07
    224    232   2   0.50000    -0.5000000    0.0600000   3.205360e-04  1.719281e-07
    224    233   2   0.50000    -0.5000000    0.0600000   3.205360e-04  1.719281e-07
    226    231   2   0.50000    -0.5000000    0.0600000   2.691455e-04  1.090642e-07
    226    232   2   0.50000    -0.5000000    0.0600000   2.691455e-04  1.090642e-07
    226    233   2   0.50000    -0.5000000    0.0600000   2.691455e-04  1.090642e-07
    223    237   2   0.50000     0.1400000   -0.5000000   1.304585e-03  1.920112e-06
    223    241   2   0.50000     0.1400000   -0.1200000   1.015252e-03  1.866303e-06
    223    242   2   0.50000     0.1400000    0.0600000   2.494471e-04  1.671101e-07
    234    237   2   0.50000     0.0600000   -0.5000000   3.205360e-04  1.719281e-07
    234    241   2   0.50000     0.0600000   -0.1200000   2.494471e-04  1.671101e-07
    234    242   2   0.50000     0.0600000    0.0600000   6.128906e-05  1.496315e-08
    235    237   2   0.50000     0.0600000   -0.5000000   3.205360e-04  1.719281e-07
    235    241   2   0.50000     0.0600000   -0.1200000   2.494471e-04  1.671101e-07
    235    242   2   0.50000     0.0600000    0.0600000   6.128906e-05  1.496315e-08
    228    238   2   0.50000    -0.1200000    0.5000000   1.575021e-03  3.561100e-06
    228    243   2   0.50000    -0.1200000    0.3000000   1.995577e-06  1.069504e-11
    241    238   2   0.50000    -0.1200000    0.5000000   1.575021e-03  3.561100e-06
    241    243   2   0.50000    -0.1200000    0.3000000   1.995577e-06  1.069504e-11
    242    238   2   0.50000     0.0600000    0.5000000   3.869820e-04  3.188634e-07
    242    243   2   0.50000     0.0600000    0.3000000   4.903125e-07  9.576416e-13
    228    247   2   0.50000    -0.1200000    0.0600000   2.494471e-04  1.671101e-07
    228    248   2   0.50000    -0.1200000    0.0600000   2.494471e-04  1.671101e-07
    228    249   2   0.50000    -0.1200000    0.1400000   1.015252e-03  1.866303e-06
    237    247   2   0.50000    -0.5000000    0.0600000   3.205360e-04  1.719281e-07
    237    248   2   0.50000    -0.5000000    0.0600000   3.205360e-04  1.719281e-07
    237    249   2   0.50000    -0.5000000    0.1400000   1.304585e-03  1.920112e-06
    242    247   2   0.50000     0.0600000    0.0600000   6.128906e-05  1.496315e-08
    242    248   2   0.50000     0.0600000    0.0600000   6.128906e-05  1.496315e-08
    242    249   2   0.50000     0.0600000    0.1400000   2.494471e-04  1.671101e-07
    236    239   2   0.50000     0.1400000   -0.5000000   1.095425e-03  1.218041e-06
    236    240   2   0.50000     0.1400000   -0.1800000   1.015252e-03  1.866303e-06
    243    239   2   0.50000     0.3000000   -0.5000000   2.153164e-06  6.980110e-12
    243    240   2   0.50000     0.3000000   -0.1800000   1.995577e-06  1.069504e-11
    237    244   2   0.50000    -0.5000000    0.0600000   3.205360e-04  1.719281e-07
    237    245   2   0.50000    -0.5000000    0.0600000   3.205360e-04  1.719281e-07
    237    246   2   0.50000    -0.5000000    0.0600000   3.205360e-04  1.719281e-07
    239    244   2   0.50000    -0.5000000    0.0600000   2.691455e-04  1.090642e-07
    239    245   2   0.50000    -0.5000000    0.0600000   2.691455e-04  1.090642e-07
    239    246   2   0.50000    -0.5000000    0.0600000   2.691455e-04  1.090642e-07
    236    250   2   0.50000     0.1400000   -0.5000000   1.304585e-03  1.920112e-06
    236    254   2   0.50000     0.1400000   -0.1800000   1.015252e-03  1.866303e-06
    236    255   2   0.50000     0.1400000    0.0600000   2.494471e-04  1.671101e-07
    247    250   2   0.50000     0.0600000   -0.5000000   3.205360e-04  1.719281e-07
    247    254   2   0.50000     0.0600000   -0.1800000   2.494471e-04  1.671101e-07
    247    255   2   0.50000     0.0600000    0.0600000   6.128906e-05  1.496315e-08
    248    250   2   0.50000     0.0600000   -0.5000000   3.205360e-04  1.719281e-07
    248    254   2   0.50000     0.0600000   -0.1800000   2.494471e-04  1.671101e-07
    248    255   2   0.50000     0.0600000    0.0600000   6.128906e-05  1.496315e-08
    241    251   2   0.50000    -0.1200000    0.5000000   1.575021e-03  3.561100e-06
    241    256   2   0.50000    -0.1200000    0.3000000   1.995577e-06  1.069504e-11
    254    251   2   0.50000    -0.1800000    0.5000000   1.575021e-03  3.561100e-06
    254    256   2   0.50000    -0.1800000    0.3000000   1.995577e-06  1.069504e-11
    255    251   2   0.50000     0.0600000    0.5000000   3.869820e-04  3.188634e-07
    255    256   2   0.50000     0.0600000    0.3000000   4.903125e-07  9.576416e-13
    241    260   2   0.50000    -0.1200000    0.0600000   2.494471e-04  1.671101e-07
    241    261   2   0.50000    -0.1200000    0.0600000   2.494471e-04  1.671101e-07
    241    262   2   0.50000    -0.1200000    0.0600000   2.494471e-04  1.671101e-07
    250    260   2   0.50000    -0.5000000    0.0600000   3.205360e-04  1.719281e-07
    250    261   2   0.50000    -0.5000000    0.0600000   3.205360e-04  1.719281e-07
    250    262   2   0.50000    -0.5000000    0.0600000   3.205360e-04  1.719281e-07
    255    260   2   0.50000     0.0600000    0.0600000   6.128906e-05  1.496315e-08
    255    261   2   0.50000     0.0600000    0.0600000   6.128906e-05  1.496315e-08
    255    262   2   0.50000     0.0600000    0.0600000   6.128906e-05  1.496315e-08
    249    252   2   0.50000     0.1400000   -0.5000000   1.095425e-03  1.218041e-06
    249    253   2   0.50000     0.1400000   -0.1800000   1.015252e-03  1.866303e-06
    256    252   2   0.50000     0.3000000   -0.5000000   2.153164e-06  6.980110e-12
    256    253   2   0.50000     0.3000000   -0.1800000   1.995577e-06  1.069504e-11
    250    257   2   0.50000    -0.5000000    0.0600000   3.205360e-04  1.719281e-07
    250    258   2   0.50000    -0.5000000    0.0600000   3.205360e-04  1.719281e-07
    250    259   2   0.50000    -0.5000000    0.0600000   3.205360e-04  1.719281e-07
    252    257   2   0.50000    -0.5000000    0.0600000   2.691455e-04  1.090642e-07
    252    258   2   0.50000    -0.5000000    0.0600000   2.691455e-04  1.090642e-07
    252    259   2   0.50000    -0.5000000    0.0600000   2.691455e-04  1.090642e-07

[ angles ]
; ai  aj  ak
      2      1      6   1    110.7230    585.7600
      2      1      7   1    109.5000    292.8800
      2      1     14   1    109.5000    292.8800
      6      1      7   1    110.7000    313.8000
      6      1     14   1    110.7000    313.8000
      7      1     14   1    107.8000    276.1440
      1      2      3   1    121.9000    418.4000
      1      2      8   1    118.4000    317.9840
      3      2      8   1    119.8000    292.8800
      2      3      4   1    122.9000    669.4400
      2      3      5   1    116.6000    585.7600
      4      3      5   1    120.4000    669.4400
      3      5      9   1    109.5000    292.8800
      3      5     10   1    109.5000    292.8800
      3      5     11   1    109.5000    292.8800
      9      5     10   1    107.8000    276.1440
      9      5     11   1    107.8000    276.1440
     10      5     11   1    107.8000    276.1440
      1      6     12   1    110.7000    313.8000
      1      6     13   1    110.7000    313.8000
      1      6     15   1    112.7000    488.2728
     12      6     13   1    107.8000    276.1440
     12      6     15   1    110.7000    313.8000
     13      6     15   1    110.7000    313.8000
      6     15     16   1    110.7230    585.7600
      6     15     20   1    112.7000    488.2728
      6     15     21   1    110.7000    313.8000
     16     15     20   1    110.7230    585.7600
     16     15     21   1    109.5000    292.8800
     20     15     21   1    110.7000    313.8000
     15     16     17   1    121.9000    418.4000
     15     16     22   1    118.4000    317.9840
     17     16     22   1    119.8000    292.8800
     16     17     18   1    122.9000    669.4400
     16     17     19   1    116.6000    585.7600
     18     17     19   1    120.4000    669.4400
     17     19     23   1    109.5000    292.8800
     17     19     24   1    109.5000    292.8800
     17     19     25   1    109.5000    292.8800
     23     19     24   1    107.8000    276.1440
     23     19     25   1    107.8000    276.1440
     24     19     25   1    107.8000    276.1440
     15     20     26   1    110.7000    313.8000
     15     20     27   1    110.7000    313.8000
     15     20     28   1    112.7000    488.2728
     26     20     27   1    107.8000    276.1440
     26     20     28   1    110.7000    313.8000
     27     20     28   1    110.7000    313.8000
     20     28     29   1    110.7230    585.7600
     20     28     33   1    112.7000    488.2728
     20     28     34   1    110.7000    313.8000
     29     28     33   1    110.7230    585.7600
     29     28     34   1    109.5000    292.8800
     33     28     34   1    110.7000    313.8000
     28     29     30   1    121.9000    418.4000
     28     29     35   1    118.4000    317.9840
     30     29     35   1    119.8000    292.8800
     29     30     31   1    122.9000    669.4400
     29     30     32   1    116.6000    585.7600
     31     30     32   1    120.4000    669.4400
     30     32     36   1    109.5000    292.8800
     30     32     37   1    109.5000    292.8800
     30     32     38   1    109.5000    292.8800
     36     32     37   1    107.8000    276.1440
     36     32     38   1    107.8000    276.1440
     37     32     38   1    107.8000    276.1440
     28     33     39   1    110.7000    313.8000
     28     33     40   1    110.7000    313.8000
     28     33     41   1    112.7000    488.2728
     39     33     40   1    107.8000    276.1440
     39     33     41   1    110.7000    313.8000
     40     33     41   1    110.7000    313.8000
     33     41     42   1    110.7230    585.7600
     33     41     46   1    112.7000    488.2728
     33     41     47   1    110.7000    313.8000
     42     41     46   1    110.7230    585.7600
     42     41     47   1    109.5000    292.8800
     46     41     47   1    110.7000    313.8000
     41     42     43   1    121.9000    418.4000
     41     42     48   1    118.4000    317.9840
     43     42     48   1    119.8000    292.8800
     42     43     44   1    122.9000    669.4400
     42     43     45   1    116.6000    585.7600
     44     43     45   1    120.4000    669.4400
     43     45     49   1    109.5000    292.8800
     43     45     50   1    109.5000    292.8800
     43     45     51   1    109.5000    292.8800
     49     45     50   1    107.8000    276.1440
     49     45     51   1    107.8000    276.1440
     50     45     51   1    107.8000    276.1440
     41     46     52   1    110.7000    313.8000
     41     46     53   1    110.7000    313.8000
     41     46     54   1    112.7000    488.2728
     52     46     53   1    107.8000    276.1440
     52     46     54   1    110.7000    313.8000
     53     46     54   1    110.7000    313.8000
     46     54     55   1    110.7230    585.7600
     46     54     59   1    112.7000    488.2728
     46     54     60   1    110.7000    313.8000
     55     54     59   1    110.7230    585.7600
     55     54     60   1    109.5000    292.8800
     59     54     60   1    110.7000    313.8000
     54     55     56   1    121.9000    418.4000
     54     55     61   1    118.4000    317.9840
     56     55     61   1    119.8000    292.8800
     55     56     57   1    122.9000    669.4400
     55     56     58   1    116.6000    585.7600
     57     56     58   1    120.4000    669.4400
     56     58     62   1    109.5000    292.8800
     56     58     63   1    109.5000    292.8800
     56     58     64   1    109.5000    292.8800
     62     58     63   1    107.8000    276.1440
     62     58     64   1    107.8000    276.1440
     63     58     64   1    107.8000    276.1440
     54     59     65   1    110.7000    313.8000
     54     59     66   1    110.7000    313.8000
     54     59     67   1    112.7000    488.2728
     65     59     66   1    107.8000    276.1440
     65     59     67   1    110.7000    313.8000
     66     59     67   1    110.7000    313.8000
     59     67     68   1    110.7230    585.7600
     59     67     72   1    112.7000    488.2728
     59     67     73   1    110.7000    313.8000
     68     67     72   1    110.7230    585.7600
     68     67     73   1    109.5000    292.8800
     72     67     73   1    110.7000    313.8000
     67     68     69   1    121.9000    418.4000
     67     68     74   1    118.4000    317.9840
     69     68     74   1    119.8000    292.8800
     68     69     70   1    122.9000    669.4400
     68     69     71   1    116.6000    585.7600
     70     69     71   1    120.4000    669.4400
     69     71     75   1    109.5000    292.8800
     69     71     76   1    109.5000    292.8800
     69     71     77   1    109.5000    292.8800
     75     71     76   1    107.8000    276.1440
     75     71     77   1    107.8000    276.1440
     76     71     77   1    107.8000    276.1440
     67     72     78   1    110.7000    313.8000
     67     72     79   1    110.7000    313.8000
     67     72     80   1    112.7000    488.2728
     78     72     79   1    107.8000    276.1440
     78     72     80   1    110.7000    313.8000
     79     72     80   1    110.7000    313.8000
     72     80     81   1    110.7230    585.7600
     72     80     85   1    112.7000    488.2728
     72     80     86   1    110.7000    313.8000
     81     80     85   1    110.7230    585.7600
     81     80     86   1    109.5000    292.8800
     85     80     86   1    110.7000    313.8000
     80     81     82   1    121.9000    418.4000
     80     81     87   1    118.4000    317.9840
     82     81     87   1    119.8000    292.8800
     81     82     83   1    122.9000    669.4400
     81     82     84   1    116.6000    585.7600
     83     82     84   1    120.4000    669.4400
     82     84     88   1    109.5000    292.8800
     82     84     89   1    109.5000    292.8800
     82     84     90   1    109.5000    292.8800
     88     84     89   1    107.8000    276.1440
     88     84     90   1    107.8000    276.1440
     89     84     90   1    107.8000    276.1440
     80     85     91   1    110.7000    313.8000
     80     85     92   1    110.7000    313.8000
     80     85     93   1    112.7000    488.2728
     91     85     92   1    107.8000    276.1440
     91     85     93   1    110.7000    313.8000
     92     85     93   1    110.7000    313.8000
     85     93     94   1    110.7230    585.7600
     85     93     98   1    112.7000    488.2728
     85     93     99   1    110.7000    313.8000
     94     93     98   1    110.7230    585.7600
     94     93     99   1    109.5000    292.8800
     98     93     99   1    110.7000    313.8000
     93     94     95   1    121.9000    418.4000
     93     94    100   1    118.4000    317.9840
     95     94    100   1    119.8000    292.8800
     94     95     96   1    122.9000    669.4400
     94     95     97   1    116.6000    585.7600
     96     95     97   1    120.4000    669.4400
     95     97    101   1    109.5000    292.8800
     95     97    102   1    109.5000    292.8800
     95     97    103   1    109.5000    292.8800
    101     97    102   1    107.8000    276.1440
    101     97    103   1    107.8000    276.1440
    102     97    103   1    107.8000    276.1440
     93     98    104   1    110.7000    313.8000
     93     98    105   1    110.7000    313.8000
     93     98    106   1    112.7000    488.2728
    104     98    105   1    107.8000    276.1440
    104     98    106   1    110.7000    313.8000
    105     98    106   1    110.7000    313.8000
     98    106    107   1    110.7230    585.7600
     98    106    111   1    112.7000    488.2728
     98    106    112   1    110.7000    313.8000
    107    106    111   1    110.7230    585.7600
    107    106    112   1    109.5000    292.8800
    111    106    112   1    110.7000    313.8000
    106    107    108   1    121.9000    418.4000
    106    107    113   1    118.4000    317.9840
    108    107    113   1    119.8000    292.8800
    107    108    109   1    122.9000    669.4400
    107    108    110   1    116.6000    585.7600
    109    108    110   1    120.4000    669.4400
    108    110    114   1    109.5000    292.8800
    108    110    115   1    109.5000    292.8800
    108    110    116   1    109.5000    292.8800
    114    110    115   1    107.8000    276.1440
    114    110    116   1    107.8000    276.1440
    115    110    116   1    107.8000    276.1440
    106    111    117   1    110.7000    313.8000
    106    111    118   1    110.7000    313.8000
    106    111    119   1    112.7000    488.2728
    117    111    118   1    107.8000    276.1440
    117    111    119   1    110.7000    313.8000
    118    111    119   1    110.7000    313.8000
    111    119    120   1    110.7230    585.7600
    111    119    124   1    112.7000    488.2728
    111    119    125   1    110.7000    313.8000
    120    119    124   1    110.7230    585.7600
    120    119    125   1    109.5000    292.8800
    124    119    125   1    110.7000    313.8000
    119    120    121   1    121.9000    418.4000
    119    120    126   1    118.4000    317.9840
    121    120    126   1    119.8000    292.8800
    120    121    122   1    122.9000    669.4400
    120    121    123   1    116.6000    585.7600
    122    121    123   1    120.4000    669.4400
    121    123    127   1    109.5000    292.8800
    121    123    128   1    109.5000    292.8800
    121    123    129   1    109.5000    292.8800
    127    123    128   1    107.8000    276.1440
    127    123    129   1    107.8000    276.1440
    128    123    129   1    107.8000    276.1440
    119    124    130   1    110.7000    313.8000
    119    124    131   1    110.7000    313.8000
    119    124    132   1    112.7000    488.2728
    130    124    131   1    107.8000    276.1440
    130    124    132   1    110.7000    313.8000
    131    124    132   1    110.7000    313.8000
    124    132    133   1    110.7230    585.7600
    124    132    137   1    112.7000    488.2728
    124    132    138   1    110.7000    313.8000
    133    132    137   1    110.7230    585.7600
    133    132    138   1    109.5000    292.8800
    137    132    138   1    110.7000    313.8000
    132    133    134   1    121.9000    418.4000
    132    133    139   1    118.4000    317.9840
    134    133    139   1    119.8000    292.8800
    133    134    135   1    122.9000    669.4400
    133    134    136   1    116.6000    585.7600
    135    134    136   1    120.4000    669.4400
    134    136    140   1    109.5000    292.8800
    134    136    141   1    109.5000    292.8800
    134    136    142   1    109.5000    292.8800
    140    136    141   1    107.8000    276.1440
    140    136    142   1    107.8000    276.1440
    141    136    142   1    107.8000    276.1440
    132    137    143   1    110.7000    313.8000
    132    137    144   1    110.7000    313.8000
    132    137    145   1    112.7000    488.2728
    143    137    144   1    107.8000    276.1440
    143    137    145   1    110.7000    313.8000
    144    137    145   1    110.7000    313.8000
    137    145    146   1    110.7230    585.7600
    137    145    150   1    112.7000    488.2728
    137    145    151   1    110.7000    313.8000
    146    145    150   1    110.7230    585.7600
    146    145    151   1    109.5000    292.8800
    150    145    151   1    110.7000    313.8000
    145    146    147   1    121.9000    418.4000
    145    146    152   1    118.4000    317.9840
    147    146    152   1    119.8000    292.8800
    146    147    148   1    122.9000    669.4400
    146    147    149   1    116.6000    585.7600
    148    147    149   1    120.4000    669.4400
    147    149    153   1    109.5000    292.8800
    147    149    154   1    109.5000    292.8800
    147    149    155   1    109.5000    292.8800
    153    149    154   1    107.8000    276.1440
    153    149    155   1    107.8000    276.1440
    154    149    155   1    107.8000    276.1440
    145    150    156   1    110.7000    313.8000
    145    150    157   1    110.7000    313.8000
    145    150    158   1    112.7000    488.2728
    156    150    157   1    107.8000    276.1440
    156    150    158   1    110.7000    313.8000
    157    150    158   1    110.7000    313.8000
    150    158    159   1    110.7230    585.7600
    150    158    163   1    112.7000    488.2728
    150    158    164   1    110.7000    313.8000
    159    158    163   1    110.7230    585.7600
    159    158    164   1    109.5000    292.8800
    163    158    164   1    110.7000    313.8000
    158    159    160   1    121.9000    418.4000
    158    159    165   1    118.4000    317.9840
    160    159    165   1    119.8000    292.8800
    159    160    161   1    122.9000    669.4400
    159    160    162   1    116.6000    585.7600
    161    160    162   1    120.4000    669.4400
    160    162    166   1    109.5000    292.8800
    160    162    167   1    109.5000    292.8800
    160    162    168   1    109.5000    292.8800
    166    162    167   1    107.8000    276.1440
    166    162    168   1    107.8000    276.1440
    167    162    168   1    107.8000    276.1440
    158    163    169   1    110.7000    313.8000
    158    163    170   1    110.7000    313.8000
    158    163    171   1    112.7000    488.2728
    169    163    170   1    107.8000    276.1440
    169    163    171   1    110.7000    313.8000
    170    163    171   1    110.7000    313.8000
    163    171    172   1    110.7230    585.7600
    163    171    176   1    112.7000    488.2728
    163    171    177   1    110.7000    313.8000
    172    171    176   1    110.7230    585.7600
    172    171    177   1    109.5000    292.8800
    176    171    177   1    110.7000    313.8000
    171    172    173   1    121.9000    418.4000
    171    172    178   1    118.4000    317.9840
    173    172    178   1    119.8000    292.8800
    172    173    174   1    122.9000    669.4400
    172    173    175   1    116.6000    585.7600
    174    173    175   1    120.4000    669.4400
    173    175    179   1    109.5000    292.8800
    173    175    180   1    109.5000    292.8800
    173    175    181   1    109.5000    292.8800
    179    175    180   1    107.8000    276.1440
    179    175    181   1    107.8000    276.1440
    180    175    181   1    107.8000    276.1440
    171    176    182   1    110.7000    313.8000
    171    176    183   1    110.7000    313.8000
    171    176    184   1    112.7000    488.2728
    182    176    183   1    107.8000    276.1440
    182    176    184   1    110.7000    313.8000
    183    176    184   1    110.7000    313.8000
    176    184    185   1    110.7230    585.7600
    176    184    189   1    112.7000    488.2728
    176    184    190   1    110.7000    313.8000
    185    184    189   1    110.7230    585.7600
    185    184    190   1    109.5000    292.8800
    189    184    190   1    110.7000    313.8000
    184    185    186   1    121.9000    418.4000
    184    185    191   1    118.4000    317.9840
    186    185    191   1    119.8000    292.8800
    185    186    187   1    122.9000    669.4400
    185    186    188   1    116.6000    585.7600
    187    186    188   1    120.4000    669.4400
    186    188    192   1    109.5000    292.8800
    186    188    193   1    109.5000    292.8800
    186    188    194   1    109.5000    292.8800
    192    188    193   1    107.8000    276.1440
    192    188    194   1    107.8000    276.1440
    193    188    194   1    107.8000    276.1440
    184    189    195   1    110.7000    313.8000
    184    189    196   1    110.7000    313.8000
    184    189    197   1    112.7000    488.2728
    195    189    196   1    107.8000    276.1440
    195    189    197   1    110.7000    313.8000
    196    189    197   1    110.7000    313.8000
    189    197    198   1    110.7230    585.7600
    189    197    202   1    112.7000    488.2728
    189    197    203   1    110.7000    313.8000
    198    197    202   1    110.7230    585.7600
    198    197    203   1    109.5000    292.8800
    202    197    203   1    110.7000    313.8000
    197    198    199   1    121.9000    418.4000
    197    198    204   1    118.4000    317.9840
    199    198    204   1    119.8000    292.8800
    198    199    200   1    122.9000    669.4400
    198    199    201   1    116.6000    585.7600
    200    199    201   1    120.4000    669.4400
    199    201    205   1    109.5000    292.8800
    199    201    206   1    109.5000    292.8800
    199    201    207   1    109.5000    292.8800
    205    201    206   1    107.8000    276.1440
    205    201    207   1    107.8000    276.1440
    206    201    207   1    107.8000    276.1440
    197    202    208   1    110.7000    313.8000
    197    202    209   1    110.7000    313.8000
    197    202    210   1    112.7000    488.2728
    208    202    209   1    107.8000    276.1440
    208    202    210   1    110.7000    313.8000
    209    202    210   1    110.7000    313.8000
    202    210    211   1    110.7230    585.7600
    202    210    215   1    112.7000    488.2728
    202    210    216   1    110.7000    313.8000
    211    210    215   1    110.7230    585.7600
    211    210    216   1    109.5000    292.8800
    215    210    216   1    110.7000    313.8000
    210    211    212   1    121.9000    418.4000
    210    211    217   1    118.4000    317.9840
    212    211    217   1    119.8000    292.8800
    211    212    213   1    122.9000    669.4400
    211    212    214   1    116.6000    585.7600
    213    212    214   1    120.4000    669.4400
    212    214    218   1    109.5000    292.8800
    212    214    219   1    109.5000    292.8800
    212    214    220   1    109.5000    292.8800
    218    214    219   1    107.8000    276.1440
    218    214    220   1    107.8000    276.1440
    219    214    220   1    107.8000    276.1440
    210    215    221   1    110.7000    313.8000
    210    215    222   1    110.7000    313.8000
    210    215    223   1    112.7000    488.2728
    221    215    222   1    107.8000    276.1440
    221    215    223   1    110.7000    313.8000
    222    215    223   1    110.7000    313.8000
    215    223    224   1    110.7230    585.7600
    215    223    228   1    112.7000    488.2728
    215    223    229   1    110.7000    313.8000
    224    223    228   1    110.7230    585.7600
    224    223    229   1    109.5000    292.8800
    228    223    229   1    110.7000    313.8000
    223    224    225   1    121.9000    418.4000
    223    224    230   1    118.4000    317.9840
    225    224    230   1    119.8000    292.8800
    224    225    226   1    122.9000    669.4400
    224    225    227   1    116.6000    585.7600
    226    225    227   1    120.4000    669.4400
    225    227    231   1    109.5000    292.8800
    225    227    232   1    109.5000    292.8800
    225    227    233   1    109.5000    292.8800
    231    227    232   1    107.8000    276.1440
    231    227    233   1    107.8000    276.1440
    232    227    233   1    107.8000    276.1440
    223    228    234   1    110.7000    313.8000
    223    228    235   1    110.7000    313.8000
    223    228    236   1    112.7000    488.2728
    234    228    235   1    107.8000    276.1440
    234    228    236   1    110.7000    313.8000
    235    228    236   1    110.7000    313.8000
    228    236    237   1    110.7230    585.7600
    228    236    241   1    112.7000    488.2728
    228    236    242   1    110.7000    313.8000
    237    236    241   1    110.7230    585.7600
    237    236    242   1    109.5000    292.8800
    241    236    242   1    110.7000    313.8000
    236    237    238   1    121.9000    418.4000
    236    237    243   1    118.4000    317.9840
    238    237    243   1    119.8000    292.8800
    237    238    239   1    122.9000    669.4400
    237    238    240   1    116.6000    585.7600
    239    238    240   1    120.4000    669.4400
    238    240    244   1    109.5000    292.8800
    238    240    245   1    109.5000    292.8800
    238    240    246   1    109.5000    292.8800
    244    240    245   1    107.8000    276.1440
    244    240    246   1    107.8000    276.1440
    245    240    246   1    107.8000    276.1440
    236    241    247   1    110.7000    313.8000
    236    241    248   1    110.7000    313.8000
    236    241    249   1    112.7000    488.2728
    247    241    248   1    107.8000    276.1440
    247    241    249   1    110.7000    313.8000
    248    241    249   1    110.7000    313.8000
    241    249    250   1    110.7230    585.7600
    241    249    254   1    112.7000    488.2728
    241    249    255   1    110.7000    313.8000
    250    249    254   1    110.7230    585.7600
    250    249    255   1    109.5000    292.8800
    254    249    255   1    110.7000    313.8000
    249    250    251   1    121.9000    418.4000
    249    250    256   1    118.4000    317.9840
    251    250    256   1    119.8000    292.8800
    250    251    252   1    122.9000    669.4400
    250    251    253   1    116.6000    585.7600
    252    251    253   1    120.4000    669.4400
    251    253    257   1    109.5000    292.8800
    251    253    258   1    109.5000    292.8800
    251    253    259   1    109.5000    292.8800
    257    253    258   1    107.8000    276.1440
    257    253    259   1    107.8000    276.1440
    258    253    259   1    107.8000    276.1440
    249    254    260   1    110.7000    313.8000
    249    254    261   1    110.7000    313.8000
    249    254    262   1    110.7000    313.8000
    260    254    261   1    107.8000    276.1440
    260    254    262   1    107.8000    276.1440
    261    254    262   1    107.8000    276.1440

[ dihedrals ]
; Proper dihedrals
      6      1      2      3   5    -3.67774    -0.67781     0.28033  0.0
      6      1      2      8   5     0.00000     0.00000     0.00000  0.0
      7      1      2      3   5     0.00000     0.00000     0.00000  0.0
      7      1      2      8   5     0.00000     0.00000     0.00000  0.0
     14      1      2      3   5     0.00000     0.00000     0.00000  0.0
     14      1      2      8   5     0.00000     0.00000     0.00000  0.0
      2      1      6     12   5     0.00000     0.00000     1.25520  0.0
      2      1      6     13   5     0.00000     0.00000     1.25520  0.0
      2      1      6     15   5     3.67355     4.10869     2.37651  0.0
      7      1      6     12   5     0.00000     0.00000     1.25520  0.0
      7      1      6     13   5     0.00000     0.00000     1.25520  0.0
      7      1      6     15   5     0.00000     0.00000     1.25520  0.0
     14      1      6     12   5     0.00000     0.00000     1.25520  0.0
     14      1      6     13   5     0.00000     0.00000     1.25520  0.0
     14      1      6     15   5     0.00000     0.00000     1.25520  0.0
      1      2      3      4   5     0.00000    25.47638     0.00000  0.0
      1      2      3      5   5    12.53945    12.88254     0.00000  0.0
      8      2      3      4   5     0.00000    20.50160     0.00000  0.0
      8      2      3      5   5     0.00000    20.50160     0.00000  0.0
      2      3      5      9   5     0.00000     0.00000     0.00000  0.0
      2      3      5     10   5     0.00000     0.00000     0.00000  0.0
      2      3      5     11   5     0.00000     0.00000     0.00000  0.0
      4      3      5      9   5     0.00000     0.00000     0.00000  0.0
      4      3      5     10   5     0.00000     0.00000     0.00000  0.0
      4      3      5     11   5     0.00000     0.00000     0.00000  0.0
      1      6     15     16   5     3.67355     4.10869     2.37651  0.0
      1      6     15     20   5     4.74884    -0.63178     1.67360  0.0
      1      6     15     21   5     0.00000     0.00000     1.25520  0.0
     12      6     15     16   5     0.00000     0.00000     1.25520  0.0
     12      6     15     20   5     0.00000     0.00000     1.25520  0.0
     12      6     15     21   5     0.00000     0.00000     1.25520  0.0
     13      6     15     16   5     0.00000     0.00000     1.25520  0.0
     13      6     15     20   5     0.00000     0.00000     1.25520  0.0
     13      6     15     21   5     0.00000     0.00000     1.25520  0.0
      6     15     16     17   5    -3.67774    -0.67781     0.28033  0.0
      6     15     16     22   5     0.00000     0.00000     0.00000  0.0
     20     15     16     17   5    -3.67774    -0.67781     0.28033  0.0
     20     15     16     22   5     0.00000     0.00000     0.00000  0.0
     21     15     16     17   5     0.00000     0.00000     0.00000  0.0
     21     15     16     22   5     0.00000     0.00000     0.00000  0.0
      6     15     20     26   5     0.00000     0.00000     1.25520  0.0
      6     15     20     27   5     0.00000     0.00000     1.25520  0.0
      6     15     20     28   5     4.74884    -0.63178     1.67360  0.0
     16     15     20     26   5     0.00000     0.00000     1.25520  0.0
     16     15     20     27   5     0.00000     0.00000     1.25520  0.0
     16     15     20     28   5     3.67355     4.10869     2.37651  0.0
     21     15     20     26   5     0.00000     0.00000     1.25520  0.0
     21     15     20     27   5     0.00000     0.00000     1.25520  0.0
     21     15     20     28   5     0.00000     0.00000     1.25520  0.0
     15     16     17     18   5     0.00000    25.47638     0.00000  0.0
     15     16     17     19   5    12.53945    12.88254     0.00000  0.0
     22     16     17     18   5     0.00000    20.50160     0.00000  0.0
     22     16     17     19   5     0.00000    20.50160     0.00000  0.0
     16     17     19     23   5     0.00000     0.00000     0.00000  0.0
     16     17     19     24   5     0.00000     0.00000     0.00000  0.0
     16     17     19     25   5     0.00000     0.00000     0.00000  0.0
     18     17     19     23   5     0.00000     0.00000     0.00000  0.0
     18     17     19     24   5     0.00000     0.00000     0.00000  0.0
     18     17     19     25   5     0.00000     0.00000     0.00000  0.0
     15     20     28     29   5     3.67355     4.10869     2.37651  0.0
     15     20     28     33   5     4.74884    -0.63178     1.67360  0.0
     15     20     28     34   5     0.00000     0.00000     1.25520  0.0
     26     20     28     29   5     0.00000     0.00000     1.25520  0.0
     26     20     28     33   5     0.00000     0.00000     1.25520  0.0
     26     20     28     34   5     0.00000     0.00000     1.25520  0.0
     27     20     28     29   5     0.00000     0.00000     1.25520  0.0
     27     20     28     33   5     0.00000     0.00000     1.25520  0.0
     27     20     28     34   5     0.00000     0.00000     1.25520  0.0
     20     28     29     30   5    -3.67774    -0.67781     0.28033  0.0
     20     28     29     35   5     0.00000     0.00000     0.00000  0.0
     33     28     29     30   5    -3.67774    -0.67781     0.28033  0.0
     33     28     29     35   5     0.00000     0.00000     0.00000  0.0
     34     28     29     30   5     0.00000     0.00000     0.00000  0.0
     34     28     29     35   5     0.00000     0.00000     0.00000  0.0
     20     28     33     39   5     0.00000     0.00000     1.25520  0.0
     20     28     33     40   5     0.00000     0.00000     1.25520  0.0
     20     28     33     41   5     4.74884    -0.63178     1.67360  0.0
     29     28     33     39   5     0.00000     0.00000     1.25520  0.0
     29     28     33     40   5     0.00000     0.00000     1.25520  0.0
     29     28     33     41   5     3.67355     4.10869     2.37651  0.0
     34     28     33     39   5     0.00000     0.00000     1.25520  0.0
     34     28     33     40   5     0.00000     0.00000     1.25520  0.0
     34     28     33     41   5     0.00000     0.00000     1.25520  0.0
     28     29     30     31   5     0.00000    25.47638     0.00000  0.0
     28     29     30     32   5    12.53945    12.88254     0.00000  0.0
     35     29     30     31   5     0.00000    20.50160     0.00000  0.0
     35     29     30     32   5     0.00000    20.50160     0.00000  0.0
     29     30     32     36   5     0.00000     0.00000     0.00000  0.0
     29     30     32     37   5     0.00000     0.00000     0.00000  0.0
     29     30     32     38   5     0.00000     0.00000     0.00000  0.0
     31     30     32     36   5     0.00000     0.00000     0.00000  0.0
     31     30     32     37   5     0.00000     0.00000     0.00000  0.0
     31     30     32     38   5     0.00000     0.00000     0.00000  0.0
     28     33     41     42   5     3.67355     4.10869     2.37651  0.0
     28     33     41     46   5     4.74884    -0.63178     1.67360  0.0
     28     33     41     47   5     0.00000     0.00000     1.25520  0.0
     39     33     41     42   5     0.00000     0.00000     1.25520  0.0
     39     33     41     46   5     0.00000     0.00000     1.25520  0.0
     39     33     41     47   5     0.00000     0.00000     1.25520  0.0
     40     33     41     42   5     0.00000     0.00000     1.25520  0.0
     40     33     41     46   5     0.00000     0.00000     1.25520  0.0
     40     33     41     47   5     0.00000     0.00000     1.25520  0.0
     33     41     42     43   5    -3.67774    -0.67781     0.28033  0.0
     33     41     42     48   5     0.00000     0.00000     0.00000  0.0
     46     41     42     43   5    -3.67774    -0.67781     0.28033  0.0
     46     41     42     48   5     0.00000     0.00000     0.00000  0.0
     47     41     42     43   5     0.00000     0.00000     0.00000  0.0
     47     41     42     48   5     0.00000     0.00000     0.00000  0.0
     33     41     46     52   5     0.00000     0.00000     1.25520  0.0
     33     41     46     53   5     0.00000     0.00000     1.25520  0.0
     33     41     46     54   5     4.74884    -0.63178     1.67360  0.0
     42     41     46     52   5     0.00000     0.00000     1.25520  0.0
     42     41     46     53   5     0.00000     0.00000     1.25520  0.0
     42     41     46     54   5     3.67355     4.10869     2.37651  0.0
     47     41     46     52   5     0.00000     0.00000     1.25520  0.0
     47     41     46     53   5     0.00000     0.00000     1.25520  0.0
     47     41     46     54   5     0.00000     0.00000     1.25520  0.0
     41     42     43     44   5     0.00000    25.47638     0.00000  0.0
     41     42     43     45   5    12.53945    12.88254     0.00000  0.0
     48     42     43     44   5     0.00000    20.50160     0.00000  0.0
     48     42     43     45   5     0.00000    20.50160     0.00000  0.0
     42     43     45     49   5     0.00000     0.00000     0.00000  0.0
     42     43     45     50   5     0.00000     0.00000     0.00000  0.0
     42     43     45     51   5     0.00000     0.00000     0.00000  0.0
     44     43     45     49   5     0.00000     0.00000     0.00000  0.0
     44     43     45     50   5     0.00000     0.00000     0.00000  0.0
     44     43     45     51   5     0.00000     0.00000     0.00000  0.0
     41     46     54     55   5     3.67355     4.10869     2.37651  0.0
     41     46     54     59   5     4.74884    -0.63178     1.67360  0.0
     41     46     54     60   5     0.00000     0.00000     1.25520  0.0
     52     46     54     55   5     0.00000     0.00000     1.25520  0.0
     52     46     54     59   5     0.00000     0.00000     1.25520  0.0
     52     46     54     60   5     0.00000     0.00000     1.25520  0.0
     53     46     54     55   5     0.00000     0.00000     1.25520  0.0
     53     46     54     59   5     0.00000     0.00000     1.25520  0.0
     53     46     54     60   5     0.00000     0.00000     1.25520  0.0
     46     54     55     56   5    -3.67774    -0.67781     0.28033  0.0
     46     54     55     61   5     0.00000     0.00000     0.00000  0.0
     59     54     55     56   5    -3.67774    -0.67781     0.28033  0.0
     59     54     55     61   5     0.00000     0.00000     0.00000  0.0
     60     54     55     56   5     0.00000     0.00000     0.00000  0.0
     60     54     55     61   5     0.00000     0.00000     0.00000  0.0
     46     54     59     65   5     0.00000     0.00000     1.25520  0.0
     46     54     59     66   5     0.00000     0.00000     1.25520  0.0
     46     54     59     67   5     4.74884    -0.63178     1.67360  0.0
     55     54     59     65   5     0.00000     0.00000     1.25520  0.0
     55     54     59     66   5     0.00000     0.00000     1.25520  0.0
     55     54     59     67   5     3.67355     4.10869     2.37651  0.0
     60     54     59     65   5     0.00000     0.00000     1.25520  0.0
     60     54     59     66   5     0.00000     0.00000     1.25520  0.0
     60     54     59     67   5     0.00000     0.00000     1.25520  0.0
     54     55     56     57   5     0.00000    25.47638     0.00000  0.0
     54     55     56     58   5    12.53945    12.88254     0.00000  0.0
     61     55     56     57   5     0.00000    20.50160     0.00000  0.0
     61     55     56     58   5     0.00000    20.50160     0.00000  0.0
     55     56     58     62   5     0.00000     0.00000     0.00000  0.0
     55     56     58     63   5     0.00000     0.00000     0.00000  0.0
     55     56     58     64   5     0.00000     0.00000     0.00000  0.0
     57     56     58     62   5     0.00000     0.00000     0.00000  0.0
     57     56     58     63   5     0.00000     0.00000     0.00000  0.0
     57     56     58     64   5     0.00000     0.00000     0.00000  0.0
     54     59     67     68   5     3.67355     4.10869     2.37651  0.0
     54     59     67     72   5     4.74884    -0.63178     1.67360  0.0
     54     59     67     73   5     0.00000     0.00000     1.25520  0.0
     65     59     67     68   5     0.00000     0.00000     1.25520  0.0
     65     59     67     72   5     0.00000     0.00000     1.25520  0.0
     65     59     67     73   5     0.00000     0.00000     1.25520  0.0
     66     59     67     68   5     0.00000     0.00000     1.25520  0.0
     66     59     67     72   5     0.00000     0.00000     1.25520  0.0
     66     59     67     73   5     0.00000     0.00000     1.25520  0.0
     59     67     68     69   5    -3.67774    -0.67781     0.28033  0.0
     59     67     68     74   5     0.00000     0.00000     0.00000  0.0
     72     67     68     69   5    -3.67774    -0.67781     0.28033  0.0
     72     67     68     74   5     0.00000     0.00000     0.00000  0.0
     73     67     68     69   5     0.00000     0.00000     0.00000  0.0
     73     67     68     74   5     0.00000     0.00000     0.00000  0.0
     59     67     72     78   5     0.00000     0.00000     1.25520  0.0
     59     67     72     79   5     0.00000     0.00000     1.25520  0.0
     59     67     72     80   5     4.74884    -0.63178     1.67360  0.0
     68     67     72     78   5     0.00000     0.00000     1.25520  0.0
     68     67     72     79   5     0.00000     0.00000     1.25520  0.0
     68     67     72     80   5     3.67355     4.10869     2.37651  0.0
     73     67     72     78   5     0.00000     0.00000     1.25520  0.0
     73     67     72     79   5     0.00000     0.00000     1.25520  0.0
     73     67     72     80   5     0.00000     0.00000     1.25520  0.0
     67     68     69     70   5     0.00000    25.47638     0.00000  0.0
     67     68     69     71   5    12.53945    12.88254     0.00000  0.0
     74     68     69     70   5     0.00000    20.50160     0.00000  0.0
     74     68     69     71   5     0.00000    20.50160     0.00000  0.0
     68     69     71     75   5     0.00000     0.00000     0.00000  0.0
     68     69     71     76   5     0.00000     0.00000     0.00000  0.0
     68     69     71     77   5     0.00000     0.00000     0.00000  0.0
     70     69     71     75   5     0.00000     0.00000     0.00000  0.0
     70     69     71     76   5     0.00000     0.00000     0.00000  0.0
     70     69     71     77   5     0.00000     0.00000     0.00000  0.0
     67     72     80     81   5     3.67355     4.10869     2.37651  0.0
     67     72     80     85   5     4.74884    -0.63178     1.67360  0.0
     67     72     80     86   5     0.00000     0.00000     1.25520  0.0
     78     72     80     81   5     0.00000     0.00000     1.25520  0.0
     78     72     80     85   5     0.00000     0.00000     1.25520  0.0
     78     72     80     86   5     0.00000     0.00000     1.25520  0.0
     79     72     80     81   5     0.00000     0.00000     1.25520  0.0
     79     72     80     85   5     0.00000     0.00000     1.25520  0.0
     79     72     80     86   5     0.00000     0.00000     1.25520  0.0
     72     80     81     82   5    -3.67774    -0.67781     0.28033  0.0
     72     80     81     87   5     0.00000     0.00000     0.00000  0.0
     85     80     81     82   5    -3.67774    -0.67781     0.28033  0.0
     85     80     81     87   5     0.00000     0.00000     0.00000  0.0
     86     80     81     82   5     0.00000     0.00000     0.00000  0.0
     86     80     81     87   5     0.00000     0.00000     0.00000  0.0
     72     80     85     91   5     0.00000     0.00000     1.25520  0.0
     72     80     85     92   5     0.00000     0.00000     1.25520  0.0
     72     80     85     93   5     4.74884    -0.63178     1.67360  0.0
     81     80     85     91   5     0.00000     0.00000     1.25520  0.0
     81     80     85     92   5     0.00000     0.00000     1.25520  0.0
     81     80     85     93   5     3.67355     4.10869     2.37651  0.0
     86     80     85     91   5     0.00000     0.00000     1.25520  0.0
     86     80     85     92   5     0.00000     0.00000     1.25520  0.0
     86     80     85     93   5     0.00000     0.00000     1.25520  0.0
     80     81     82     83   5     0.00000    25.47638     0.00000  0.0
     80     81     82     84   5    12.53945    12.88254     0.00000  0.0
     87     81     82     83   5     0.00000    20.50160     0.00000  0.0
     87     81     82     84   5     0.00000    20.50160     0.00000  0.0
     81     82     84     88   5     0.00000     0.00000     0.00000  0.0
     81     82     84     89   5     0.00000     0.00000     0.00000  0.0
     81     82     84     90   5     0.00000     0.00000     0.00000  0.0
     83     82     84     88   5     0.00000     0.00000     0.00000  0.0
     83     82     84     89   5     0.00000     0.00000     0.00000  0.0
     83     82     84     90   5     0.00000     0.00000     0.00000  0.0
     80     85     93     94   5     3.67355     4.10869     2.37651  0.0
     80     85     93     98   5     4.74884    -0.63178     1.67360  0.0
     80     85     93     99   5     0.00000     0.00000     1.25520  0.0
     91     85     93     94   5     0.00000     0.00000     1.25520  0.0
     91     85     93     98   5     0.00000     0.00000     1.25520  0.0
     91     85     93     99   5     0.00000     0.00000     1.25520  0.0
     92     85     93     94   5     0.00000     0.00000     1.25520  0.0
     92     85     93     98   5     0.00000     0.00000     1.25520  0.0
     92     85     93     99   5     0.00000     0.00000     1.25520  0.0
     85     93     94     95   5    -3.67774    -0.67781     0.28033  0.0
     85     93     94    100   5     0.00000     0.00000     0.00000  0.0
     98     93     94     95   5    -3.67774    -0.67781     0.28033  0.0
     98     93     94    100   5     0.00000     0.00000     0.00000  0.0
     99     93     94     95   5     0.00000     0.00000     0.00000  0.0
     99     93     94    100   5     0.00000     0.00000     0.00000  0.0
     85     93     98    104   5     0.00000     0.00000     1.25520  0.0
     85     93     98    105   5     0.00000     0.00000     1.25520  0.0
     85     93     98    106   5     4.74884    -0.63178     1.67360  0.0
     94     93     98    104   5     0.00000     0.00000     1.25520  0.0
     94     93     98    105   5     0.00000     0.00000     1.25520  0.0
     94     93     98    106   5     3.67355     4.10869     2.37651  0.0
     99     93     98    104   5     0.00000     0.00000     1.25520  0.0
     99     93     98    105   5     0.00000     0.00000     1.25520  0.0
     99     93     98    106   5     0.00000     0.00000     1.25520  0.0
     93     94     95     96   5     0.00000    25.47638     0.00000  0.0
     93     94     95     97   5    12.53945    12.88254     0.00000  0.0
    100     94     95     96   5     0.00000    20.50160     0.00000  0.0
    100     94     95     97   5     0.00000    20.50160     0.00000  0.0
     94     95     97    101   5     0.00000     0.00000     0.00000  0.0
     94     95     97    102   5     0.00000     0.00000     0.00000  0.0
     94     95     97    103   5     0.00000     0.00000     0.00000  0.0
     96     95     97    101   5     0.00000     0.00000     0.00000  0.0
     96     95     97    102   5     0.00000     0.00000     0.00000  0.0
     96     95     97    103   5     0.00000     0.00000     0.00000  0.0
     93     98    106    107   5     3.67355     4.10869     2.37651  0.0
     93     98    106    111   5     4.74884    -0.63178     1.67360  0.0
     93     98    106    112   5     0.00000     0.00000     1.25520  0.0
    104     98    106    107   5     0.00000     0.00000     1.25520  0.0
    104     98    106    111   5     0.00000     0.00000     1.25520  0.0
    104     98    106    112   5     0.00000     0.00000     1.25520  0.0
    105     98    106    107   5     0.00000     0.00000     1.25520  0.0
    105     98    106    111   5     0.00000     0.00000     1.25520  0.0
    105     98    106    112   5     0.00000     0.00000     1.25520  0.0
     98    106    107    108   5    -3.67774    -0.67781     0.28033  0.0
     98    106    107    113   5     0.00000     0.00000     0.00000  0.0
    111    106    107    108   5    -3.67774    -0.67781     0.28033  0.0
    111    106    107    113   5     0.00000     0.00000     0.00000  0.0
    112    106    107    108   5     0.00000     0.00000     0.00000  0.0
    112    106    107    113   5     0.00000     0.00000     0.00000  0.0
     98    106    111    117   5     0.00000     0.00000     1.25520  0.0
     98    106    111    118   5     0.00000     0.00000     1.25520  0.0
     98    106    111    119   5     4.74884    -0.63178     1.67360  0.0
    107    106    111    117   5     0.00000     0.00000     1.25520  0.0
    107    106    111    118   5     0.00000     0.00000     1.25520  0.0
    107    106    111    119   5     3.67355     4.10869     2.37651  0.0
    112    106    111    117   5     0.00000     0.00000     1.25520  0.0
    112    106    111    118   5     0.00000     0.00000     1.25520  0.0
    112    106    111    119   5     0.00000     0.00000     1.25520  0.0
    106    107    108    109   5     0.00000    25.47638     0.00000  0.0
    106    107    108    110   5    12.53945    12.88254     0.00000  0.0
    113    107    108    109   5     0.00000    20.50160     0.00000  0.0
    113    107    108    110   5     0.00000    20.50160     0.00000  0.0
    107    108    110    114   5     0.00000     0.00000     0.00000  0.0
    107    108    110    115   5     0.00000     0.00000     0.00000  0.0
    107    108    110    116   5     0.00000     0.00000     0.00000  0.0
    109    108    110    114   5     0.00000     0.00000     0.00000  0.0
    109    108    110    115   5     0.00000     0.00000     0.00000  0.0
    109    108    110    116   5     0.00000     0.00000     0.00000  0.0
    106    111    119    120   5     3.67355     4.10869     2.37651  0.0
    106    111    119    124   5     4.74884    -0.63178     1.67360  0.0
    106    111    119    125   5     0.00000     0.00000     1.25520  0.0
    117    111    119    120   5     0.00000     0.00000     1.25520  0.0
    117    111    119    124   5     0.00000     0.00000     1.25520  0.0
    117    111    119    125   5     0.00000     0.00000     1.25520  0.0
    118    111    119    120   5     0.00000     0.00000     1.25520  0.0
    118    111    119    124   5     0.00000     0.00000     1.25520  0.0
    118    111    119    125   5     0.00000     0.00000     1.25520  0.0
    111    119    120    121   5    -3.67774    -0.67781     0.28033  0.0
    111    119    120    126   5     0.00000     0.00000     0.00000  0.0
    124    119    120    121   5    -3.67774    -0.67781     0.28033  0.0
    124    119    120    126   5     0.00000     0.00000     0.00000  0.0
    125    119    120    121   5     0.00000     0.00000     0.00000  0.0
    125    119    120    126   5     0.00000     0.00000     0.00000  0.0
    111    119    124    130   5     0.00000     0.00000     1.25520  0.0
    111    119    124    131   5     0.00000     0.00000     1.25520  0.0
    111    119    124    132   5     4.74884    -0.63178     1.67360  0.0
    120    119    124    130   5     0.00000     0.00000     1.25520  0.0
    120    119    124    131   5     0.00000     0.00000     1.25520  0.0
    120    119    124    132   5     3.67355     4.10869     2.37651  0.0
    125    119    124    130   5     0.00000     0.00000     1.25520  0.0
    125    119    124    131   5     0.00000     0.00000     1.25520  0.0
    125    119    124    132   5     0.00000     0.00000     1.25520  0.0
    119    120    121    122   5     0.00000    25.47638     0.00000  0.0
    119    120    121    123   5    12.53945    12.88254     0.00000  0.0
    126    120    121    122   5     0.00000    20.50160     0.00000  0.0
    126    120    121    123   5     0.00000    20.50160     0.00000  0.0
    120    121    123    127   5     0.00000     0.00000     0.00000  0.0
    120    121    123    128   5     0.00000     0.00000     0.00000  0.0
    120    121    123    129   5     0.00000     0.00000     0.00000  0.0
    122    121    123    127   5     0.00000     0.00000     0.00000  0.0
    122    121    123    128   5     0.00000     0.00000     0.00000  0.0
    122    121    123    129   5     0.00000     0.00000     0.00000  0.0
    119    124    132    133   5     3.67355     4.10869     2.37651  0.0
    119    124    132    137   5     4.74884    -0.63178     1.67360  0.0
    119    124    132    138   5     0.00000     0.00000     1.25520  0.0
    130    124    132    133   5     0.00000     0.00000     1.25520  0.0
    130    124    132    137   5     0.00000     0.00000     1.25520  0.0
    130    124    132    138   5     0.00000     0.00000     1.25520  0.0
    131    124    132    133   5     0.00000     0.00000     1.25520  0.0
    131    124    132    137   5     0.00000     0.00000     1.25520  0.0
    131    124    132    138   5     0.00000     0.00000     1.25520  0.0
    124    132    133    134   5    -3.67774    -0.67781     0.28033  0.0
    124    132    133    139   5     0.00000     0.00000     0.00000  0.0
    137    132    133    134   5    -3.67774    -0.67781     0.28033  0.0
    137    132    133    139   5     0.00000     0.00000     0.00000  0.0
    138    132    133    134   5     0.00000     0.00000     0.00000  0.0
    138    132    133    139   5     0.00000     0.00000     0.00000  0.0
    124    132    137    143   5     0.00000     0.00000     1.25520  0.0
    124    132    137    144   5     0.00000     0.00000     1.25520  0.0
    124    132    137    145   5     4.74884    -0.63178     1.67360  0.0
    133    132    137    143   5     0.00000     0.00000     1.25520  0.0
    133    132    137    144   5     0.00000     0.00000     1.25520  0.0
    133    132    137    145   5     3.67355     4.10869     2.37651  0.0
    138    132    137    143   5     0.00000     0.00000     1.25520  0.0
    138    132    137    144   5     0.00000     0.00000     1.25520  0.0
    138    132    137    145   5     0.00000     0.00000     1.25520  0.0
    132    133    134    135   5     0.00000    25.47638     0.00000  0.0
    132    133    134    136   5    12.53945    12.88254     0.00000  0.0
    139    133    134    135   5     0.00000    20.50160     0.00000  0.0
    139    133    134    136   5     0.00000    20.50160     0.00000  0.0
    133    134    136    140   5     0.00000     0.00000     0.00000  0.0
    133    134    136    141   5     0.00000     0.00000     0.00000  0.0
    133    134    136    142   5     0.00000     0.00000     0.00000  0.0
    135    134    136    140   5     0.00000     0.00000     0.00000  0.0
    135    134    136    141   5     0.00000     0.00000     0.00000  0.0
    135    134    136    142   5     0.00000     0.00000     0.00000  0.0
    132    137    145    146   5     3.67355     4.10869     2.37651  0.0
    132    137    145    150   5     4.74884    -0.63178     1.67360  0.0
    132    137    145    151   5     0.00000     0.00000     1.25520  0.0
    143    137    145    146   5     0.00000     0.00000     1.25520  0.0
    143    137    145    150   5     0.00000     0.00000     1.25520  0.0
    143    137    145    151   5     0.00000     0.00000     1.25520  0.0
    144    137    145    146   5     0.00000     0.00000     1.25520  0.0
    144    137    145    150   5     0.00000     0.00000     1.25520  0.0
    144    137    145    151   5     0.00000     0.00000     1.25520  0.0
    137    145    146    147   5    -3.67774    -0.67781     0.28033  0.0
    137    145    146    152   5     0.00000     0.00000     0.00000  0.0
    150    145    146    147   5    -3.67774    -0.67781     0.28033  0.0
    150    145    146    152   5     0.00000     0.00000     0.00000  0.0
    151    145    146    147   5     0.00000     0.00000     0.00000  0.0
    151    145    146    152   5     0.00000     0.00000     0.00000  0.0
    137    145    150    156   5     0.00000     0.00000     1.25520  0.0
    137    145    150    157   5     0.00000     0.00000     1.25520  0.0
    137    145    150    158   5     4.74884    -0.63178     1.67360  0.0
    146    145    150    156   5     0.00000     0.00000     1.25520  0.0
    146    145    150    157   5     0.00000     0.00000     1.25520  0.0
    146    145    150    158   5     3.67355     4.10869     2.37651  0.0
    151    145    150    156   5     0.00000     0.00000     1.25520  0.0
    151    145    150    157   5     0.00000     0.00000     1.25520  0.0
    151    145    150    158   5     0.00000     0.00000     1.25520  0.0
    145    146    147    148   5     0.00000    25.47638     0.00000  0.0
    145    146    147    149   5    12.53945    12.88254     0.00000  0.0
    152    146    147    148   5     0.00000    20.50160     0.00000  0.0
    152    146    147    149   5     0.00000    20.50160     0.00000  0.0
    146    147    149    153   5     0.00000     0.00000     0.00000  0.0
    146    147    149    154   5     0.00000     0.00000     0.00000  0.0
    146    147    149    155   5     0.00000     0.00000     0.00000  0.0
    148    147    149    153   5     0.00000     0.00000     0.00000  0.0
    148    147    149    154   5     0.00000     0.00000     0.00000  0.0
    148    147    149    155   5     0.00000     0.00000     0.00000  0.0
    145    150    158    159   5     3.67355     4.10869     2.37651  0.0
    145    150    158    163   5     4.74884    -0.63178     1.67360  0.0
    145    150    158    164   5     0.00000     0.00000     1.25520  0.0
    156    150    158    159   5     0.00000     0.00000     1.25520  0.0
    156    150    158    163   5     0.00000     0.00000     1.25520  0.0
    156    150    158    164   5     0.00000     0.00000     1.25520  0.0
    157    150    158    159   5     0.00000     0.00000     1.25520  0.0
    157    150    158    163   5     0.00000     0.00000     1.25520  0.0
    157    150    158    164   5     0.00000     0.00000     1.25520  0.0
    150    158    159    160   5    -3.67774    -0.67781     0.28033  0.0
    150    158    159    165   5     0.00000     0.00000     0.00000  0.0
    163    158    159    160   5    -3.67774    -0.67781     0.28033  0.0
    163    158    159    165   5     0.00000     0.00000     0.00000  0.0
    164    158    159    160   5     0.00000     0.00000     0.00000  0.0
    164    158    159    165   5     0.00000     0.00000     0.00000  0.0
    150    158    163    169   5     0.00000     0.00000     1.25520  0.0
    150    158    163    170   5     0.00000     0.00000     1.25520  0.0
    150    158    163    171   5     4.74884    -0.63178     1.67360  0.0
    159    158    163    169   5     0.00000     0.00000     1.25520  0.0
    159    158    163    170   5     0.00000     0.00000     1.25520  0.0
    159    158    163    171   5     3.67355     4.10869     2.37651  0.0
    164    158    163    169   5     0.00000     0.00000     1.25520  0.0
    164    158    163    170   5     0.00000     0.00000     1.25520  0.0
    164    158    163    171   5     0.00000     0.00000     1.25520  0.0
    158    159    160    161   5     0.00000    25.47638     0.00000  0.0
    158    159    160    162   5    12.53945    12.88254     0.00000  0.0
    165    159    160    161   5     0.00000    20.50160     0.00000  0.0
    165    159    160    162   5     0.00000    20.50160     0.00000  0.0
    159    160    162    166   5     0.00000     0.00000     0.00000  0.0
    159    160    162    167   5     0.00000     0.00000     0.00000  0.0
    159    160    162    168   5     0.00000     0.00000     0.00000  0.0
    161    160    162    166   5     0.00000     0.00000     0.00000  0.0
    161    160    162    167   5     0.00000     0.00000     0.00000  0.0
    161    160    162    168   5     0.00000     0.00000     0.00000  0.0
    158    163    171    172   5     3.67355     4.10869     2.37651  0.0
    158    163    171    176   5     4.74884    -0.63178     1.67360  0.0
    158    163    171    177   5     0.00000     0.00000     1.25520  0.0
    169    163    171    172   5     0.00000     0.00000     1.25520  0.0
    169    163    171    176   5     0.00000     0.00000     1.25520  0.0
    169    163    171    177   5     0.00000     0.00000     1.25520  0.0
    170    163    171    172   5     0.00000     0.00000     1.25520  0.0
    170    163    171    176   5     0.00000     0.00000     1.25520  0.0
    170    163    171    177   5     0.00000     0.00000     1.25520  0.0
    163    171    172    173   5    -3.67774    -0.67781     0.28033  0.0
    163    171    172    178   5     0.00000     0.00000     0.00000  0.0
    176    171    172    173   5    -3.67774    -0.67781     0.28033  0.0
    176    171    172    178   5     0.00000     0.00000     0.00000  0.0
    177    171    172    173   5     0.00000     0.00000     0.00000  0.0
    177    171    172    178   5     0.00000     0.00000     0.00000  0.0
    163    171    176    182   5     0.00000     0.00000     1.25520  0.0
    163    171    176    183   5     0.00000     0.00000     1.25520  0.0
    163    171    176    184   5     4.74884    -0.63178     1.67360  0.0
    172    171    176    182   5     0.00000     0.00000     1.25520  0.0
    172    171    176    183   5     0.00000     0.00000     1.25520  0.0
    172    171    176    184   5     3.67355     4.10869     2.37651  0.0
    177    171    176    182   5     0.00000     0.00000     1.25520  0.0
    177    171    176    183   5     0.00000     0.00000     1.25520  0.0
    177    171    176    184   5     0.00000     0.00000     1.25520  0.0
    171    172    173    174   5     0.00000    25.47638     0.00000  0.0
    171    172    173    175   5    12.53945    12.88254     0.00000  0.0
    178    172    173    174   5     0.00000    20.50160     0.00000  0.0
    178    172    173    175   5     0.00000    20.50160     0.00000  0.0
    172    173    175    179   5     0.00000     0.00000     0.00000  0.0
    172    173    175    180   5     0.00000     0.00000     0.00000  0.0
    172    173    175    181   5     0.00000     0.00000     0.00000  0.0
    174    173    175    179   5     0.00000     0.00000     0.00000  0.0
    174    173    175    180   5     0.00000     0.00000     0.00000  0.0
    174    173    175    181   5     0.00000     0.00000     0.00000  0.0
    171    176    184    185   5     3.67355     4.10869     2.37651  0.0
    171    176    184    189   5     4.74884    -0.63178     1.67360  0.0
    171    176    184    190   5     0.00000     0.00000     1.25520  0.0
    182    176    184    185   5     0.00000     0.00000     1.25520  0.0
    182    176    184    189   5     0.00000     0.00000     1.25520  0.0
    182    176    184    190   5     0.00000     0.00000     1.25520  0.0
    183    176    184    185   5     0.00000     0.00000     1.25520  0.0
    183    176    184    189   5     0.00000     0.00000     1.25520  0.0
    183    176    184    190   5     0.00000     0.00000     1.25520  0.0
    176    184    185    186   5    -3.67774    -0.67781     0.28033  0.0
    176    184    185    191   5     0.00000     0.00000     0.00000  0.0
    189    184    185    186   5    -3.67774    -0.67781     0.28033  0.0
    189    184    185    191   5     0.00000     0.00000     0.00000  0.0
    190    184    185    186   5     0.00000     0.00000     0.00000  0.0
    190    184    185    191   5     0.00000     0.00000     0.00000  0.0
    176    184    189    195   5     0.00000     0.00000     1.25520  0.0
    176    184    189    196   5     0.00000     0.00000     1.25520  0.0
    176    184    189    197   5     4.74884    -0.63178     1.67360  0.0
    185    184    189    195   5     0.00000     0.00000     1.25520  0.0
    185    184    189    196   5     0.00000     0.00000     1.25520  0.0
    185    184    189    197   5     3.67355     4.10869     2.37651  0.0
    190    184    189    195   5     0.00000     0.00000     1.25520  0.0
    190    184    189    196   5     0.00000     0.00000     1.25520  0.0
    190    184    189    197   5     0.00000     0.00000     1.25520  0.0
    184    185    186    187   5     0.00000    25.47638     0.00000  0.0
    184    185    186    188   5    12.53945    12.88254     0.00000  0.0
    191    185    186    187   5     0.00000    20.50160     0.00000  0.0
    191    185    186    188   5     0.00000    20.50160     0.00000  0.0
    185    186    188    192   5     0.00000     0.00000     0.00000  0.0
    185    186    188    193   5     0.00000     0.00000     0.00000  0.0
    185    186    188    194   5     0.00000     0.00000     0.00000  0.0
    187    186    188    192   5     0.00000     0.00000     0.00000  0.0
    187    186    188    193   5     0.00000     0.00000     0.00000  0.0
    187    186    188    194   5     0.00000     0.00000     0.00000  0.0
    184    189    197    198   5     3.67355     4.10869     2.37651  0.0
    184    189    197    202   5     4.74884    -0.63178     1.67360  0.0
    184    189    197    203   5     0.00000     0.00000     1.25520  0.0
    195    189    197    198   5     0.00000     0.00000     1.25520  0.0
    195    189    197    202   5     0.00000     0.00000     1.25520  0.0
    195    189    197    203   5     0.00000     0.00000     1.25520  0.0
    196    189    197    198   5     0.00000     0.00000     1.25520  0.0
    196    189    197    202   5     0.00000     0.00000     1.25520  0.0
    196    189    197    203   5     0.00000     0.00000     1.25520  0.0
    189    197    198    199   5    -3.67774    -0.67781     0.28033  0.0
    189    197    198    204   5     0.00000     0.00000     0.00000  0.0
    202    197    198    199   5    -3.67774    -0.67781     0.28033  0.0
    202    197    198    204   5     0.00000     0.00000     0.00000  0.0
    203    197    198    199   5     0.00000     0.00000     0.00000  0.0
    203    197    198    204   5     0.00000     0.00000     0.00000  0.0
    189    197    202    208   5     0.00000     0.00000     1.25520  0.0
    189    197    202    209   5     0.00000     0.00000     1.25520  0.0
    189    197    202    210   5     4.74884    -0.63178     1.67360  0.0
    198    197    202    208   5     0.00000     0.00000     1.25520  0.0
    198    197    202    209   5     0.00000     0.00000     1.25520  0.0
    198    197    202    210   5     3.67355     4.10869     2.37651  0.0
    203    197    202    208   5     0.00000     0.00000     1.25520  0.0
    203    197    202    209   5     0.00000     0.00000     1.25520  0.0
    203    197    202    210   5     0.00000     0.00000     1.25520  0.0
    197    198    199    200   5     0.00000    25.47638     0.00000  0.0
    197    198    199    201   5    12.53945    12.88254     0.00000  0.0
    204    198    199    200   5     0.00000    20.50160     0.00000  0.0
    204    198    199    201   5     0.00000    20.50160     0.00000  0.0
    198    199    201    205   5     0.00000     0.00000     0.00000  0.0
    198    199    201    206   5     0.00000     0.00000     0.00000  0.0
    198    199    201    207   5     0.00000     0.00000     0.00000  0.0
    200    199    201    205   5     0.00000     0.00000     0.00000  0.0
    200    199    201    206   5     0.00000     0.00000     0.00000  0.0
    200    199    201    207   5     0.00000     0.00000     0.00000  0.0
    197    202    210    211   5     3.67355     4.10869     2.37651  0.0
    197    202    210    215   5     4.74884    -0.63178     1.67360  0.0
    197    202    210    216   5     0.00000     0.00000     1.25520  0.0
    208    202    210    211   5     0.00000     0.00000     1.25520  0.0
    208    202    210    215   5     0.00000     0.00000     1.25520  0.0
    208    202    210    216   5     0.00000     0.00000     1.25520  0.0
    209    202    210    211   5     0.00000     0.00000     1.25520  0.0
    209    202    210    215   5     0.00000     0.00000     1.25520  0.0
    209    202    210    216   5     0.00000     0.00000     1.25520  0.0
    202    210    211    212   5    -3.67774    -0.67781     0.28033  0.0
    202    210    211    217   5     0.00000     0.00000     0.00000  0.0
    215    210    211    212   5    -3.67774    -0.67781     0.28033  0.0
    215    210    211    217   5     0.00000     0.00000     0.00000  0.0
    216    210    211    212   5     0.00000     0.00000     0.00000  0.0
    216    210    211    217   5     0.00000     0.00000     0.00000  0.0
    202    210    215    221   5     0.00000     0.00000     1.25520  0.0
    202    210    215    222   5     0.00000     0.00000     1.25520  0.0
    202    210    215    223   5     4.74884    -0.63178     1.67360  0.0
    211    210    215    221   5     0.00000     0.00000     1.25520  0.0
    211    210    215    222   5     0.00000     0.00000     1.25520  0.0
    211    210    215    223   5     3.67355     4.10869     2.37651  0.0
    216    210    215    221   5     0.00000     0.00000     1.25520  0.0
    216    210    215    222   5     0.00000     0.00000     1.25520  0.0
    216    210    215    223   5     0.00000     0.00000     1.25520  0.0
    210    211    212    213   5     0.00000    25.47638     0.00000  0.0
    210    211    212    214   5    12.53945    12.88254     0.00000  0.0
    217    211    212    213   5     0.00000    20.50160     0.00000  0.0
    217    211    212    214   5     0.00000    20.50160     0.00000  0.0
    211    212    214    218   5     0.00000     0.00000     0.00000  0.0
    211    212    214    219   5     0.00000     0.00000     0.00000  0.0
    211    212    214    220   5     0.00000     0.00000     0.00000  0.0
    213    212    214    218   5     0.00000     0.00000     0.00000  0.0
    213    212    214    219   5     0.00000     0.00000     0.00000  0.0
    213    212    214    220   5     0.00000     0.00000     0.00000  0.0
    210    215    223    224   5     3.67355     4.10869     2.37651  0.0
    210    215    223    228   5     4.74884    -0.63178     1.67360  0.0
    210    215    223    229   5     0.00000     0.00000     1.25520  0.0
    221    215    223    224   5     0.00000     0.00000     1.25520  0.0
    221    215    223    228   5     0.00000     0.00000     1.25520  0.0
    221    215    223    229   5     0.00000     0.00000     1.25520  0.0
    222    215    223    224   5     0.00000     0.00000     1.25520  0.0
    222    215    223    228   5     0.00000     0.00000     1.25520  0.0
    222    215    223    229   5     0.00000     0.00000     1.25520  0.0
    215    223    224    225   5    -3.67774    -0.67781     0.28033  0.0
    215    223    224    230   5     0.00000     0.00000     0.00000  0.0
    228    223    224    225   5    -3.67774    -0.67781     0.28033  0.0
    228    223    224    230   5     0.00000     0.00000     0.00000  0.0
    229    223    224    225   5     0.00000     0.00000     0.00000  0.0
    229    223    224    230   5     0.00000     0.00000     0.00000  0.0
    215    223    228    234   5     0.00000     0.00000     1.25520  0.0
    215    223    228    235   5     0.00000     0.00000     1.25520  0.0
    215    223    228    236   5     4.74884    -0.63178     1.67360  0.0
    224    223    228    234   5     0.00000     0.00000     1.25520  0.0
    224    223    228    235   5     0.00000     0.00000     1.25520  0.0
    224    223    228    236   5     3.67355     4.10869     2.37651  0.0
    229    223    228    234   5     0.00000     0.00000     1.25520  0.0
    229    223    228    235   5     0.00000     0.00000     1.25520  0.0
    229    223    228    236   5     0.00000     0.00000     1.25520  0.0
    223    224    225    226   5     0.00000    25.47638     0.00000  0.0
    223    224    225    227   5    12.53945    12.88254     0.00000  0.0
    230    224    225    226   5     0.00000    20.50160     0.00000  0.0
    230    224    225    227   5     0.00000    20.50160     0.00000  0.0
    224    225    227    231   5     0.00000     0.00000     0.00000  0.0
    224    225    227    232   5     0.00000     0.00000     0.00000  0.0
    224    225    227    233   5     0.00000     0.00000     0.00000  0.0
    226    225    227    231   5     0.00000     0.00000     0.00000  0.0
    226    225    227    232   5     0.00000     0.00000     0.00000  0.0
    226    225    227    233   5     0.00000     0.00000     0.00000  0.0
    223    228    236    237   5     3.67355     4.10869     2.37651  0.0
    223    228    236    241   5     4.74884    -0.63178     1.67360  0.0
    223    228    236    242   5     0.00000     0.00000     1.25520  0.0
    234    228    236    237   5     0.00000     0.00000     1.25520  0.0
    234    228    236    241   5     0.00000     0.00000     1.25520  0.0
    234    228    236    242   5     0.00000     0.00000     1.25520  0.0
    235    228    236    237   5     0.00000     0.00000     1.25520  0.0
    235    228    236    241   5     0.00000     0.00000     1.25520  0.0
    235    228    236    242   5     0.00000     0.00000     1.25520  0.0
    228    236    237    238   5    -3.67774    -0.67781     0.28033  0.0
    228    236    237    243   5     0.00000     0.00000     0.00000  0.0
    241    236    237    238   5    -3.67774    -0.67781     0.28033  0.0
    241    236    237    243   5     0.00000     0.00000     0.00000  0.0
    242    236    237    238   5     0.00000     0.00000     0.00000  0.0
    242    236    237    243   5     0.00000     0.00000     0.00000  0.0
    228    236    241    247   5     0.00000     0.00000     1.25520  0.0
    228    236    241    248   5     0.00000     0.00000     1.25520  0.0
    228    236    241    249   5     4.74884    -0.63178     1.67360  0.0
    237    236    241    247   5     0.00000     0.00000     1.25520  0.0
    237    236    241    248   5     0.00000     0.00000     1.25520  0.0
    237    236    241    249   5     3.67355     4.10869     2.37651  0.0
    242    236    241    247   5     0.00000     0.00000     1.25520  0.0
    242    236    241    248   5     0.00000     0.00000     1.25520  0.0
    242    236    241    249   5     0.00000     0.00000     1.25520  0.0
    236    237    238    239   5     0.00000    25.47638     0.00000  0.0
    236    237    238    240   5    12.53945    12.88254     0.00000  0.0
    243    237    238    239   5     0.00000    20.50160     0.00000  0.0
    243    237    238    240   5     0.00000    20.50160     0.00000  0.0
    237    238    240    244   5     0.00000     0.00000     0.00000  0.0
    237    238    240    245   5     0.00000     0.00000     0.00000  0.0
    237    238    240    246   5     0.00000     0.00000     0.00000  0.0
    239    238    240    244   5     0.00000     0.00000     0.00000  0.0
    239    238    240    245   5     0.00000     0.00000     0.00000  0.0
    239    238    240    246   5     0.00000     0.00000     0.00000  0.0
    236    241    249    250   5     3.67355     4.10869     2.37651  0.0
    236    241    249    254   5     4.74884    -0.63178     1.67360  0.0
    236    241    249    255   5     0.00000     0.00000     1.25520  0.0
    247    241    249    250   5     0.00000     0.00000     1.25520  0.0
    247    241    249    254   5     0.00000     0.00000     1.25520  0.0
    247    241    249    255   5     0.00000     0.00000     1.25520  0.0
    248    241    249    250   5     0.00000     0.00000     1.25520  0.0
    248    241    249    254   5     0.00000     0.00000     1.25520  0.0
    248    241    249    255   5     0.00000     0.00000     1.25520  0.0
    241    249    250    251   5    -3.67774    -0.67781     0.28033  0.0
    241    249    250    256   5     0.00000     0.00000     0.00000  0.0
    254    249    250    251   5    -3.67774    -0.67781     0.28033  0.0
    254    249    250    256   5     0.00000     0.00000     0.00000  0.0
    255    249    250    251   5     0.00000     0.00000     0.00000  0.0
    255    249    250    256   5     0.00000     0.00000     0.00000  0.0
    241    249    254    260   5     0.00000     0.00000     1.25520  0.0
    241    249    254    261   5     0.00000     0.00000     1.25520  0.0
    241    249    254    262   5     0.00000     0.00000     1.25520  0.0
    250    249    254    260   5     0.00000     0.00000     1.25520  0.0
    250    249    254    261   5     0.00000     0.00000     1.25520  0.0
    250    249    254    262   5     0.00000     0.00000     1.25520  0.0
    255    249    254    260   5     0.00000     0.00000     1.25520  0.0
    255    249    254    261   5     0.00000     0.00000     1.25520  0.0
    255    249    254    262   5     0.00000     0.00000     1.25520  0.0
    249    250    251    252   5     0.00000    25.47638     0.00000  0.0
    249    250    251    253   5    12.53945    12.88254     0.00000  0.0
    256    250    251    252   5     0.00000    20.50160     0.00000  0.0
    256    250    251    253   5     0.00000    20.50160     0.00000  0.0
    250    251    253    257   5     0.00000     0.00000     0.00000  0.0
    250    251    253    258   5     0.00000     0.00000     0.00000  0.0
    250    251    253    259   5     0.00000     0.00000     0.00000  0.0
    252    251    253    257   5     0.00000     0.00000     0.00000  0.0
    252    251    253    258   5     0.00000     0.00000     0.00000  0.0
    252    251    253    259   5     0.00000     0.00000     0.00000  0.0

[ dihedrals ]
; Improper dihedrals
; h   i   j   k   funct
      1      3      2      8   5     0.00000     8.36800     0.00000  0.0
      2      4      3      5   5     0.00000    87.86400     0.00000  0.0
     15     17     16     22   5     0.00000     8.36800     0.00000  0.0
     16     18     17     19   5     0.00000    87.86400     0.00000  0.0
     28     30     29     35   5     0.00000     8.36800     0.00000  0.0
     29     31     30     32   5     0.00000    87.86400     0.00000  0.0
     41     43     42     48   5     0.00000     8.36800     0.00000  0.0
     42     44     43     45   5     0.00000    87.86400     0.00000  0.0
     54     56     55     61   5     0.00000     8.36800     0.00000  0.0
     55     57     56     58   5     0.00000    87.86400     0.00000  0.0
     67     69     68     74   5     0.00000     8.36800     0.00000  0.0
     68     70     69     71   5     0.00000    87.86400     0.00000  0.0
     80     82     81     87   5     0.00000     8.36800     0.00000  0.0
     81     83     82     84   5     0.00000    87.86400     0.00000  0.0
     93     95     94    100   5     0.00000     8.36800     0.00000  0.0
     94     96     95     97   5     0.00000    87.86400     0.00000  0.0
    106    108    107    113   5     0.00000     8.36800     0.00000  0.0
    107    109    108    110   5     0.00000    87.86400     0.00000  0.0
    119    121    120    126   5     0.00000     8.36800     0.00000  0.0
    120    122    121    123   5     0.00000    87.86400     0.00000  0.0
    132    134    133    139   5     0.00000     8.36800     0.00000  0.0
    133    135    134    136   5     0.00000    87.86400     0.00000  0.0
    145    147    146    152   5     0.00000     8.36800     0.00000  0.0
    146    148    147    149   5     0.00000    87.86400     0.00000  0.0
    158    160    159    165   5     0.00000     8.36800     0.00000  0.0
    159    161    160    162   5     0.00000    87.86400     0.00000  0.0
    171    173    172    178   5     0.00000     8.36800     0.00000  0.0
    172    174    173    175   5     0.00000    87.86400     0.00000  0.0
    184    186    185    191   5     0.00000     8.36800     0.00000  0.0
    185    187    186    188   5     0.00000    87.86400     0.00000  0.0
    197    199    198    204   5     0.00000     8.36800     0.00000  0.0
    198    200    199    201   5     0.00000    87.86400     0.00000  0.0
    210    212    211    217   5     0.00000     8.36800     0.00000  0.0
    211    213    212    214   5     0.00000    87.86400     0.00000  0.0
    223    225    224    230   5     0.00000     8.36800     0.00000  0.0
    224    226    225    227   5     0.00000    87.86400     0.00000  0.0
    236    238    237    243   5     0.00000     8.36800     0.00000  0.0
    237    239    238    240   5     0.00000    87.86400     0.00000  0.0
    249    251    250    256   5     0.00000     8.36800     0.00000  0.0
    250    252    251    253   5     0.00000    87.86400     0.00000  0.0
